Title
82275
    1SAPS     N    1   3.396   0.871  11.201  0.2974 -0.3810 -0.5100
    1SAPS   HN1    2   3.443   0.816  11.275 -0.2326 -0.5350 -0.2874
    1SAPS   HN2    3   3.443   0.867  11.108  0.9316  0.8165 -0.2373
    1SAPS   HN3    4   3.396   0.968  11.237  0.6695  0.0586 -1.6818
    1SAPS   C12    5   3.253   0.819  11.177 -0.5612 -0.8095 -0.2076
    1SAPS  H12A    6   3.208   0.871  11.094  2.3475  0.0455 -1.3210
    1SAPS   C13    7   3.251   0.664  11.155 -0.1232  0.7529  0.2804
    1SAPS  O13A    8   3.360   0.608  11.139 -0.1857  0.0518 -0.1789
    1SAPS  O13B    9   3.141   0.616  11.112  0.2518 -0.4963  0.3668
    1SAPS   C11   10   3.169   0.859  11.300  0.8444  0.4423  0.7460
    1SAPS  H11A   11   3.217   0.826  11.395  2.7881 -0.3470 -0.4803
    1SAPS  H11B   12   3.071   0.808  11.289  1.2020 -0.1857  0.4748
    1SAPS     P   13   3.039   1.082  11.247 -0.0267 -0.4146 -0.3440
    1SAPS   O13   14   2.913   1.026  11.310 -0.0261  0.3302 -0.0266
    1SAPS   O14   15   3.063   1.224  11.270  0.6817 -0.3156  0.0873
    1SAPS   O12   16   3.168   1.003  11.293 -0.2736 -0.3229  0.2613
    1SAPS   O11   17   3.045   1.055  11.087  0.0719  0.3936  0.3151
    1SAPS    C1   18   3.137   1.127  11.008  0.0833  0.6867 -0.1484
    1SAPS    HA   19   3.222   1.161  11.071  0.5214 -2.1848  0.8939
    1SAPS    HB   20   3.189   1.062  10.935  1.0296  0.8551  0.3682
    1SAPS    C2   21   3.071   1.251  10.941  0.2682  0.5766 -0.1864
    1SAPS    HS   22   3.013   1.300  11.022  1.0952  0.0795  0.7175
    1SAPS   O21   23   2.994   1.208  10.835 -0.2517  0.3316 -0.2660
    1SAPS   C21   24   2.892   1.284  10.797  0.0684  0.1973 -0.5863
    1SAPS   O22   25   2.854   1.388  10.847 -0.0054 -0.7544  0.6969
    1SAPS   C22   26   2.818   1.204  10.696  0.4516 -0.9198 -0.3330
    1SAPS   H2R   27   2.783   1.110  10.743  0.0468 -0.1821  0.8724
    1SAPS   H2S   28   2.731   1.271  10.679  0.2742 -0.5672  1.8399
    1SAPS    C3   29   3.170   1.349  10.874  0.7219 -0.0518  0.0926
    1SAPS    HX   30   3.233   1.401  10.949  0.8968 -0.2836  0.1097
    1SAPS    HY   31   3.120   1.428  10.815  0.5418 -0.7867 -0.7458
    1SAPS   O31   32   3.256   1.280  10.777 -0.0847 -0.2193 -0.8491
    1SAPS   C31   33   3.363   1.351  10.739  0.0921  0.5753  0.6050
    1SAPS   O32   34   3.385   1.470  10.764 -0.3238 -0.1368  0.0821
    1SAPS   C32   35   3.456   1.255  10.664 -0.6619 -0.5778  0.5356
    1SAPS   H2X   36   3.432   1.153  10.699 -0.5480 -0.4027  1.1337
    1SAPS   H2Y   37   3.559   1.276  10.698  0.2139 -2.5005 -0.9042
    1SAPS   C23   38   2.891   1.200  10.565  0.1951  0.1981  0.7793
    1SAPS   H3R   39   2.966   1.120  10.584  0.2529  0.7832  3.1661
    1SAPS   H3S   40   2.932   1.300  10.541  3.0346 -0.8411  1.1471
    1SAPS   C24   41   2.807   1.151  10.442 -0.6172 -0.1795  0.0386
    1SAPS   H4R   42   2.747   1.063  10.474 -2.4315  0.2737 -2.0216
    1SAPS   H4S   43   2.881   1.113  10.369 -0.6794  0.8029 -0.5344
    1SAPS   C25   44   2.712   1.245  10.362  0.0026  0.4540 -0.9972
    1SAPS   H5R   45   2.767   1.340  10.359 -1.3763  1.2426 -2.1528
    1SAPS   C26   46   2.583   1.229  10.339 -0.2438 -0.2230 -0.4918
    1SAPS   H6R   47   2.528   1.306  10.283 -1.7107  0.0863  1.3060
    1SAPS   C27   48   2.494   1.108  10.370 -0.8961  0.1701  0.8944
    1SAPS   H7R   49   2.483   1.094  10.479 -0.7674 -0.8042  0.7851
    1SAPS   H7S   50   2.549   1.021  10.329  0.3507  1.0211  0.7226
    1SAPS   C28   51   2.361   1.111  10.297 -0.6048  0.0104  0.1400
    1SAPS   H8R   52   2.267   1.130  10.351  0.1857  0.4965  1.3777
    1SAPS   C29   53   2.351   1.096  10.164 -0.3778 -0.3482  0.1736
    1SAPS   H9R   54   2.247   1.083  10.130 -0.1882  0.6722 -0.8507
    1SAPS  C210   55   2.458   1.048  10.065  0.0555 -0.1431 -0.3704
    1SAPS  H10R   56   2.424   0.951  10.022 -0.5410 -0.2553  0.3522
    1SAPS  H10S   57   2.549   1.026  10.125 -0.3563  1.9268  1.0652
    1SAPS  C211   58   2.495   1.160   9.965 -0.8392  0.3855  0.2840
    1SAPS  H11R   59   2.449   1.258   9.981  1.3621  1.3793  0.6238
    1SAPS  C212   60   2.582   1.154   9.870  0.3363 -0.0551 -0.2987
    1SAPS  H12R   61   2.599   1.242   9.806  0.4560 -0.0870 -0.3094
    1SAPS  C213   62   2.679   1.045   9.833 -0.4006 -0.0405 -0.0258
    1SAPS  H13R   63   2.637   0.988   9.748  2.6228  0.9494 -2.2598
    1SAPS  H13S   64   2.692   0.978   9.920  0.9049  0.3218  0.0649
    1SAPS  C214   65   2.816   1.082   9.787  0.4517  0.1332 -0.2579
    1SAPS  H14R   66   2.874   1.136   9.862 -0.2950 -1.8683  1.8096
    1SAPS  C215   67   2.875   1.056   9.665 -0.2399  0.2542 -0.7522
    1SAPS  H15R   68   2.974   1.095   9.636  0.1510  0.3220  0.6008
    1SAPS  C216   69   2.808   0.977   9.552 -0.2212  0.0148 -0.4091
    1SAPS  H16R   70   2.762   0.883   9.589  0.6523  0.0668  0.8565
    1SAPS  H16S   71   2.893   0.937   9.493  1.5583 -0.2469  2.2310
    1SAPS  C217   72   2.707   1.052   9.460 -0.0520 -0.2492 -0.5187
    1SAPS  H17R   73   2.626   1.089   9.526 -0.9561 -1.7973 -0.7537
    1SAPS  H17S   74   2.650   0.973   9.406 -1.2368 -0.9089  1.6562
    1SAPS  C218   75   2.748   1.171   9.384  0.3658  0.6574 -0.0760
    1SAPS  H18R   76   2.749   1.254   9.458 -0.0912 -1.3461  2.2658
    1SAPS  H18S   77   2.663   1.185   9.314  0.1881 -1.3710 -0.2936
    1SAPS  C219   78   2.879   1.147   9.315  0.5322  0.6921 -0.0961
    1SAPS  H19R   79   2.882   1.049   9.263 -1.8783  0.6853 -0.3020
    1SAPS  H19S   80   2.960   1.135   9.389  0.9654  0.3368 -0.6275
    1SAPS  C220   81   2.928   1.255   9.219 -0.9650  0.0052 -0.8030
    1SAPS  H20R   82   2.852   1.260   9.138 -0.8191 -2.2324 -1.1113
    1SAPS  H20S   83   3.027   1.222   9.180 -0.5181 -0.0616  0.3707
    1SAPS  H20T   84   2.941   1.358   9.258 -1.8820 -0.4233  0.6461
    1SAPS   C33   85   3.446   1.278  10.512  0.4054 -0.1705 -0.4093
    1SAPS   H3X   86   3.534   1.227  10.466  0.9266 -1.1305  1.5920
    1SAPS   H3Y   87   3.458   1.384  10.482 -1.3845  0.0641 -0.3220
    1SAPS   C34   88   3.303   1.246  10.458 -0.0976  0.0687 -0.1221
    1SAPS   H4X   89   3.223   1.291  10.520 -0.5128 -0.9824  0.1144
    1SAPS   H4Y   90   3.282   1.137  10.446  1.4798 -0.4462  1.6608
    1SAPS   C35   91   3.269   1.296  10.310  0.3663  0.6621  0.5575
    1SAPS   H5X   92   3.335   1.232  10.249  0.0014  2.1637 -1.4555
    1SAPS   H5Y   93   3.313   1.397  10.302  1.2979  0.1619 -0.6423
    1SAPS   C36   94   3.119   1.294  10.269 -0.1925  0.9634 -0.3538
    1SAPS   H6X   95   3.057   1.376  10.312 -0.8655 -0.2557  1.0409
    1SAPS   H6Y   96   3.083   1.198  10.311 -1.7264  1.1345 -1.2280
    1SAPS   C37   97   3.097   1.269  10.117 -0.1064  0.8277 -0.7914
    1SAPS   H7X   98   2.987   1.263  10.097  0.0404 -0.8168 -1.1906
    1SAPS   H7Y   99   3.137   1.166  10.105 -1.0600  0.3848 -0.2622
    1SAPS   C38  100   3.168   1.370  10.019 -0.4647 -0.4226  0.1598
    1SAPS   H8X  101   3.278   1.363  10.033 -0.5258 -0.5577  0.6070
    1SAPS   H8Y  102   3.141   1.476  10.039 -0.0037 -0.3222  0.2419
    1SAPS   C39  103   3.132   1.330   9.872 -0.6185 -0.3248  0.0370
    1SAPS   H9X  104   3.033   1.375   9.850 -0.3294 -0.0197 -0.6791
    1SAPS   H9Y  105   3.133   1.219   9.869 -0.0182 -0.3332  0.4192
    1SAPS  C310  106   3.218   1.389   9.761  0.6564  0.0607  0.1940
    1SAPS  H10X  107   3.323   1.383   9.796  0.9211  0.8351 -0.4607
    1SAPS  H10Y  108   3.206   1.497   9.742 -1.7947  0.3029  2.7038
    1SAPS  C311  109   3.192   1.324   9.626 -0.2048  0.9498 -0.1770
    1SAPS  H11X  110   3.087   1.333   9.589  0.2910  2.3450 -1.2901
    1SAPS  H11Y  111   3.213   1.215   9.633  0.4420  1.0254 -0.8795
    1SAPS  C312  112   3.287   1.365   9.516 -0.3587  0.2748  0.4159
    1SAPS  H12X  113   3.393   1.350   9.547 -0.8377 -0.0409  1.9580
    1SAPS  H12Y  114   3.272   1.473   9.493 -0.5453  0.0001 -0.7869
    1SAPS  C313  115   3.269   1.303   9.377 -0.3760 -0.0547 -0.4735
    1SAPS  H13X  116   3.173   1.333   9.329  1.0983  2.2893 -2.0561
    1SAPS  H13Y  117   3.285   1.195   9.396  0.0667 -0.1045 -1.0933
    1SAPS  C314  118   3.374   1.358   9.286 -0.1162  0.1306  0.3943
    1SAPS  H14X  119   3.472   1.324   9.326 -1.7869 -3.3703  1.7517
    1SAPS  H14Y  120   3.381   1.468   9.298  0.3263  0.2744 -1.0693
    1SAPS  C315  121   3.348   1.318   9.138  0.3821 -0.6876 -0.0250
    1SAPS  H15X  122   3.255   1.375   9.116 -0.3975 -1.5993  0.8688
    1SAPS  H15Y  123   3.323   1.210   9.134  0.7121 -0.7411 -0.7931
    1SAPS  C316  124   3.464   1.372   9.053  0.2325 -0.1530  0.8642
    1SAPS  H16X  125   3.543   1.324   9.114 -0.1187 -1.4134  0.3541
    1SAPS  H16Y  126   3.466   1.483   9.056  1.2343 -0.1283 -0.5323
    1SAPS  C317  127   3.481   1.314   8.906  0.2179  0.3927 -0.3495
    1SAPS  H17X  128   3.390   1.318   8.842  0.3273  0.0182 -0.5253
    1SAPS  H17Y  129   3.496   1.206   8.925 -0.8173  0.7051  2.5491
    1SAPS  C318  130   3.596   1.378   8.828 -0.5015 -0.2946  0.0829
    1SAPS  H18X  131   3.692   1.356   8.879 -0.7808 -1.0828  0.2801
    1SAPS  H18Y  132   3.582   1.488   8.835 -3.8362 -0.7328  0.9389
    1SAPS  H18Z  133   3.590   1.357   8.719 -0.6562  1.4266 -0.2638
    2SAPS     N  134   0.623   1.228  11.093  0.1351 -0.2289 -0.2811
    2SAPS   HN1  135   0.522   1.249  11.104  0.7780  1.9846  1.8884
    2SAPS   HN2  136   0.634   1.180  11.185 -0.7818 -0.0796 -0.0877
    2SAPS   HN3  137   0.671   1.319  11.085 -1.0696  0.4590  0.1859
    2SAPS   C12  138   0.638   1.134  10.982 -0.4393 -0.2032 -0.6457
    2SAPS  H12A  139   0.737   1.148  10.942 -0.1168 -0.2400  0.1341
    2SAPS   C13  140   0.632   0.985  11.015 -0.0667 -0.0364  0.6446
    2SAPS  O13A  141   0.597   0.952  11.127 -0.3002  0.0429 -0.1061
    2SAPS  O13B  142   0.697   0.905  10.940 -0.0613 -0.2538 -0.2136
    2SAPS   C11  143   0.541   1.175  10.876  0.1967 -0.8925 -0.0857
    2SAPS  H11A  144   0.439   1.172  10.919  0.1276  0.2762 -0.1597
    2SAPS  H11B  145   0.537   1.096  10.798  0.5199 -0.9076 -0.0913
    2SAPS     P  146   0.666   1.334  10.699 -0.1706  0.0732 -0.1270
    2SAPS   O13  147   0.580   1.350  10.578  0.4353 -0.5868 -0.2152
    2SAPS   O14  148   0.752   1.450  10.726 -0.4377  0.0158  0.0714
    2SAPS   O12  149   0.576   1.306  10.827  0.1680  0.2597  0.3917
    2SAPS   O11  150   0.744   1.199  10.693 -0.4243  0.4581 -0.0370
    2SAPS    C1  151   0.887   1.182  10.707 -0.7973  0.3263 -0.4879
    2SAPS    HA  152   0.935   1.271  10.753  0.3355  0.8270 -2.5468
    2SAPS    HB  153   0.898   1.095  10.776 -2.5542 -0.2051 -0.8521
    2SAPS    C2  154   0.963   1.141  10.572 -0.2423  0.3796 -0.5187
    2SAPS    HS  155   1.070   1.129  10.599 -0.6819 -0.0422  1.1458
    2SAPS   O21  156   0.950   1.240  10.479 -0.4027  0.0271  0.0741
    2SAPS   C21  157   1.051   1.266  10.400  0.2382  1.1951 -0.7789
    2SAPS   O22  158   1.166   1.220  10.407  0.6393  0.4236 -0.2269
    2SAPS   C22  159   1.008   1.375  10.301 -0.3439 -0.6983  0.2701
    2SAPS   H2R  160   0.942   1.326  10.227  1.0408 -1.4134 -0.5181
    2SAPS   H2S  161   0.947   1.448  10.359 -0.4404 -1.0382  0.5960
    2SAPS    C3  162   0.916   1.002  10.522 -0.2367  0.4395  0.2489
    2SAPS    HX  163   0.814   1.006  10.478  0.5822  0.2347 -1.7604
    2SAPS    HY  164   0.931   0.943  10.615 -0.2111 -0.0470 -0.0611
    2SAPS   O31  165   1.017   0.956  10.430  0.4507 -0.1177 -0.6978
    2SAPS   C31  166   0.977   0.834  10.388  0.4179  0.2332 -0.1299
    2SAPS   O32  167   0.869   0.782  10.420  0.1369  0.1585  0.3525
    2SAPS   C32  168   1.069   0.802  10.270  0.3557 -0.8814 -0.4582
    2SAPS   H2X  169   1.069   0.693  10.250 -0.2486 -0.6959 -1.5151
    2SAPS   H2Y  170   1.175   0.834  10.282  0.8014 -1.8663 -1.6427
    2SAPS   C23  171   1.127   1.451  10.231  0.0121  0.2404  0.0751
    2SAPS   H3R  172   1.203   1.382  10.189 -1.9613 -2.1999  0.3984
    2SAPS   H3S  173   1.195   1.496  10.307  0.9910  0.4572 -0.9196
    2SAPS   C24  174   1.086   1.550  10.130  0.5984 -0.0539 -0.0411
    2SAPS   H4R  175   1.026   1.631  10.177  0.8560  0.3990 -0.4882
    2SAPS   H4S  176   1.010   1.500  10.066 -0.0938  0.2670  0.5237
    2SAPS   C25  177   1.207   1.600  10.057  0.0444 -0.7579  0.0775
    2SAPS   H5R  178   1.268   1.671  10.115 -1.0000  0.7646 -0.6682
    2SAPS   C26  179   1.233   1.595   9.921  0.1576 -0.0637  0.1689
    2SAPS   H6R  180   1.320   1.648   9.881 -0.2060 -0.3038 -0.9608
    2SAPS   C27  181   1.144   1.528   9.813 -0.0118 -0.0059  0.1294
    2SAPS   H7R  182   1.195   1.558   9.719 -0.3946  1.4218  0.3513
    2SAPS   H7S  183   1.041   1.569   9.825  0.2718  1.5892 -2.3593
    2SAPS   C28  184   1.126   1.385   9.835 -0.1218  0.3455  0.1972
    2SAPS   H8R  185   1.080   1.347   9.928 -1.4643 -1.1624 -1.0304
    2SAPS   C29  186   1.156   1.284   9.749 -0.7092 -0.2890  0.2354
    2SAPS   H9R  187   1.138   1.179   9.776  0.3645 -1.1067 -2.1934
    2SAPS  C210  188   1.210   1.307   9.612  0.1852  0.8268 -0.4917
    2SAPS  H10R  189   1.274   1.220   9.586 -2.3941 -1.5736  0.9360
    2SAPS  H10S  190   1.274   1.397   9.603 -0.7015  1.3703 -1.4352
    2SAPS  C211  191   1.110   1.305   9.494  0.5135  0.2981  0.1745
    2SAPS  H11R  192   1.031   1.228   9.492  1.4914 -0.6740 -1.9340
    2SAPS  C212  193   1.122   1.377   9.384 -0.2012 -0.4627 -0.5144
    2SAPS  H12R  194   1.045   1.371   9.306 -2.5363  1.6412  1.5821
    2SAPS  C213  195   1.226   1.479   9.349 -0.0385  0.2691 -0.2721
    2SAPS  H13R  196   1.249   1.541   9.439 -0.9431 -0.1238  0.2422
    2SAPS  H13S  197   1.179   1.554   9.283  0.6125  1.1771  0.2670
    2SAPS  C214  198   1.366   1.424   9.308  0.2078 -0.3724 -0.9134
    2SAPS  H14R  199   1.406   1.347   9.375 -0.0037  0.6306  0.3903
    2SAPS  C215  200   1.438   1.456   9.197 -0.8095 -0.0006 -0.1261
    2SAPS  H15R  201   1.533   1.403   9.181 -0.9799 -0.1891 -0.5158
    2SAPS  C216  202   1.396   1.533   9.075  0.4310 -1.2198 -1.2551
    2SAPS  H16R  203   1.291   1.569   9.085  0.6511 -0.4004 -1.8960
    2SAPS  H16S  204   1.423   1.476   8.984  0.5146 -3.5550  0.1868
    2SAPS  C217  205   1.472   1.663   9.060  0.0073 -0.0848  0.0906
    2SAPS  H17R  206   1.578   1.631   9.045 -0.8554 -1.5560 -3.4318
    2SAPS  H17S  207   1.465   1.722   9.154 -0.9356 -0.3197  0.1720
    2SAPS  C218  208   1.434   1.767   8.944  1.0167  0.3920  0.0875
    2SAPS  H18R  209   1.323   1.765   8.951  1.1414  1.8165  3.0239
    2SAPS  H18S  210   1.449   1.718   8.845 -1.0697 -3.3068  1.4863
    2SAPS  C219  211   1.491   1.901   8.963 -0.0791  0.8104 -0.3753
    2SAPS  H19R  212   1.599   1.890   8.939  0.7045  0.8540  2.8787
    2SAPS  H19S  213   1.475   1.935   9.068 -0.9009 -0.0199 -0.2316
    2SAPS  C220  214   1.429   1.992   8.860  0.7579 -0.4488  0.6269
    2SAPS  H20R  215   1.319   1.991   8.849  0.8035 -0.9040  0.1841
    2SAPS  H20S  216   1.472   1.955   8.764 -0.1786 -0.5708  0.2536
    2SAPS  H20T  217   1.445   2.097   8.891 -1.0472  0.0109  0.0377
    2SAPS   C33  218   1.018   0.872  10.143 -0.1618 -0.7565  0.2621
    2SAPS   H3X  219   1.046   0.980  10.148  2.7220 -1.4432 -0.1203
    2SAPS   H3Y  220   0.907   0.869  10.137 -0.3244  0.6275  2.0453
    2SAPS   C34  221   1.078   0.813  10.019 -0.4303  0.0019 -1.1634
    2SAPS   H4X  222   1.034   0.712  10.028  1.5693 -0.7135  0.8291
    2SAPS   H4Y  223   1.189   0.816  10.007 -0.4240  0.3207 -1.0289
    2SAPS   C35  224   1.031   0.872   9.880  0.2186 -0.4507 -0.1513
    2SAPS   H5X  225   1.069   0.977   9.874  0.2432 -0.5045 -1.0214
    2SAPS   H5Y  226   0.920   0.880   9.880 -0.0283 -3.3953 -0.8606
    2SAPS   C36  227   1.084   0.786   9.764 -0.1622 -0.0537  0.5808
    2SAPS   H6X  228   1.041   0.683   9.764 -0.4551  0.0676  0.8499
    2SAPS   H6Y  229   1.191   0.771   9.788  0.0482  0.3978 -0.0720
    2SAPS   C37  230   1.057   0.855   9.631  0.4428  0.2102 -1.0760
    2SAPS   H7X  231   1.099   0.958   9.639  0.5673  0.1344 -0.7387
    2SAPS   H7Y  232   0.949   0.865   9.606  0.1892 -0.3978 -0.2369
    2SAPS   C38  233   1.121   0.776   9.513 -0.3302  0.0550 -0.9104
    2SAPS   H8X  234   1.091   0.669   9.510  1.0451 -0.4356  1.4278
    2SAPS   H8Y  235   1.231   0.790   9.521 -0.0737 -1.9898 -0.5157
    2SAPS   C39  236   1.082   0.838   9.375 -0.4346  0.1677 -0.7776
    2SAPS   H9X  237   0.974   0.863   9.383 -0.3103  0.9719 -1.5442
    2SAPS   H9Y  238   1.100   0.761   9.296  0.6236 -2.0456  1.5679
    2SAPS  C310  239   1.161   0.963   9.343  0.1545 -1.0026  0.1497
    2SAPS  H10X  240   1.263   0.917   9.347 -0.1212 -1.6361 -0.0225
    2SAPS  H10Y  241   1.149   1.030   9.431 -1.5311 -0.1649 -0.7104
    2SAPS  C311  242   1.118   1.032   9.220 -0.4020  0.1464  0.1478
    2SAPS  H11X  243   1.040   1.108   9.239  0.1444  0.7073  0.1488
    2SAPS  H11Y  244   1.070   0.954   9.157 -0.1421  0.2856 -0.2234
    2SAPS  C312  245   1.236   1.079   9.129 -0.3319 -0.1415 -0.1068
    2SAPS  H12X  246   1.302   0.992   9.108 -1.1776 -1.2176  1.5690
    2SAPS  H12Y  247   1.293   1.148   9.195  1.6339 -1.3693 -0.4954
    2SAPS  C313  248   1.203   1.158   9.008  0.5513  0.3803  0.4849
    2SAPS  H13X  249   1.293   1.190   8.952 -0.4454 -0.1842 -1.4760
    2SAPS  H13Y  250   1.143   1.246   9.041 -1.3645 -0.8457  0.3410
    2SAPS  C314  251   1.118   1.080   8.906  0.0691 -0.6348  0.1486
    2SAPS  H14X  252   1.015   1.079   8.947 -0.7291 -1.5842 -1.8304
    2SAPS  H14Y  253   1.144   0.974   8.889 -0.7458 -0.6798 -0.8617
    2SAPS  C315  254   1.111   1.138   8.768 -0.3064  0.1230 -0.6526
    2SAPS  H15X  255   1.205   1.101   8.721 -1.1335 -2.3410 -0.4382
    2SAPS  H15Y  256   1.116   1.249   8.773  0.7363 -0.0092  2.7038
    2SAPS  C316  257   1.002   1.068   8.679 -0.1591 -0.0036 -0.3441
    2SAPS  H16X  258   1.028   0.961   8.669  3.1794  0.8093 -1.1608
    2SAPS  H16Y  259   0.990   1.122   8.583  2.1065  0.6482 -0.2880
    2SAPS  C317  260   0.861   1.095   8.739 -0.0962 -0.5704  0.2869
    2SAPS  H17X  261   0.850   1.203   8.761 -0.7813 -0.6093  0.1428
    2SAPS  H17Y  262   0.839   1.036   8.831  0.8915 -1.5468 -0.0991
    2SAPS  C318  263   0.746   1.052   8.645 -0.0201 -0.8819  0.1568
    2SAPS  H18X  264   0.777   0.955   8.602  3.8550 -0.5254  1.9635
    2SAPS  H18Y  265   0.733   1.129   8.565 -3.1088  1.0199  2.3953
    2SAPS  H18Z  266   0.643   1.045   8.687 -0.7861  0.2078 -1.4686
    3SAPS     N  267   1.281   3.411  11.328  0.2516  0.2627 -0.1404
    3SAPS   HN1  268   1.253   3.508  11.302  2.4069  0.8374 -0.4505
    3SAPS   HN2  269   1.259   3.394  11.428  1.8647  1.0859  0.3676
    3SAPS   HN3  270   1.382   3.391  11.314 -0.2116 -2.5395  0.3568
    3SAPS   C12  271   1.184   3.326  11.248  0.0397  0.0777 -0.1061
    3SAPS  H12A  272   1.197   3.225  11.285  1.7852  0.2404 -0.2415
    3SAPS   C13  273   1.035   3.374  11.274  0.0064  0.2008 -0.5185
    3SAPS  O13A  274   1.010   3.470  11.354  0.0451  0.1585  0.9249
    3SAPS  O13B  275   0.936   3.309  11.228 -0.1354  0.3053 -0.3243
    3SAPS   C11  276   1.207   3.317  11.092  0.4116 -0.6155  0.2846
    3SAPS  H11A  277   1.174   3.412  11.045  0.4876 -0.4898  0.4854
    3SAPS  H11B  278   1.143   3.234  11.055 -0.0123  0.8793 -2.4372
    3SAPS     P  279   1.430   3.374  10.964 -0.0361  0.0591  0.3825
    3SAPS   O13  280   1.460   3.505  11.029  0.2211 -0.3635 -0.2338
    3SAPS   O14  281   1.544   3.294  10.905 -0.6957  0.5514  0.0195
    3SAPS   O12  282   1.343   3.283  11.057 -0.2201 -0.0575 -0.0294
    3SAPS   O11  283   1.323   3.396  10.849 -0.5726 -0.2080  0.1203
    3SAPS    C1  284   1.279   3.294  10.763  0.2518 -0.2367  0.0161
    3SAPS    HA  285   1.271   3.194  10.810  0.4346 -0.1325  0.2662
    3SAPS    HB  286   1.181   3.332  10.726  1.2313  1.3229 -1.0341
    3SAPS    C2  287   1.365   3.292  10.635 -0.0768  0.0291 -0.0177
    3SAPS    HS  288   1.469   3.263  10.662 -0.2433 -0.5644 -0.0125
    3SAPS   O21  289   1.361   3.415  10.560  0.0245 -0.2559  0.0287
    3SAPS   C21  290   1.450   3.508  10.589  0.3109  1.0237 -0.4212
    3SAPS   O22  291   1.549   3.488  10.666  0.3072 -0.4014  0.4848
    3SAPS   C22  292   1.426   3.634  10.520 -0.1682 -0.9486 -0.6566
    3SAPS   H2R  293   1.321   3.671  10.521 -0.2213 -1.1046 -0.3857
    3SAPS   H2S  294   1.495   3.705  10.569  0.4660 -0.7666 -1.8056
    3SAPS    C3  295   1.317   3.178  10.544  0.7337  0.0193 -0.3712
    3SAPS    HX  296   1.343   3.092  10.611  0.0634 -0.4583 -0.7148
    3SAPS    HY  297   1.376   3.164  10.451  0.0831  0.1986 -0.8094
    3SAPS   O31  298   1.175   3.191  10.523  0.1744  0.2189  0.1675
    3SAPS   C31  299   1.098   3.083  10.518 -0.1252  0.3369  0.6917
    3SAPS   O32  300   1.138   2.969  10.540  0.0386  0.0041 -0.1661
    3SAPS   C32  301   0.948   3.118  10.497  0.1662  0.0670 -0.3304
    3SAPS   H2X  302   0.941   3.216  10.548  1.9217  0.2851 -0.4735
    3SAPS   H2Y  303   0.882   3.044  10.547 -1.4492  1.2599 -0.6722
    3SAPS   C23  304   1.483   3.615  10.373 -0.0300  0.7351  0.6062
    3SAPS   H3R  305   1.405   3.562  10.315 -0.8018  0.7415  1.6119
    3SAPS   H3S  306   1.562   3.537  10.369 -0.3165  0.4676  0.0786
    3SAPS   C24  307   1.537   3.739  10.317  0.5344  0.1945 -0.1444
    3SAPS   H4R  308   1.591   3.726  10.220 -0.8765 -0.3086 -0.8789
    3SAPS   H4S  309   1.614   3.767  10.392  1.8356 -2.3824 -0.4318
    3SAPS   C25  310   1.440   3.850  10.314 -0.0372 -0.7052  0.4324
    3SAPS   H5R  311   1.383   3.875  10.404 -1.6733  1.0780 -1.0634
    3SAPS   C26  312   1.411   3.927  10.205 -0.3173 -0.1520 -0.6351
    3SAPS   H6R  313   1.340   4.008  10.227  1.8792  1.6898 -0.1248
    3SAPS   C27  314   1.476   3.922  10.073 -0.0935 -0.7247  0.0056
    3SAPS   H7R  315   1.585   3.934  10.091  0.4371 -2.5850 -1.7819
    3SAPS   H7S  316   1.441   4.006  10.009  1.2992  0.1878  0.4336
    3SAPS   C28  317   1.441   3.792  10.005 -0.7870  0.0158 -0.3364
    3SAPS   H8R  318   1.425   3.709  10.076  0.2289  1.9844  2.2849
    3SAPS   C29  319   1.430   3.770   9.872 -0.8434  0.1023  0.8065
    3SAPS   H9R  320   1.408   3.671   9.830 -1.8869  0.8804 -0.5427
    3SAPS  C210  321   1.454   3.876   9.766 -0.0927 -0.3852 -0.2036
    3SAPS  H10R  322   1.435   3.977   9.807  0.7408 -0.0380 -0.6663
    3SAPS  H10S  323   1.376   3.858   9.689 -1.1576 -1.9211  1.2109
    3SAPS  C211  324   1.592   3.881   9.705  0.3740 -0.4670 -0.4137
    3SAPS  H11R  325   1.672   3.876   9.780 -1.1758 -0.0440  1.3010
    3SAPS  C212  326   1.622   3.894   9.575 -0.1138 -0.0305 -0.8304
    3SAPS  H12R  327   1.727   3.882   9.543  0.0720 -0.6563 -0.0178
    3SAPS  C213  328   1.522   3.907   9.465  0.4355 -0.4873 -0.4989
    3SAPS  H13R  329   1.428   3.854   9.491 -0.5172  0.3237 -2.1994
    3SAPS  H13S  330   1.563   3.856   9.375  3.0767 -0.3778  0.6019
    3SAPS  C214  331   1.473   4.049   9.440 -0.7359  0.3168  0.4211
    3SAPS  H14R  332   1.442   4.098   9.534 -0.2607  1.1797  0.1311
    3SAPS  C215  333   1.443   4.096   9.316 -1.3257  0.1980 -0.8977
    3SAPS  H15R  334   1.414   4.202   9.313  0.2091  0.7291  1.5504
    3SAPS  C216  335   1.460   4.033   9.180  0.2897  0.2703  0.0602
    3SAPS  H16R  336   1.356   4.000   9.157 -0.6161 -0.2643  4.5727
    3SAPS  H16S  337   1.521   3.940   9.182  0.4484  0.2652 -2.4619
    3SAPS  C217  338   1.519   4.124   9.071 -0.7652 -0.2410  0.1739
    3SAPS  H17R  339   1.624   4.152   9.097 -0.6655 -0.7587  0.3356
    3SAPS  H17S  340   1.460   4.216   9.051 -1.9873 -1.1625 -0.5227
    3SAPS  C218  341   1.528   4.049   8.939  0.1297 -0.2043  0.8790
    3SAPS  H18R  342   1.427   4.008   8.923  0.8696 -1.3376 -1.0330
    3SAPS  H18S  343   1.594   3.962   8.960 -1.4230 -1.1890  1.7474
    3SAPS  C219  344   1.579   4.122   8.814 -0.2920  0.3407 -0.6844
    3SAPS  H19R  345   1.544   4.227   8.806 -0.9607  0.2002  0.3123
    3SAPS  H19S  346   1.522   4.079   8.728 -0.7664 -0.2105 -0.1029
    3SAPS  C220  347   1.724   4.119   8.766 -0.0126 -0.3438 -0.0396
    3SAPS  H20R  348   1.742   4.170   8.669  1.4447  1.3700  1.0908
    3SAPS  H20S  349   1.741   4.009   8.767  0.4394 -0.2838  1.4039
    3SAPS  H20T  350   1.795   4.161   8.841  0.0135 -2.8838  1.4108
    3SAPS   C33  351   0.917   3.150  10.348  0.5265  0.0424 -0.3697
    3SAPS   H3X  352   0.992   3.219  10.303 -0.3930  0.2724 -1.5678
    3SAPS   H3Y  353   0.821   3.203  10.331  1.4177  1.7650 -0.2043
    3SAPS   C34  354   0.916   3.022  10.257  0.2937  0.0519 -0.3515
    3SAPS   H4X  355   0.873   2.938  10.316  0.5325  1.6168  2.1379
    3SAPS   H4Y  356   1.019   2.996  10.225  0.3245 -1.4308  0.9043
    3SAPS   C35  357   0.848   3.051  10.120  0.6429 -0.2148  0.7163
    3SAPS   H5X  358   0.754   3.106  10.142  2.0405  2.2839  0.6945
    3SAPS   H5Y  359   0.814   2.951  10.086  1.0417 -1.2853  3.3698
    3SAPS   C36  360   0.929   3.105  10.007 -0.3675  0.3316 -0.1722
    3SAPS   H6X  361   1.024   3.048  10.010 -1.3516 -1.2566  1.4586
    3SAPS   H6Y  362   0.935   3.215  10.022 -1.4030  0.7657 -2.6423
    3SAPS   C37  363   0.859   3.089   9.874  0.1640 -0.2394 -0.2715
    3SAPS   H7X  364   0.762   3.143   9.873  0.3285  0.0604 -2.5326
    3SAPS   H7Y  365   0.828   2.983   9.862 -1.1886  0.2281 -0.9810
    3SAPS   C38  366   0.953   3.146   9.761 -0.3888  0.0227  0.1244
    3SAPS   H8X  367   1.048   3.088   9.767 -2.1789 -3.0673 -0.0344
    3SAPS   H8Y  368   0.978   3.252   9.782 -1.5709 -0.0836  2.2585
    3SAPS   C39  369   0.889   3.135   9.624  1.0107  0.7542 -0.6916
    3SAPS   H9X  370   0.779   3.151   9.625  0.3307 -3.5640 -0.1520
    3SAPS   H9Y  371   0.896   3.029   9.593  3.0736  0.4428  0.7111
    3SAPS  C310  372   0.942   3.215   9.508  0.0445  0.2131  0.1588
    3SAPS  H10X  373   1.048   3.192   9.484  0.8207  1.4154  2.3212
    3SAPS  H10Y  374   0.926   3.322   9.533  2.4823  0.9028 -1.0959
    3SAPS  C311  375   0.856   3.194   9.376  0.4889  0.4507  0.0931
    3SAPS  H11X  376   0.748   3.210   9.398 -0.2983  0.9066 -3.6906
    3SAPS  H11Y  377   0.870   3.085   9.362  2.0856  0.9115 -2.1822
    3SAPS  C312  378   0.892   3.282   9.258  0.0847 -0.6222  0.0865
    3SAPS  H12X  379   0.991   3.244   9.225 -1.0708 -2.9790 -0.7338
    3SAPS  H12Y  380   0.889   3.388   9.292 -1.4865 -0.5614 -0.1991
    3SAPS  C313  381   0.795   3.261   9.136 -0.5015  0.3125 -0.3264
    3SAPS  H13X  382   0.693   3.295   9.162 -0.8873 -1.5432  0.6735
    3SAPS  H13Y  383   0.778   3.153   9.114 -1.3012  0.2759  0.4438
    3SAPS  C314  384   0.854   3.339   9.015 -0.5197 -0.5215 -0.5576
    3SAPS  H14X  385   0.958   3.304   9.006 -0.9325 -2.5349  1.9424
    3SAPS  H14Y  386   0.845   3.448   9.039 -1.6944 -0.5203 -0.9475
    3SAPS  C315  387   0.784   3.319   8.881  0.3254 -0.3211  0.6036
    3SAPS  H15X  388   0.780   3.415   8.824 -0.8346 -1.0905 -0.6298
    3SAPS  H15Y  389   0.674   3.313   8.900  0.3061 -1.0771  0.2651
    3SAPS  C316  390   0.831   3.201   8.796 -0.4593 -0.7341 -0.7473
    3SAPS  H16X  391   0.826   3.105   8.852 -1.2118 -0.9723 -1.2158
    3SAPS  H16Y  392   0.935   3.219   8.760  0.6058 -0.5774  2.3081
    3SAPS  C317  393   0.743   3.176   8.667  0.0559  0.1676 -0.0445
    3SAPS  H17X  394   0.635   3.162   8.686 -0.0304  1.3502  0.4128
    3SAPS  H17Y  395   0.782   3.087   8.613  0.1760  0.1081  0.1407
    3SAPS  C318  396   0.763   3.285   8.565  0.0858 -0.9370 -0.1528
    3SAPS  H18X  397   0.867   3.301   8.528  0.0431  1.7750  0.7824
    3SAPS  H18Y  398   0.725   3.379   8.610  0.6779 -0.2082 -1.1470
    3SAPS  H18Z  399   0.700   3.266   8.475  1.5936  0.7132 -1.6009
    4SAPS     N  400   3.542   4.589  11.127 -0.5082 -0.0910  0.3906
    4SAPS   HN1  401   3.643   4.573  11.108 -0.3673 -0.0550  1.0897
    4SAPS   HN2  402   3.528   4.557  11.225  0.6621 -0.3967  0.4718
    4SAPS   HN3  403   3.495   4.526  11.059 -3.5854  0.2232  2.1659
    4SAPS   C12  404   3.507   4.727  11.103 -0.1075 -0.2090 -0.5394
    4SAPS  H12A  405   3.422   4.758  11.161  2.1176  1.2553  2.0541
    4SAPS   C13  406   3.627   4.829  11.128  0.3680  0.4864  0.4807
    4SAPS  O13A  407   3.739   4.779  11.161  0.5141 -0.5639 -0.3384
    4SAPS  O13B  408   3.616   4.946  11.088  0.2022  0.0414 -0.1152
    4SAPS   C11  409   3.465   4.740  10.949  0.8696 -0.2150 -0.1716
    4SAPS  H11A  410   3.550   4.706  10.887  1.8157 -0.4448  1.2317
    4SAPS  H11B  411   3.455   4.846  10.919 -3.8556 -0.4862  0.0469
    4SAPS     P  412   3.326   4.543  10.843  0.0271  0.1005 -0.2687
    4SAPS   O13  413   3.404   4.445  10.928 -0.3594  0.0750 -0.3819
    4SAPS   O14  414   3.179   4.523  10.845 -0.4047  0.6360 -0.4479
    4SAPS   O12  415   3.335   4.677  10.929 -0.3565  0.1926  0.5531
    4SAPS   O11  416   3.406   4.577  10.716 -0.1713  0.1362 -0.1375
    4SAPS    C1  417   3.341   4.637  10.602 -0.0877 -0.5059  0.3665
    4SAPS    HA  418   3.282   4.729  10.621  0.9207 -0.1966  2.1371
    4SAPS    HB  419   3.423   4.671  10.536 -0.7796  3.2819  1.3268
    4SAPS    C2  420   3.254   4.535  10.522 -0.4266 -0.0977 -0.0173
    4SAPS    HS  421   3.155   4.544  10.571 -0.8610 -0.4833 -0.8176
    4SAPS   O21  422   3.318   4.406  10.515 -0.2134  0.5401 -0.0692
    4SAPS   C21  423   3.239   4.300  10.502  0.3788 -0.1734 -0.0503
    4SAPS   O22  424   3.114   4.309  10.502  0.1204  0.0375 -0.0587
    4SAPS   C22  425   3.323   4.171  10.491 -0.8221 -0.3432 -0.2516
    4SAPS   H2R  426   3.404   4.188  10.417 -1.6670  3.8710 -0.3386
    4SAPS   H2S  427   3.366   4.168  10.593 -3.0085 -1.5576  0.6645
    4SAPS    C3  428   3.231   4.583  10.369  0.7874 -0.0842  0.6104
    4SAPS    HX  429   3.170   4.675  10.381  2.2562  0.8987  0.6915
    4SAPS    HY  430   3.167   4.517  10.307  0.8144 -0.2724  0.7839
    4SAPS   O31  431   3.348   4.600  10.285  0.0310  0.3690 -0.0534
    4SAPS   C31  432   3.397   4.712  10.277 -0.2056  0.2198 -1.1189
    4SAPS   O32  433   3.355   4.814  10.327 -0.8055  0.1413  0.5094
    4SAPS   C32  434   3.531   4.708  10.195  0.3234 -1.0842  0.0926
    4SAPS   H2X  435   3.596   4.630  10.242  2.4796  1.7747  2.1121
    4SAPS   H2Y  436   3.591   4.801  10.204  0.9033 -1.1758 -2.4568
    4SAPS   C23  437   3.228   4.051  10.463 -0.4739 -0.6547  0.3156
    4SAPS   H3R  438   3.156   4.039  10.547 -1.8882  0.0774 -0.7795
    4SAPS   H3S  439   3.288   3.958  10.460  1.2803  0.3451  2.5243
    4SAPS   C24  440   3.165   4.051  10.319  0.1433 -0.6500  0.0232
    4SAPS   H4R  441   3.086   4.128  10.307 -0.6999 -1.7690 -1.8735
    4SAPS   H4S  442   3.132   3.945  10.309  0.6993 -0.8357  0.1252
    4SAPS   C25  443   3.278   4.084  10.221  1.0485  0.2221 -1.1167
    4SAPS   H5R  444   3.365   4.017  10.232  0.1494 -0.8002  0.0175
    4SAPS   C26  445   3.273   4.162  10.116 -0.1476 -0.7027  0.1336
    4SAPS   H6R  446   3.366   4.180  10.060  0.3131 -0.0043  1.1067
    4SAPS   C27  447   3.156   4.247  10.072  0.0691 -0.2286 -0.1757
    4SAPS   H7R  448   3.126   4.320  10.150 -0.4537  1.7361 -2.1611
    4SAPS   H7S  449   3.075   4.175  10.050 -0.4803  0.5037 -0.5916
    4SAPS   C28  450   3.195   4.325   9.943  0.3981 -0.0702 -0.2958
    4SAPS   H8R  451   3.279   4.395   9.961 -0.1056  0.5700 -0.4506
    4SAPS   C29  452   3.160   4.312   9.813  0.2463 -0.1411 -0.2788
    4SAPS   H9R  453   3.225   4.351   9.733 -0.8922 -1.1697 -1.7257
    4SAPS  C210  454   3.057   4.212   9.761 -0.0393 -0.4883 -0.9693
    4SAPS  H10R  455   2.978   4.186   9.834 -0.4693  1.5502 -0.6999
    4SAPS  H10S  456   3.106   4.117   9.730  2.7487  0.9032 -0.9649
    4SAPS  C211  457   2.990   4.273   9.642  0.1729  0.7543 -0.7168
    4SAPS  H11R  458   2.912   4.347   9.667 -0.6626  0.0399 -1.1544
    4SAPS  C212  459   3.003   4.250   9.516  0.1203  0.2634  0.5364
    4SAPS  H12R  460   2.940   4.309   9.447  1.0921 -1.8293 -2.2323
    4SAPS  C213  461   3.100   4.149   9.454  0.0252  0.1196 -0.0980
    4SAPS  H13R  462   3.153   4.102   9.539  0.8374  1.5544  0.2092
    4SAPS  H13S  463   3.179   4.207   9.402  1.3034 -1.4466  0.0505
    4SAPS  C214  464   3.033   4.046   9.367 -0.3624  0.4334  0.2628
    4SAPS  H14R  465   2.949   4.007   9.427  0.6297 -0.0752  1.3401
    4SAPS  C215  466   3.039   4.001   9.244  0.1592 -0.1811 -0.5246
    4SAPS  H15R  467   2.973   3.920   9.209  1.5043 -1.4078 -0.2568
    4SAPS  C216  468   3.136   4.051   9.143  0.2362  0.3659  0.5499
    4SAPS  H16R  469   3.159   3.977   9.063  0.4199  0.6424  0.3468
    4SAPS  H16S  470   3.236   4.077   9.184  0.0900  0.8126  0.6174
    4SAPS  C217  471   3.095   4.180   9.077 -0.7580  0.5929 -0.0059
    4SAPS  H17R  472   3.086   4.263   9.151 -1.7434  1.4099 -1.0395
    4SAPS  H17S  473   2.988   4.178   9.049 -0.6302 -2.6631 -0.4134
    4SAPS  C218  474   3.189   4.228   8.963  0.1482 -0.4116  0.2342
    4SAPS  H18R  475   3.291   4.185   8.970  1.1205  1.7737  0.0212
    4SAPS  H18S  476   3.210   4.335   8.986 -1.0159 -0.1538  0.1226
    4SAPS  C219  477   3.137   4.209   8.813 -0.0317 -0.2830  0.0457
    4SAPS  H19R  478   3.210   4.263   8.749  1.8754 -2.1335  0.5833
    4SAPS  H19S  479   3.037   4.256   8.814 -0.1378 -0.4850 -0.7705
    4SAPS  C220  480   3.118   4.063   8.783  1.0879  0.5251  0.1749
    4SAPS  H20R  481   3.209   4.003   8.801  0.4670 -1.3217 -2.5055
    4SAPS  H20S  482   3.092   4.052   8.675  1.2431  1.8357  0.0022
    4SAPS  H20T  483   3.028   4.020   8.833  1.6773  0.1684  0.9410
    4SAPS   C33  484   3.512   4.669  10.053  0.9532 -0.7483  0.4658
    4SAPS   H3X  485   3.464   4.568  10.048  0.3319 -0.5156  1.5697
    4SAPS   H3Y  486   3.612   4.665  10.005  0.7093 -0.2417 -0.0931
    4SAPS   C34  487   3.424   4.761   9.970 -0.3045 -0.2374  0.0632
    4SAPS   H4X  488   3.472   4.861   9.960  0.6457 -0.5863  1.0178
    4SAPS   H4Y  489   3.323   4.779  10.014  0.2691  0.3030  1.1740
    4SAPS   C35  490   3.407   4.696   9.828 -0.1662  0.0441 -0.1987
    4SAPS   H5X  491   3.346   4.604   9.846  1.2052 -0.5723  1.4682
    4SAPS   H5Y  492   3.513   4.668   9.813 -0.1209 -0.4252  0.8938
    4SAPS   C36  493   3.337   4.781   9.730 -0.2225 -1.0338 -0.9267
    4SAPS   H6X  494   3.377   4.884   9.721 -0.0858 -1.0924 -0.9812
    4SAPS   H6Y  495   3.230   4.789   9.760 -0.3717  0.6077 -1.8383
    4SAPS   C37  496   3.339   4.733   9.583 -0.0267  0.0007  0.0503
    4SAPS   H7X  497   3.300   4.813   9.516  1.4211  0.3626 -0.3816
    4SAPS   H7Y  498   3.272   4.646   9.571  0.9736 -0.8721  0.7876
    4SAPS   C38  499   3.480   4.696   9.534  0.4416 -0.7016 -0.1592
    4SAPS   H8X  500   3.527   4.603   9.572  1.6507  0.7937  2.0742
    4SAPS   H8Y  501   3.542   4.787   9.541  1.0032 -0.9836 -1.2500
    4SAPS   C39  502   3.493   4.680   9.375  0.1789  0.2064  0.5578
    4SAPS   H9X  503   3.419   4.745   9.324 -0.6926 -1.3339 -0.1547
    4SAPS   H9Y  504   3.444   4.581   9.361 -2.4397  1.5651 -0.1378
    4SAPS  C310  505   3.624   4.701   9.303 -0.2224 -0.2619 -0.4769
    4SAPS  H10X  506   3.701   4.624   9.324 -0.7465 -1.3357 -2.4286
    4SAPS  H10Y  507   3.673   4.786   9.356  1.7356 -1.0257 -1.0307
    4SAPS  C311  508   3.617   4.716   9.151  0.1841  0.3378 -1.0251
    4SAPS  H11X  509   3.720   4.744   9.119  0.4733  0.2264 -0.2052
    4SAPS  H11Y  510   3.547   4.795   9.116 -2.2471 -1.0022  0.7175
    4SAPS  C312  511   3.584   4.582   9.077  0.8290  0.0675  0.5340
    4SAPS  H12X  512   3.475   4.560   9.083  1.4827 -3.1407  1.5365
    4SAPS  H12Y  513   3.631   4.501   9.136  0.4909 -0.7897 -0.3733
    4SAPS  C313  514   3.638   4.586   8.931 -0.4902  0.0999 -0.4477
    4SAPS  H13X  515   3.748   4.605   8.935 -0.8367  2.4133 -0.7092
    4SAPS  H13Y  516   3.587   4.675   8.888 -0.0115  1.0974  1.0092
    4SAPS  C314  517   3.615   4.453   8.862 -0.2838 -0.2090  0.4842
    4SAPS  H14X  518   3.514   4.410   8.880 -0.0061 -1.3436 -0.6060
    4SAPS  H14Y  519   3.685   4.379   8.904 -0.7867 -1.1727 -0.3544
    4SAPS  C315  520   3.646   4.467   8.711  0.2543 -1.4399 -0.4789
    4SAPS  H15X  521   3.735   4.534   8.706 -0.9095  0.0825 -1.2529
    4SAPS  H15Y  522   3.565   4.519   8.655  0.5148  0.8779  1.2253
    4SAPS  C316  523   3.674   4.335   8.640 -0.3702 -0.6255  0.2804
    4SAPS  H16X  524   3.766   4.304   8.694  0.2292 -0.7045 -0.7650
    4SAPS  H16Y  525   3.704   4.344   8.533 -1.8981 -0.8093 -0.1719
    4SAPS  C317  526   3.560   4.229   8.642  0.3280 -0.3061 -0.0302
    4SAPS  H17X  527   3.532   4.194   8.744 -0.7211 -1.3800 -0.6663
    4SAPS  H17Y  528   3.603   4.138   8.596  0.0228 -0.9945  1.0258
    4SAPS  C318  529   3.434   4.289   8.570  0.1922  0.0296  0.1584
    4SAPS  H18X  530   3.380   4.360   8.636  0.0268 -0.3758  0.4642
    4SAPS  H18Y  531   3.364   4.206   8.545  2.6435 -1.5363 -1.7816
    4SAPS  H18Z  532   3.462   4.341   8.476  0.0205  1.2988  0.7977
    5SAPS     N  533   0.804   3.105  11.343 -0.3818 -0.1639 -0.6519
    5SAPS   HN1  534   0.896   3.122  11.297 -0.8714 -0.7565 -1.8811
    5SAPS   HN2  535   0.745   3.190  11.334 -0.2340  0.0418  0.2988
    5SAPS   HN3  536   0.817   3.076  11.442  1.2106  1.3391 -0.3911
    5SAPS   C12  537   0.757   2.989  11.261 -0.0937  0.0960 -0.2698
    5SAPS  H12A  538   0.803   2.901  11.305 -1.8279  0.1815  1.7547
    5SAPS   C13  539   0.604   2.964  11.281 -0.1867  0.3158  0.5081
    5SAPS  O13A  540   0.530   3.052  11.336 -0.4236  0.4405  0.3998
    5SAPS  O13B  541   0.553   2.870  11.215  0.0799 -0.1419 -0.2744
    5SAPS   C11  542   0.784   3.000  11.108 -0.8671  0.1981  0.4483
    5SAPS  H11A  543   0.735   3.089  11.063  0.4499  0.8629  0.2952
    5SAPS  H11B  544   0.736   2.912  11.062 -0.7533 -0.2317  1.1410
    5SAPS     P  545   0.970   2.972  10.927  0.1544  0.1213  0.2767
    5SAPS   O13  546   1.115   2.994  10.925  0.3909  0.4751  0.0835
    5SAPS   O14  547   0.917   2.838  10.888 -0.1578  0.1685  0.2079
    5SAPS   O12  548   0.924   3.000  11.081  0.0512  0.5151 -0.8566
    5SAPS   O11  549   0.892   3.088  10.854 -0.9756  0.0461 -0.0051
    5SAPS    C1  550   0.924   3.227  10.877  0.6167 -0.4758 -0.0820
    5SAPS    HA  551   0.943   3.239  10.986  0.0472 -0.2337 -0.0116
    5SAPS    HB  552   1.009   3.257  10.811 -0.3437  0.4981 -0.9048
    5SAPS    C2  553   0.812   3.319  10.827 -0.9200 -0.0682 -0.0022
    5SAPS    HS  554   0.735   3.324  10.907 -0.3182 -1.0980  0.6646
    5SAPS   O21  555   0.753   3.279  10.701  0.4185 -0.1044 -0.2001
    5SAPS   C21  556   0.633   3.338  10.678 -0.0480  0.2909 -0.0260
    5SAPS   O22  557   0.576   3.400  10.762  0.4481  1.2900 -0.5904
    5SAPS   C22  558   0.591   3.312  10.537 -0.4126 -0.5546  0.0740
    5SAPS   H2R  559   0.632   3.391  10.471  3.4668  0.1361  3.1443
    5SAPS   H2S  560   0.637   3.218  10.501  0.6652  0.4065 -1.1021
    5SAPS    C3  561   0.855   3.472  10.816 -0.8938  0.0293  0.0975
    5SAPS    HX  562   0.876   3.512  10.917  1.5327  1.1498 -0.7906
    5SAPS    HY  563   0.770   3.538  10.790  1.8516  4.7155  2.3122
    5SAPS   O31  564   0.965   3.498  10.727  0.3636 -0.1182 -0.2221
    5SAPS   C31  565   0.930   3.540  10.605  0.2155  0.5261  0.7585
    5SAPS   O32  566   0.815   3.555  10.573  0.0737  0.2604 -0.7321
    5SAPS   C32  567   1.054   3.557  10.525  0.2467  0.4542  0.2964
    5SAPS   H2X  568   1.120   3.469  10.541  0.3536  0.6823  1.1385
    5SAPS   H2Y  569   1.107   3.644  10.570  0.8407  0.6110 -0.6810
    5SAPS   C23  570   0.440   3.293  10.528  0.0578 -0.0959  0.0440
    5SAPS   H3R  571   0.388   3.363  10.596 -0.1635 -0.7144  0.5138
    5SAPS   H3S  572   0.428   3.187  10.560 -1.8772  0.2053  0.3652
    5SAPS   C24  573   0.393   3.321  10.385 -0.3032 -0.9411 -0.2425
    5SAPS   H4R  574   0.436   3.419  10.358 -0.8695 -0.9592 -1.2246
    5SAPS   H4S  575   0.283   3.336  10.383 -0.3856 -1.4840 -0.0471
    5SAPS   C25  576   0.435   3.210  10.285  0.4954 -0.1174 -0.1041
    5SAPS   H5R  577   0.417   3.108  10.323 -1.5671 -0.6782 -2.4921
    5SAPS   C26  578   0.492   3.222  10.170  0.1477  0.3297 -0.6449
    5SAPS   H6R  579   0.500   3.132  10.108 -1.7801 -0.1262 -0.2606
    5SAPS   C27  580   0.523   3.361  10.108 -0.6996 -0.0838  0.3905
    5SAPS   H7R  581   0.485   3.445  10.171 -0.2905  0.5644 -0.2222
    5SAPS   H7S  582   0.454   3.371  10.021 -0.0821  1.2338  0.0422
    5SAPS   C28  583   0.665   3.390  10.084  0.0698  0.1678  0.2567
    5SAPS   H8R  584   0.726   3.349  10.167  0.9293 -0.2008 -0.5496
    5SAPS   C29  585   0.723   3.453   9.980 -0.0980 -0.0652 -0.1827
    5SAPS   H9R  586   0.833   3.462   9.975 -0.1497  0.1262 -1.1834
    5SAPS  C210  587   0.658   3.513   9.856  0.0335  0.3028  0.4176
    5SAPS  H10R  588   0.695   3.617   9.847  1.9436 -0.1123  2.7934
    5SAPS  H10S  589   0.551   3.529   9.880 -0.2901 -1.4403  0.2118
    5SAPS  C211  590   0.667   3.426   9.734  0.3330  0.1576  0.4099
    5SAPS  H11R  591   0.659   3.318   9.753  1.6540 -0.0203 -0.0206
    5SAPS  C212  592   0.689   3.478   9.611 -0.3663  0.0551 -0.0654
    5SAPS  H12R  593   0.695   3.401   9.532 -1.2814 -2.0463  1.8762
    5SAPS  C213  594   0.701   3.622   9.560 -0.3096  0.3019  0.4855
    5SAPS  H13R  595   0.797   3.635   9.504  0.1808 -1.5974  0.8398
    5SAPS  H13S  596   0.682   3.691   9.644 -0.7906 -2.8229  3.0705
    5SAPS  C214  597   0.586   3.657   9.462  0.3582 -0.8678 -0.2377
    5SAPS  H14R  598   0.481   3.631   9.481 -0.3771  1.6553 -0.6066
    5SAPS  C215  599   0.596   3.736   9.349  0.7559  0.0046 -0.3141
    5SAPS  H15R  600   0.509   3.751   9.283  0.7287 -0.2543 -0.3378
    5SAPS  C216  601   0.717   3.809   9.293  0.1396  0.2890  0.1481
    5SAPS  H16R  602   0.802   3.795   9.363  0.1793  1.0275  0.2480
    5SAPS  H16S  603   0.692   3.915   9.270 -0.1094  0.4988  1.3360
    5SAPS  C217  604   0.765   3.753   9.152 -0.0827 -0.0818 -0.5699
    5SAPS  H17R  605   0.781   3.643   9.160  1.4698  0.2186  0.5154
    5SAPS  H17S  606   0.863   3.800   9.129  1.6049 -2.7630  0.8178
    5SAPS  C218  607   0.670   3.795   9.042  0.2553  0.5890 -0.5571
    5SAPS  H18R  608   0.566   3.765   9.065  0.5157 -1.7242 -2.1803
    5SAPS  H18S  609   0.679   3.905   9.029 -1.4826  0.6775 -1.2336
    5SAPS  C219  610   0.710   3.730   8.900  0.1051 -0.6332  0.3574
    5SAPS  H19R  611   0.704   3.620   8.910  0.4013 -0.7481 -0.6749
    5SAPS  H19S  612   0.817   3.753   8.880  0.4383 -1.4689  1.1477
    5SAPS  C220  613   0.612   3.786   8.798 -0.2911  0.2541 -0.3076
    5SAPS  H20R  614   0.567   3.883   8.829  0.1027  0.2431  0.3167
    5SAPS  H20S  615   0.538   3.704   8.789 -1.6257  1.3534  0.4970
    5SAPS  H20T  616   0.675   3.800   8.708 -1.5916 -1.1534 -1.4471
    5SAPS   C33  617   1.025   3.560  10.368 -0.1044 -0.6044  0.2569
    5SAPS   H3X  618   0.982   3.660  10.346  1.8048  0.2147  0.1650
    5SAPS   H3Y  619   0.948   3.486  10.337 -1.5602  1.3281 -0.8928
    5SAPS   C34  620   1.150   3.533  10.283  0.3959  0.1019  0.0040
    5SAPS   H4X  621   1.200   3.442  10.321 -0.2306 -0.8850 -1.5013
    5SAPS   H4Y  622   1.217   3.622  10.280  0.7252 -0.1710 -2.2243
    5SAPS   C35  623   1.092   3.513  10.135  0.5214  0.0456  1.0027
    5SAPS   H5X  624   1.052   3.614  10.111 -2.7444 -0.9675  1.9635
    5SAPS   H5Y  625   1.008   3.442  10.123  0.0173  0.7580  0.2940
    5SAPS   C36  626   1.207   3.471  10.043 -0.0555 -0.4365  0.1041
    5SAPS   H6X  627   1.267   3.392  10.092  4.2122  0.6727 -3.0173
    5SAPS   H6Y  628   1.272   3.557  10.015 -0.9303  1.1425  2.7391
    5SAPS   C37  629   1.156   3.416   9.913 -0.4269  0.6525 -0.3702
    5SAPS   H7X  630   1.082   3.335   9.932  1.6813 -0.7594  2.2303
    5SAPS   H7Y  631   1.233   3.360   9.856  0.3737 -0.1158  1.4338
    5SAPS   C38  632   1.086   3.522   9.829 -0.0703 -0.1019 -0.3669
    5SAPS   H8X  633   1.123   3.618   9.871  0.2745  0.4876 -1.9976
    5SAPS   H8Y  634   0.982   3.522   9.868  0.7003  0.2368  1.7473
    5SAPS   C39  635   1.094   3.496   9.681  0.3496  0.2704 -0.3261
    5SAPS   H9X  636   1.017   3.565   9.639 -1.0422 -0.9404  0.1904
    5SAPS   H9Y  637   1.072   3.391   9.651 -1.1757  1.3624 -3.3096
    5SAPS  C310  638   1.223   3.539   9.608 -0.1459  0.8379 -0.0261
    5SAPS  H10X  639   1.304   3.492   9.669 -2.3747 -1.7154  1.0334
    5SAPS  H10Y  640   1.235   3.649   9.616 -1.5231  0.9586  0.4839
    5SAPS  C311  641   1.239   3.505   9.460 -0.4260  0.4140 -0.6244
    5SAPS  H11X  642   1.256   3.398   9.436  0.9779  0.2432  1.0209
    5SAPS  H11Y  643   1.331   3.560   9.430  0.1839 -1.9358 -3.2996
    5SAPS  C312  644   1.124   3.565   9.378 -0.5334  0.1310  0.1135
    5SAPS  H12X  645   1.107   3.671   9.404  0.1553  0.8104 -2.1417
    5SAPS  H12Y  646   1.037   3.502   9.406  0.3064 -1.4141 -0.6557
    5SAPS  C313  647   1.142   3.559   9.225 -0.0259  0.6579  0.1849
    5SAPS  H13X  648   1.046   3.591   9.179 -1.9709  0.2347  3.7986
    5SAPS  H13Y  649   1.155   3.454   9.191  1.2714  0.2808  1.8458
    5SAPS  C314  650   1.253   3.639   9.163  0.1555 -0.3572 -0.4782
    5SAPS  H14X  651   1.331   3.564   9.137 -0.3295 -0.9663 -0.1837
    5SAPS  H14Y  652   1.296   3.724   9.220 -1.2602  0.0141  0.0569
    5SAPS  C315  653   1.205   3.696   9.031 -0.5572 -0.0297  0.6935
    5SAPS  H15X  654   1.298   3.741   8.990  0.5425 -4.0140 -1.4188
    5SAPS  H15Y  655   1.129   3.777   9.032  0.4217  0.8932  1.9136
    5SAPS  C316  656   1.161   3.591   8.930  0.7112 -0.2086 -0.0711
    5SAPS  H16X  657   1.056   3.567   8.957  0.7826  1.2363  1.5548
    5SAPS  H16Y  658   1.218   3.496   8.933 -0.2395 -0.7802  0.2151
    5SAPS  C317  659   1.161   3.638   8.786  0.2240  0.5590  0.1399
    5SAPS  H17X  660   1.265   3.614   8.752 -0.5421 -0.5807 -1.4539
    5SAPS  H17Y  661   1.144   3.747   8.781 -1.9878  0.3648  2.3222
    5SAPS  C318  662   1.063   3.565   8.696 -0.3303  0.0169 -0.0857
    5SAPS  H18X  663   0.970   3.563   8.756  0.9849 -0.1215  2.0136
    5SAPS  H18Y  664   1.095   3.467   8.656 -0.4367  0.7472 -2.0244
    5SAPS  H18Z  665   1.029   3.626   8.609 -0.8426  0.2105  0.2481
    6SAPS     N  666   0.401   2.166  11.011 -0.8316 -0.1624  0.2668
    6SAPS   HN1  667   0.473   2.115  11.066 -1.6836  0.7063  2.2600
    6SAPS   HN2  668   0.449   2.161  10.919 -2.0939 -1.0652 -0.3515
    6SAPS   HN3  669   0.393   2.268  11.030  1.1613  0.5192 -2.3550
    6SAPS   C12  670   0.269   2.101  11.005 -0.0952 -0.4663 -0.0945
    6SAPS  H12A  671   0.283   2.007  10.954 -0.0129  0.5380 -1.9640
    6SAPS   C13  672   0.201   2.065  11.140  0.5821  0.8748 -0.0798
    6SAPS  O13A  673   0.272   2.077  11.244  0.2627 -0.2983 -0.0921
    6SAPS  O13B  674   0.099   1.986  11.136 -0.2246 -0.6005  0.0037
    6SAPS   C11  675   0.164   2.172  10.921 -0.0334  0.4009  0.1554
    6SAPS  H11A  676   0.150   2.270  10.971  1.0574  0.6094  0.0595
    6SAPS  H11B  677   0.071   2.113  10.912 -0.9511  1.6642  1.1741
    6SAPS     P  678   0.122   2.303  10.698  0.1075  0.1749  0.1648
    6SAPS   O13  679  -0.009   2.329  10.759  0.4380 -0.3122  0.0918
    6SAPS   O14  680   0.207   2.418  10.670  0.1681  0.3773  0.1171
    6SAPS   O12  681   0.209   2.197  10.791  0.0434  0.4833  0.5112
    6SAPS   O11  682   0.101   2.223  10.568  0.2469  0.8842  0.2363
    6SAPS    C1  683   0.099   2.079  10.550 -0.0073  0.6101  0.3016
    6SAPS    HA  684   0.201   2.036  10.541 -0.5888 -1.2362  2.1410
    6SAPS    HB  685   0.054   2.034  10.641  1.0970 -1.3852 -0.0927
    6SAPS    C2  686   0.023   2.038  10.426 -0.4415 -0.0226  0.1346
    6SAPS    HS  687   0.016   1.927  10.426 -0.5451 -0.0212 -0.5705
    6SAPS   O21  688   0.098   2.086  10.306 -0.5018 -0.2282  0.4751
    6SAPS   C21  689   0.089   2.005  10.201  0.2247 -0.0665  0.8919
    6SAPS   O22  690   0.015   1.906  10.188 -0.2276  0.0987  0.4412
    6SAPS   C22  691   0.182   2.060  10.092  0.6579 -0.6135 -0.1371
    6SAPS   H2R  692   0.136   2.157  10.062  1.1886 -0.3389 -0.0717
    6SAPS   H2S  693   0.288   2.074  10.122  0.7133 -1.0028 -0.1483
    6SAPS    C3  694  -0.129   2.082  10.419  0.0505 -0.8280 -0.2442
    6SAPS    HX  695  -0.134   2.183  10.465 -1.2971 -1.0586  0.1399
    6SAPS    HY  696  -0.193   2.007  10.471  0.3024 -0.7488  0.1767
    6SAPS   O31  697  -0.181   2.101  10.282 -0.3287  0.3003 -0.1668
    6SAPS   C31  698  -0.189   2.225  10.231 -0.5185 -0.0831 -0.0303
    6SAPS   O32  699  -0.156   2.326  10.292  0.2396 -0.2824 -0.1296
    6SAPS   C32  700  -0.242   2.230  10.090 -0.4687  0.4886 -0.3926
    6SAPS   H2X  701  -0.278   2.334  10.086  1.4370  1.2346  1.0342
    6SAPS   H2Y  702  -0.332   2.165  10.088  0.6186 -1.0630 -1.1349
    6SAPS   C23  703   0.173   1.972   9.965  0.0769  0.8974 -0.2764
    6SAPS   H3R  704   0.065   1.975   9.940  0.0438 -0.9681 -0.4593
    6SAPS   H3S  705   0.190   1.868  10.002 -0.9141  0.2758 -1.5147
    6SAPS   C24  706   0.269   2.010   9.849 -0.3273 -0.3357  0.0768
    6SAPS   H4R  707   0.373   2.031   9.882 -0.9832  1.6151  0.9697
    6SAPS   H4S  708   0.228   2.107   9.814 -0.1727 -0.2937  0.0150
    6SAPS   C25  709   0.264   1.897   9.743  0.1698  0.2834 -0.1128
    6SAPS   H5R  710   0.247   1.796   9.783 -0.8356 -0.1399 -1.5674
    6SAPS   C26  711   0.299   1.913   9.617 -0.0959 -0.2308 -0.0135
    6SAPS   H6R  712   0.326   1.823   9.560 -1.0610 -0.7208  0.2887
    6SAPS   C27  713   0.338   2.031   9.539 -0.3603 -0.8279 -0.0005
    6SAPS   H7R  714   0.316   2.123   9.597 -0.2254 -0.8403  0.0693
    6SAPS   H7S  715   0.270   2.044   9.451 -0.6301  0.5341  0.3965
    6SAPS   C28  716   0.480   2.026   9.490  0.6736  0.0599 -0.2835
    6SAPS   H8R  717   0.555   2.072   9.556 -0.4570  0.4408  0.7486
    6SAPS   C29  718   0.524   1.956   9.382 -0.1529  0.9068 -0.4389
    6SAPS   H9R  719   0.632   1.939   9.370 -0.3244 -0.5166 -0.1089
    6SAPS  C210  720   0.440   1.886   9.285 -0.2613  0.5085  0.3324
    6SAPS  H10R  721   0.379   1.968   9.241 -0.4535 -0.1719 -0.6827
    6SAPS  H10S  722   0.384   1.808   9.342  1.3974 -2.1791 -1.5692
    6SAPS  C211  723   0.519   1.823   9.175 -0.5494 -0.7413  0.2077
    6SAPS  H11R  724   0.627   1.805   9.191 -0.6435  0.8324  2.9559
    6SAPS  C212  725   0.468   1.794   9.050 -0.0223 -0.4301 -0.3356
    6SAPS  H12R  726   0.531   1.747   8.973  0.3768  0.3165 -0.4603
    6SAPS  C213  727   0.320   1.823   9.011 -0.6673  0.4296 -0.0170
    6SAPS  H13R  728   0.288   1.917   9.063  2.7963  0.1238  2.8261
    6SAPS  H13S  729   0.264   1.738   9.056 -0.4190  0.9500  1.3137
    6SAPS  C214  730   0.285   1.852   8.867 -0.6451  0.4578 -0.0699
    6SAPS  H14R  731   0.319   1.952   8.837  1.3711 -0.1847 -0.0214
    6SAPS  C215  732   0.221   1.774   8.782  0.0485 -0.6696 -0.3187
    6SAPS  H15R  733   0.198   1.820   8.684  0.5956 -0.7779 -0.5029
    6SAPS  C216  734   0.178   1.628   8.799  0.2165 -0.5360 -0.6869
    6SAPS  H16R  735   0.072   1.610   8.770  0.2088  0.6701 -1.4416
    6SAPS  H16S  736   0.178   1.600   8.907 -1.5279  0.7195 -0.3361
    6SAPS  C217  737   0.268   1.545   8.713  0.2615  0.9326  0.7248
    6SAPS  H17R  738   0.247   1.558   8.605  0.3539  0.1813  0.6094
    6SAPS  H17S  739   0.243   1.438   8.729  0.4286  0.5356 -1.5109
    6SAPS  C218  740   0.414   1.558   8.738 -0.8248  0.9477  0.5076
    6SAPS  H18R  741   0.437   1.534   8.844 -0.2675  1.9107  0.6090
    6SAPS  H18S  742   0.455   1.657   8.707  0.4929 -0.4224 -2.2356
    6SAPS  C219  743   0.493   1.461   8.656 -1.1280  0.4821 -0.1692
    6SAPS  H19R  744   0.486   1.482   8.547 -0.1736 -0.0473 -0.3424
    6SAPS  H19S  745   0.454   1.361   8.683  1.0981  0.3815  2.9840
    6SAPS  C220  746   0.641   1.473   8.701 -0.1699  0.0037 -0.3506
    6SAPS  H20R  747   0.641   1.435   8.805 -2.6446  1.8248  0.3775
    6SAPS  H20S  748   0.659   1.582   8.716  0.4836 -0.3244  1.3254
    6SAPS  H20T  749   0.712   1.416   8.638  0.4073  0.8965 -0.5211
    6SAPS   C33  750  -0.141   2.201   9.982 -0.9324  0.3178  0.6489
    6SAPS   H3X  751  -0.109   2.094   9.985 -0.3675  0.4230 -1.0079
    6SAPS   H3Y  752  -0.050   2.259  10.009  0.3463 -1.8078  1.1106
    6SAPS   C34  753  -0.187   2.241   9.839 -0.2446 -0.8105 -0.3446
    6SAPS   H4X  754  -0.217   2.348   9.843  1.4108 -0.3070 -1.1742
    6SAPS   H4Y  755  -0.279   2.183   9.816 -1.6082 -0.1625  3.0896
    6SAPS   C35  756  -0.072   2.228   9.737  0.3404 -0.2448 -0.5693
    6SAPS   H5X  757  -0.041   2.122   9.727  0.7562 -0.4271  2.0930
    6SAPS   H5Y  758   0.006   2.299   9.772  1.3996 -1.7158  0.1077
    6SAPS   C36  759  -0.114   2.271   9.597 -0.0690  0.3249 -0.4793
    6SAPS   H6X  760  -0.153   2.375   9.596  0.8823  0.7333  1.8487
    6SAPS   H6Y  761  -0.194   2.208   9.554 -0.6145  2.1033 -2.1405
    6SAPS   C37  762   0.009   2.259   9.507  0.2735  0.1331  0.3250
    6SAPS   H7X  763   0.042   2.153   9.500  0.1992 -0.0361  2.3753
    6SAPS   H7Y  764   0.096   2.318   9.544  1.0770 -1.1546  0.5228
    6SAPS   C38  765  -0.026   2.302   9.364 -0.5402  0.0163  0.4124
    6SAPS   H8X  766  -0.058   2.409   9.365  0.6524  0.4053 -0.9860
    6SAPS   H8Y  767  -0.110   2.235   9.336  0.8143 -1.3751 -0.3262
    6SAPS   C39  768   0.083   2.276   9.261 -1.0349 -0.0273 -0.5169
    6SAPS   H9X  769   0.117   2.174   9.290 -1.9505  0.3104  1.8407
    6SAPS   H9Y  770   0.162   2.354   9.267 -0.7473 -0.1706 -2.0984
    6SAPS  C310  771   0.038   2.305   9.109 -0.0966 -0.8590 -1.1126
    6SAPS  H10X  772  -0.006   2.405   9.088 -0.1606 -0.1938  1.9888
    6SAPS  H10Y  773  -0.039   2.228   9.088 -0.6195 -0.5616 -0.3196
    6SAPS  C311  774   0.149   2.256   9.018  0.5102 -0.2970 -0.5555
    6SAPS  H11X  775   0.151   2.146   9.032 -0.8773 -0.1668  0.7012
    6SAPS  H11Y  776   0.235   2.308   9.065  0.8359 -2.6614  1.5068
    6SAPS  C312  777   0.115   2.279   8.868  0.3926  0.2575 -0.2459
    6SAPS  H12X  778   0.022   2.339   8.859  0.9695  1.2010 -0.0561
    6SAPS  H12Y  779   0.097   2.181   8.819 -2.5858  0.0710  1.1629
    6SAPS  C313  780   0.232   2.341   8.785 -0.1836 -0.4485 -0.3909
    6SAPS  H13X  781   0.311   2.264   8.768  0.9913  0.8270 -0.7702
    6SAPS  H13Y  782   0.290   2.406   8.854 -1.4783 -1.0650  1.3101
    6SAPS  C314  783   0.183   2.408   8.656 -0.3737 -0.3569  0.2623
    6SAPS  H14X  784   0.273   2.449   8.605 -1.1302 -0.7642 -1.4224
    6SAPS  H14Y  785   0.113   2.486   8.692 -1.7621 -1.0576 -0.8767
    6SAPS  C315  786   0.104   2.316   8.564 -0.2049  0.4600  0.2160
    6SAPS  H15X  787   0.027   2.260   8.621 -1.4865  2.4200  0.4532
    6SAPS  H15Y  788   0.173   2.252   8.504  0.2391 -1.3467  2.5850
    6SAPS  C316  789   0.032   2.415   8.456 -0.9873  0.2020 -0.5221
    6SAPS  H16X  790   0.113   2.450   8.389 -0.5085 -0.6967 -0.4244
    6SAPS  H16Y  791  -0.028   2.496   8.504  0.8111  3.0059 -2.7990
    6SAPS  C317  792  -0.075   2.342   8.375 -0.1491 -0.0691 -0.4583
    6SAPS  H17X  793  -0.023   2.259   8.324 -0.8207  0.3223 -1.8152
    6SAPS  H17Y  794  -0.117   2.419   8.307 -1.9738  0.9636  1.7714
    6SAPS  C318  795  -0.189   2.278   8.452  0.3114  0.4748 -0.0679
    6SAPS  H18X  796  -0.206   2.350   8.535  2.3937  0.4880  0.3889
    6SAPS  H18Y  797  -0.170   2.173   8.480 -0.8084  0.3013  0.0650
    6SAPS  H18Z  798  -0.283   2.289   8.394  0.7476  1.4801 -0.6029
    7SAPS     N  799   2.042   3.912  10.732  0.5320 -0.4139 -0.0259
    7SAPS   HN1  800   2.070   3.950  10.825 -0.8837 -0.7909  0.5727
    7SAPS   HN2  801   2.110   3.846  10.689 -2.2077 -3.7230  0.5785
    7SAPS   HN3  802   2.017   3.991  10.670 -1.4601 -0.0022  1.2708
    7SAPS   C12  803   1.912   3.841  10.756  0.8054  0.3711 -0.1684
    7SAPS  H12A  804   1.935   3.745  10.800  2.5479  0.6085 -0.5281
    7SAPS   C13  805   1.817   3.919  10.845 -0.0656  0.8561  0.1325
    7SAPS  O13A  806   1.853   4.033  10.887  0.2755 -0.3843 -0.4583
    7SAPS  O13B  807   1.721   3.858  10.901  0.2839 -0.0588 -0.3267
    7SAPS   C11  808   1.847   3.807  10.627  0.4725  0.4233  0.1130
    7SAPS  H11A  809   1.831   3.899  10.567 -1.1799 -1.2193 -2.0308
    7SAPS  H11B  810   1.748   3.757  10.637  0.1905  0.7259 -1.1546
    7SAPS     P  811   1.925   3.575  10.529 -0.0296 -0.2427  0.2191
    7SAPS   O13  812   1.907   3.509  10.659 -0.3828  0.0250  0.1653
    7SAPS   O14  813   1.819   3.547  10.425 -0.1611 -0.1831 -0.6183
    7SAPS   O12  814   1.937   3.730  10.545 -0.2854  0.0610 -0.9462
    7SAPS   O11  815   2.059   3.525  10.468 -0.8806  0.2272  0.3868
    7SAPS    C1  816   2.174   3.613  10.467 -0.3154  0.4046  0.2739
    7SAPS    HA  817   2.172   3.703  10.531 -1.0154  1.7025 -1.5399
    7SAPS    HB  818   2.260   3.556  10.509 -1.0816  0.4222  1.9257
    7SAPS    C2  819   2.208   3.646  10.324  0.4349 -0.2404  0.2071
    7SAPS    HS  820   2.290   3.720  10.314 -1.2987  1.9944  2.0494
    7SAPS   O21  821   2.094   3.690  10.258  0.2557  0.1656 -0.5580
    7SAPS   C21  822   2.042   3.808  10.293  0.0400  0.4891 -0.2336
    7SAPS   O22  823   2.090   3.883  10.380 -0.2541  0.1229  0.4558
    7SAPS   C22  824   1.920   3.832  10.205  1.4280 -0.1234  0.0280
    7SAPS   H2R  825   1.937   3.793  10.103 -3.6383  1.2849 -1.5167
    7SAPS   H2S  826   1.834   3.775  10.245  0.4712  1.7477  0.7177
    7SAPS    C3  827   2.254   3.519  10.250  0.4928  0.2940  0.3540
    7SAPS    HX  828   2.159   3.466  10.227  0.8471 -0.9278  1.6382
    7SAPS    HY  829   2.317   3.455  10.315  1.0349  0.8645  0.3879
    7SAPS   O31  830   2.322   3.555  10.128 -0.4521  0.4096  0.0792
    7SAPS   C31  831   2.373   3.450  10.061  0.1421  0.3435  0.5073
    7SAPS   O32  832   2.377   3.337  10.101  0.2986  0.3477 -0.6458
    7SAPS   C32  833   2.408   3.501   9.926  0.4078  0.5967 -0.0210
    7SAPS   H2X  834   2.486   3.436   9.881  0.1858  0.8412 -0.7726
    7SAPS   H2Y  835   2.456   3.601   9.931  2.0551 -0.1343 -0.9526
    7SAPS   C23  836   1.896   3.981  10.186 -0.5080  0.1936  0.6075
    7SAPS   H3R  837   1.869   4.028  10.284 -4.2385 -0.8034  0.1434
    7SAPS   H3S  838   1.808   4.002  10.122  0.2922  2.4387  0.1818
    7SAPS   C24  839   2.025   4.064  10.147  0.7584 -0.5046  0.0008
    7SAPS   H4R  840   2.114   4.054  10.212  1.4166 -0.8782 -0.9416
    7SAPS   H4S  841   1.995   4.171  10.152  1.0659 -0.2686 -2.4113
    7SAPS   C25  842   2.056   4.020  10.007  0.4363 -0.3510  0.7692
    7SAPS   H5R  843   1.969   4.029   9.941  0.4369  0.0353  0.8222
    7SAPS   C26  844   2.175   3.971   9.961 -0.0033  0.1621 -0.0613
    7SAPS   H6R  845   2.184   3.933   9.858  2.2788 -0.0813  0.2077
    7SAPS   C27  846   2.304   3.960  10.043 -0.0553  0.2609  0.2972
    7SAPS   H7R  847   2.279   3.913  10.141 -0.0581  0.6884  0.5033
    7SAPS   H7S  848   2.343   4.059  10.075 -1.4402  0.7656  0.4383
    7SAPS   C28  849   2.416   3.888   9.976  0.1491 -0.2779 -1.2459
    7SAPS   H8R  850   2.451   3.805  10.040 -0.1381 -0.0735 -0.8178
    7SAPS   C29  851   2.494   3.931   9.879 -0.2639 -0.4291 -0.1960
    7SAPS   H9R  852   2.572   3.857   9.854  0.2795 -0.3120  1.1560
    7SAPS  C210  853   2.484   4.062   9.800  0.4136 -0.3522  0.4790
    7SAPS  H10R  854   2.439   4.151   9.850  0.0534  0.1497 -0.7332
    7SAPS  H10S  855   2.406   4.037   9.725 -0.1006 -0.5039  1.0617
    7SAPS  C211  856   2.602   4.102   9.722 -0.2723  0.5242  0.2806
    7SAPS  H11R  857   2.652   4.191   9.763 -1.6745  1.0919  0.8062
    7SAPS  C212  858   2.656   4.056   9.604  0.1093  0.1284 -0.1244
    7SAPS  H12R  859   2.748   4.100   9.564  0.3698 -1.3109 -1.1429
    7SAPS  C213  860   2.604   3.929   9.528  0.0272  0.3181  0.1091
    7SAPS  H13R  861   2.565   3.856   9.602  0.0121  0.2115 -0.0035
    7SAPS  H13S  862   2.687   3.875   9.478 -1.0330 -1.5640  0.3396
    7SAPS  C214  863   2.492   3.970   9.427 -0.3711  0.0411  0.3436
    7SAPS  H14R  864   2.399   3.982   9.485  0.0852 -1.5898  1.4622
    7SAPS  C215  865   2.480   3.974   9.292 -0.1420  0.2524  0.3262
    7SAPS  H15R  866   2.394   4.015   9.237  0.6825 -0.5751 -1.6144
    7SAPS  C216  867   2.600   3.948   9.215  0.1399 -0.1405  0.2104
    7SAPS  H16R  868   2.597   3.842   9.182  1.7001 -0.4245  0.9497
    7SAPS  H16S  869   2.699   3.960   9.264  0.0554 -1.3115  0.6779
    7SAPS  C217  870   2.607   4.031   9.085 -0.3678  0.1552 -0.8289
    7SAPS  H17R  871   2.647   4.129   9.116  0.5546 -0.7850  1.0126
    7SAPS  H17S  872   2.504   4.037   9.044 -0.2135 -0.8666 -1.3862
    7SAPS  C218  873   2.707   3.975   8.985  0.0326  0.3786  0.0052
    7SAPS  H18R  874   2.672   3.884   8.933  0.5651 -1.0846  2.1691
    7SAPS  H18S  875   2.804   3.956   9.036 -0.5441 -0.0816  0.9497
    7SAPS  C219  876   2.741   4.089   8.886 -0.2795 -0.9191  0.5011
    7SAPS  H19R  877   2.815   4.031   8.826  0.8162 -1.1589  2.0452
    7SAPS  H19S  878   2.786   4.178   8.934 -0.3581  1.4474 -3.5977
    7SAPS  C220  879   2.629   4.127   8.793 -0.2904  0.3847  0.0238
    7SAPS  H20R  880   2.573   4.036   8.767 -1.4742  1.1617 -0.1686
    7SAPS  H20S  881   2.669   4.180   8.704  1.9917 -1.0663  0.1423
    7SAPS  H20T  882   2.567   4.198   8.852  0.1294  1.1789 -0.4710
    7SAPS   C33  883   2.288   3.518   9.836  0.0554 -0.1692 -0.1185
    7SAPS   H3X  884   2.199   3.546   9.898  0.6467 -2.8232  2.0173
    7SAPS   H3Y  885   2.248   3.422   9.797 -0.2359 -0.8002  1.6699
    7SAPS   C34  886   2.298   3.610   9.703  0.3225 -0.7059  0.1282
    7SAPS   H4X  887   2.314   3.718   9.722 -1.0785  0.0078 -2.3985
    7SAPS   H4Y  888   2.196   3.599   9.659 -0.1881  0.5237  0.9657
    7SAPS   C35  889   2.399   3.566   9.598  0.7748 -0.3171 -0.0565
    7SAPS   H5X  890   2.427   3.460   9.612 -2.0507 -1.3332 -1.8613
    7SAPS   H5Y  891   2.499   3.615   9.599  1.6353 -1.9425 -1.7976
    7SAPS   C36  892   2.357   3.607   9.451  0.8105  0.3608  0.3925
    7SAPS   H6X  893   2.331   3.715   9.448  0.6975  0.3094 -0.4976
    7SAPS   H6Y  894   2.260   3.556   9.433  0.6435  1.4174 -1.8145
    7SAPS   C37  895   2.460   3.587   9.348  0.7557  0.2549 -0.4541
    7SAPS   H7X  896   2.539   3.663   9.366  1.6650 -0.6368 -0.5889
    7SAPS   H7Y  897   2.418   3.619   9.250  2.6174  3.7918 -0.1719
    7SAPS   C38  898   2.516   3.450   9.336  0.0643  0.4635  0.1746
    7SAPS   H8X  899   2.565   3.432   9.434 -2.1995 -0.9004  1.1067
    7SAPS   H8Y  900   2.592   3.441   9.256 -0.6523  0.1957 -0.4788
    7SAPS   C39  901   2.403   3.342   9.324 -0.6022 -0.1870  0.3440
    7SAPS   H9X  902   2.331   3.335   9.409 -0.5340  2.9681  0.7174
    7SAPS   H9Y  903   2.471   3.254   9.324  1.6825  1.5130  0.5668
    7SAPS  C310  904   2.332   3.357   9.193  0.6264 -0.0322  0.5540
    7SAPS  H10X  905   2.398   3.390   9.110 -2.1738  1.2893 -1.2263
    7SAPS  H10Y  906   2.259   3.440   9.203 -0.9230 -0.9862 -2.2577
    7SAPS  C311  907   2.244   3.236   9.149 -0.6886 -0.1288 -0.3902
    7SAPS  H11X  908   2.193   3.198   9.240  0.0599 -0.3887 -0.0723
    7SAPS  H11Y  909   2.304   3.153   9.106  0.7928 -0.1483  1.6043
    7SAPS  C312  910   2.139   3.269   9.036 -0.1204  0.2397 -0.3822
    7SAPS  H12X  911   2.085   3.361   9.069 -1.6146 -0.4340 -0.9097
    7SAPS  H12Y  912   2.079   3.176   9.038 -0.2601  0.2968 -1.9457
    7SAPS  C313  913   2.191   3.286   8.889 -0.3343 -0.1733  0.4951
    7SAPS  H13X  914   2.223   3.187   8.851  0.7334 -0.4073  1.9588
    7SAPS  H13Y  915   2.276   3.357   8.877  0.1947 -1.2538 -2.4155
    7SAPS  C314  916   2.085   3.334   8.795 -0.3117  0.1465  0.1358
    7SAPS  H14X  917   2.066   3.441   8.819 -0.3364  0.3243 -0.6577
    7SAPS  H14Y  918   1.985   3.287   8.806 -1.0134  1.7884  0.9126
    7SAPS  C315  919   2.131   3.318   8.644  0.4885 -0.0986  0.0677
    7SAPS  H15X  920   2.170   3.217   8.621 -2.3895 -0.7525 -2.1919
    7SAPS  H15Y  921   2.221   3.383   8.639  1.1337 -0.9073  0.8531
    7SAPS  C316  922   2.021   3.374   8.537 -0.1869  0.3764 -0.0582
    7SAPS  H16X  923   2.064   3.365   8.435 -0.7149 -0.9454 -0.1813
    7SAPS  H16Y  924   2.016   3.485   8.542 -2.4589  0.2856  0.2416
    7SAPS  C317  925   1.881   3.307   8.543  0.4231  0.4815 -0.1130
    7SAPS  H17X  926   1.840   3.348   8.638  4.1465 -0.6465  2.0446
    7SAPS  H17Y  927   1.883   3.196   8.537  1.4710  0.5353 -0.8922
    7SAPS  C318  928   1.771   3.345   8.440 -0.4449 -0.2616  0.5097
    7SAPS  H18X  929   1.807   3.320   8.338  1.2605  1.5225  0.6227
    7SAPS  H18Y  930   1.763   3.456   8.434 -1.0839 -0.2934  0.7547
    7SAPS  H18Z  931   1.682   3.288   8.473  1.3147 -2.1175  2.1725
    8SAPS     N  932   6.158   4.971  10.883  0.2848  0.5711 -0.1466
    8SAPS   HN1  933   6.117   4.909  10.811 -2.8825  2.6223 -0.2274
    8SAPS   HN2  934   6.101   5.057  10.899 -0.2206 -0.1611  2.2291
    8SAPS   HN3  935   6.254   5.006  10.867  0.6974  0.9660  2.9368
    8SAPS   C12  936   6.168   4.905  11.019  0.1351 -0.5528 -0.0572
    8SAPS  H12A  937   6.185   4.986  11.089  0.8341  0.0140 -0.8870
    8SAPS   C13  938   6.032   4.847  11.072 -1.1807 -0.0187  0.1471
    8SAPS  O13A  939   5.930   4.861  11.000  0.1270 -0.1209  0.0858
    8SAPS  O13B  940   6.031   4.789  11.183 -0.0260  0.2054 -0.4654
    8SAPS   C11  941   6.281   4.803  11.020  0.8961  0.3325  1.1294
    8SAPS  H11A  942   6.273   4.736  10.932  0.4685 -0.7638  2.0007
    8SAPS  H11B  943   6.266   4.749  11.116  0.7058 -1.5000  0.0870
    8SAPS     P  944   6.541   4.783  11.020 -0.1225 -0.1020  0.0028
    8SAPS   O13  945   6.651   4.863  11.076  0.3225  0.2256  0.2148
    8SAPS   O14  946   6.515   4.651  11.075  0.5332 -0.4041 -0.5249
    8SAPS   O12  947   6.407   4.870  11.031  0.5872  0.4668  0.2999
    8SAPS   O11  948   6.562   4.766  10.865 -0.0766  0.6044  0.2652
    8SAPS    C1  949   6.493   4.845  10.768  0.3467 -0.3330  0.2204
    8SAPS    HA  950   6.429   4.777  10.707 -0.1821  0.6328 -0.3111
    8SAPS    HB  951   6.436   4.930  10.811  0.8670 -0.7332  1.7119
    8SAPS    C2  952   6.598   4.919  10.667 -0.0541  0.1210 -0.3138
    8SAPS    HS  953   6.547   4.951  10.573  2.8140  2.6324 -1.1005
    8SAPS   O21  954   6.700   4.825  10.648  0.3711  0.1158 -0.1090
    8SAPS   C21  955   6.687   4.736  10.557  0.0087  0.2021  0.4662
    8SAPS   O22  956   6.601   4.735  10.469 -0.2597  0.1916 -0.3689
    8SAPS   C22  957   6.796   4.637  10.584 -0.0178 -0.4028  0.4501
    8SAPS   H2R  958   6.862   4.675  10.664 -1.7352  1.1632  1.1629
    8SAPS   H2S  959   6.744   4.551  10.632 -0.5681  0.4771  1.4409
    8SAPS    C3  960   6.650   5.049  10.728 -0.4464 -0.9423 -0.4525
    8SAPS    HX  961   6.673   5.045  10.836  0.9259 -0.6473 -0.7303
    8SAPS    HY  962   6.560   5.114  10.727 -0.4412 -0.9326 -0.1949
    8SAPS   O31  963   6.757   5.116  10.654 -0.1100  0.7025  0.4387
    8SAPS   C31  964   6.873   5.112  10.710 -0.5295 -0.6281  0.7045
    8SAPS   O32  965   6.890   5.102  10.828 -0.5477 -0.2491 -0.5011
    8SAPS   C32  966   6.992   5.103  10.609  0.2724 -0.1644  0.3397
    8SAPS   H2X  967   6.998   5.004  10.558  1.3504  0.6437 -1.1454
    8SAPS   H2Y  968   7.081   5.119  10.673  1.1713 -0.3550 -0.8413
    8SAPS   C23  969   6.875   4.596  10.455  0.1768 -0.9164  0.2782
    8SAPS   H3R  970   6.806   4.553  10.380 -0.9702  1.3755 -0.0288
    8SAPS   H3S  971   6.949   4.516  10.475 -0.3386 -1.0472  1.7280
    8SAPS   C24  972   6.938   4.719  10.375 -0.6270 -0.4694 -0.4982
    8SAPS   H4R  973   6.981   4.785  10.453 -1.3327  0.5878 -1.0033
    8SAPS   H4S  974   6.856   4.773  10.323 -0.2153  0.9854  0.3569
    8SAPS   C25  975   7.050   4.671  10.281 -0.2216 -0.1394  0.0547
    8SAPS   H5R  976   7.143   4.633  10.326  0.6487  0.8431 -0.8722
    8SAPS   C26  977   7.050   4.677  10.150 -0.2708  0.0596  0.7347
    8SAPS   H6R  978   7.139   4.645  10.094  0.0369 -1.8893  2.2840
    8SAPS   C27  979   6.937   4.710  10.054 -0.7282 -0.5759  0.6197
    8SAPS   H7R  980   6.839   4.729  10.104 -1.2270 -0.0113 -0.5326
    8SAPS   H7S  981   6.928   4.627   9.980  1.6778 -0.4667  0.1671
    8SAPS   C28  982   6.969   4.842   9.979 -0.1822  0.0121  0.0290
    8SAPS   H8R  983   6.980   4.921  10.055 -0.9710  0.0235  0.1421
    8SAPS   C29  984   6.976   4.876   9.847  0.3195 -0.3783 -0.2515
    8SAPS   H9R  985   6.994   4.978   9.813  0.4973 -1.2361 -2.7997
    8SAPS  C210  986   6.951   4.779   9.729  0.2578  0.1174 -0.2047
    8SAPS  H10R  987   6.894   4.690   9.764 -0.7875 -0.0080 -2.1380
    8SAPS  H10S  988   7.043   4.735   9.685  0.4103 -0.0005  0.2305
    8SAPS  C211  989   6.867   4.842   9.623 -0.2414  0.7118  0.7066
    8SAPS  H11R  990   6.766   4.865   9.659 -0.9045 -0.7511 -0.1657
    8SAPS  C212  991   6.906   4.873   9.497  0.3415 -0.5322 -0.3801
    8SAPS  H12R  992   6.839   4.927   9.427  1.1749 -0.2283 -0.9554
    8SAPS  C213  993   7.038   4.857   9.428  0.5490  0.4896 -0.6788
    8SAPS  H13R  994   7.019   4.779   9.351  4.4314  0.2001 -1.4234
    8SAPS  H13S  995   7.109   4.819   9.505  0.3120  0.0202 -0.6921
    8SAPS  C214  996   7.090   4.991   9.376 -0.8367  0.0530  0.5113
    8SAPS  H14R  997   7.144   5.044   9.456 -0.3350  0.7291 -0.2656
    8SAPS  C215  998   7.079   5.045   9.247 -0.5842 -0.0202  1.4623
    8SAPS  H15R  999   7.132   5.135   9.213  0.4898 -1.6082 -1.2546
    8SAPS  C216 1000   7.009   4.979   9.130  0.1799  0.5995  0.8407
    8SAPS  H16R 1001   7.008   4.869   9.144 -0.9356  0.8217  2.7566
    8SAPS  H16S 1002   7.060   5.007   9.036 -1.8854  1.2475 -0.1172
    8SAPS  C217 1003   6.867   5.027   9.104  0.0180 -0.0518  0.0561
    8SAPS  H17R 1004   6.865   5.138   9.104  1.8318  0.0398 -3.2400
    8SAPS  H17S 1005   6.795   4.994   9.182 -2.0060  1.1421 -1.2821
    8SAPS  C218 1006   6.809   4.979   8.972 -0.5215 -0.1663 -0.9235
    8SAPS  H18R 1007   6.799   4.868   8.975  0.3573 -0.2126  0.5730
    8SAPS  H18S 1008   6.876   5.003   8.887  1.4307 -1.3324  0.2256
    8SAPS  C219 1009   6.662   5.035   8.939  0.3901 -0.6941 -0.0881
    8SAPS  H19R 1010   6.596   4.988   9.015  1.8297 -1.7731  0.5116
    8SAPS  H19S 1011   6.631   4.996   8.839  2.9886  0.7492 -1.5079
    8SAPS  C220 1012   6.647   5.187   8.951  0.4149 -0.1967 -0.3465
    8SAPS  H20R 1013   6.669   5.221   9.054  1.9663 -2.0235 -0.0251
    8SAPS  H20S 1014   6.544   5.219   8.927  1.0911  0.0532 -3.0386
    8SAPS  H20T 1015   6.715   5.242   8.883  0.0775  0.4296 -0.1767
    8SAPS   C33 1016   6.972   5.203  10.490 -0.1833 -0.0431  0.6446
    8SAPS   H3X 1017   6.878   5.195  10.431  0.0105 -1.5048  0.5101
    8SAPS   H3Y 1018   7.069   5.188  10.438  0.6589 -0.0786  2.2019
    8SAPS   C34 1019   6.972   5.350  10.539  0.2442 -0.0711  0.6281
    8SAPS   H4X 1020   7.047   5.347  10.621 -0.7297  1.4741  1.6008
    8SAPS   H4Y 1021   6.879   5.395  10.579  0.0648  0.9444 -0.8928
    8SAPS   C35 1022   7.035   5.444  10.427 -0.0789 -0.3809 -0.5461
    8SAPS   H5X 1023   7.080   5.379  10.349 -1.5231 -2.2766  0.1337
    8SAPS   H5Y 1024   7.108   5.507  10.481 -2.3463  1.0586  0.9481
    8SAPS   C36 1025   6.931   5.538  10.358  0.0889 -0.4189 -0.3017
    8SAPS   H6X 1026   6.906   5.630  10.415 -1.0396 -2.2037  2.1365
    8SAPS   H6Y 1027   6.833   5.493  10.334  0.0270 -0.0136 -0.8150
    8SAPS   C37 1028   6.990   5.590  10.229 -0.2377  0.0280  0.5612
    8SAPS   H7X 1029   7.009   5.512  10.152  0.8705  0.1501  0.6996
    8SAPS   H7Y 1030   7.080   5.650  10.256 -0.6036 -0.7541  3.6920
    8SAPS   C38 1031   6.889   5.692  10.157  0.0522 -0.1392  0.0950
    8SAPS   H8X 1032   6.917   5.795  10.187 -0.7104  0.0216  0.2597
    8SAPS   H8Y 1033   6.785   5.666  10.187  0.2411  1.4156  2.1465
    8SAPS   C39 1034   6.908   5.694  10.005  0.4208  0.1135 -0.0618
    8SAPS   H9X 1035   6.817   5.727   9.951  0.1260  0.1828  0.4756
    8SAPS   H9Y 1036   6.929   5.594   9.962 -0.5694 -0.6248  1.1470
    8SAPS  C310 1037   7.023   5.784   9.948 -0.2125  0.1620  0.2383
    8SAPS  H10X 1038   7.124   5.760   9.986  0.2266 -0.0922 -1.0777
    8SAPS  H10Y 1039   6.997   5.889   9.972 -0.6270 -0.3782  2.2909
    8SAPS  C311 1040   7.026   5.782   9.793 -0.0237  0.5431  0.4327
    8SAPS  H11X 1041   6.920   5.796   9.763  0.5180  1.4284 -1.0822
    8SAPS  H11Y 1042   7.072   5.685   9.765 -0.1809  0.6133 -0.0578
    8SAPS  C312 1043   7.111   5.897   9.745  0.2402  0.3303 -0.2861
    8SAPS  H12X 1044   7.040   5.981   9.762 -1.2160 -1.3414  2.1970
    8SAPS  H12Y 1045   7.126   5.872   9.638  1.3153  1.7446 -0.4925
    8SAPS  C313 1046   7.246   5.918   9.813  0.3884 -0.4883  0.1037
    8SAPS  H13X 1047   7.234   5.941   9.921 -0.9621 -1.5947  0.2056
    8SAPS  H13Y 1048   7.282   6.015   9.771  0.5367 -1.0871 -1.1824
    8SAPS  C314 1049   7.346   5.798   9.805 -0.0978 -1.2998 -0.1871
    8SAPS  H14X 1050   7.313   5.711   9.866 -0.3477 -0.4624  0.8773
    8SAPS  H14Y 1051   7.443   5.830   9.847  0.8754 -3.1374 -0.9685
    8SAPS  C315 1052   7.365   5.736   9.667 -0.2083  0.8247 -0.3086
    8SAPS  H15X 1053   7.273   5.691   9.623  0.0625  0.2521 -0.2928
    8SAPS  H15Y 1054   7.423   5.642   9.677 -1.1517  0.3078  0.4714
    8SAPS  C316 1055   7.417   5.837   9.570 -0.6166 -0.4304 -0.1855
    8SAPS  H16X 1056   7.514   5.882   9.601 -0.7102  2.2892 -3.4749
    8SAPS  H16Y 1057   7.348   5.924   9.577  0.8436  0.5899  1.7402
    8SAPS  C317 1058   7.435   5.790   9.419  0.1489 -0.4509 -0.4759
    8SAPS  H17X 1059   7.336   5.798   9.369  0.4329  0.0232 -0.9735
    8SAPS  H17Y 1060   7.467   5.684   9.424  0.3102 -0.4484 -1.4097
    8SAPS  C318 1061   7.539   5.858   9.335 -0.1033  1.0901  0.1019
    8SAPS  H18X 1062   7.527   5.968   9.345  0.3624  1.2146 -0.6507
    8SAPS  H18Y 1063   7.508   5.833   9.231 -2.8285  2.7640  0.4548
    8SAPS  H18Z 1064   7.639   5.824   9.369 -1.5328 -2.8966  0.6366
    9SAPS     N 1065   1.932   1.744   6.468 -0.3014  0.3730 -0.2451
    9SAPS   HN1 1066   1.911   1.643   6.483  3.6420 -0.6950 -1.3935
    9SAPS   HN2 1067   1.940   1.799   6.556 -1.3301  1.3959 -0.7735
    9SAPS   HN3 1068   1.844   1.782   6.427  0.6254  0.5632 -2.1008
    9SAPS   C12 1069   2.040   1.778   6.378  0.4066 -0.4607 -0.3727
    9SAPS  H12A 1070   2.134   1.762   6.429 -0.2949 -1.5803  0.6106
    9SAPS   C13 1071   2.035   1.694   6.245 -0.7202 -0.8951  0.1807
    9SAPS  O13A 1072   1.949   1.607   6.222 -0.1640  0.5380  0.0816
    9SAPS  O13B 1073   2.127   1.724   6.165  0.8946  0.4037  0.4891
    9SAPS   C11 1074   2.038   1.933   6.347  0.5731 -0.0843  0.1690
    9SAPS  H11A 1075   1.947   1.952   6.286  1.2852 -1.0042 -1.1934
    9SAPS  H11B 1076   2.122   1.957   6.278  1.1724 -3.9906 -0.5305
    9SAPS     P 1077   2.152   2.068   6.528 -0.1632 -0.0195 -0.5242
    9SAPS   O13 1078   2.234   1.961   6.583  0.4916 -0.2702 -0.2299
    9SAPS   O14 1079   2.210   2.143   6.414 -0.6353 -0.0317 -0.1163
    9SAPS   O12 1080   2.019   2.013   6.467  0.2099 -0.8915  0.3193
    9SAPS   O11 1081   2.106   2.178   6.638  0.1240  0.1526 -0.1809
    9SAPS    C1 1082   2.189   2.296   6.651 -0.9710  0.1498 -0.6188
    9SAPS    HA 1083   2.291   2.274   6.612 -0.7745 -1.1311  0.5727
    9SAPS    HB 1084   2.153   2.374   6.580 -2.9285 -1.2952 -1.2559
    9SAPS    C2 1085   2.195   2.357   6.798  0.1221  0.4051  0.7542
    9SAPS    HS 1086   2.254   2.451   6.799  0.8735 -0.0641  0.8605
    9SAPS   O21 1087   2.250   2.261   6.887 -0.3588  0.2797 -0.5584
    9SAPS   C21 1088   2.375   2.220   6.865  0.1983  0.1592 -0.4196
    9SAPS   O22 1089   2.455   2.275   6.790  0.1131  0.5284 -0.4799
    9SAPS   C22 1090   2.405   2.105   6.956 -0.1933  0.6558 -0.1848
    9SAPS   H2R 1091   2.321   2.032   6.954  0.4982 -0.1407 -0.3222
    9SAPS   H2S 1092   2.502   2.068   6.918 -0.2556 -1.3109  1.4775
    9SAPS    C3 1093   2.048   2.403   6.837  0.3990 -0.5792 -0.2069
    9SAPS    HX 1094   1.998   2.304   6.839 -0.5842 -0.1231 -1.7245
    9SAPS    HY 1095   2.000   2.469   6.761 -3.0375 -1.4296  1.1411
    9SAPS   O31 1096   2.047   2.456   6.970 -0.2661 -0.0559 -0.0087
    9SAPS   C31 1097   2.081   2.585   6.973  0.2397  0.1322 -0.0186
    9SAPS   O32 1098   2.115   2.647   6.873  0.2046  0.8117 -0.2498
    9SAPS   C32 1099   2.064   2.639   7.114 -0.1831 -0.2624 -0.1738
    9SAPS   H2X 1100   2.028   2.557   7.181  2.4532  0.3774  2.1166
    9SAPS   H2Y 1101   1.976   2.706   7.103 -1.7680 -2.2062  0.1057
    9SAPS   C23 1102   2.413   2.151   7.106 -0.0080 -0.0116 -0.1234
    9SAPS   H3R 1103   2.324   2.218   7.114  1.1071  1.8169 -2.4998
    9SAPS   H3S 1104   2.506   2.211   7.119  0.1546 -0.0782 -0.9537
    9SAPS   C24 1105   2.404   2.031   7.203 -0.2734 -0.2832  0.6938
    9SAPS   H4R 1106   2.314   1.967   7.186 -0.7444  1.0152 -1.9253
    9SAPS   H4S 1107   2.407   2.075   7.305  1.7414 -2.7243  1.7402
    9SAPS   C25 1108   2.520   1.940   7.185  0.1478 -0.0190  0.2964
    9SAPS   H5R 1109   2.533   1.901   7.083  3.3361  2.8996 -0.4801
    9SAPS   C26 1110   2.603   1.902   7.279  0.7504 -0.2185  0.2511
    9SAPS   H6R 1111   2.694   1.847   7.249  2.1463  0.8110  2.4716
    9SAPS   C27 1112   2.609   1.948   7.426 -0.7570  0.9436  0.9748
    9SAPS   H7R 1113   2.575   1.866   7.493 -1.2258  0.5851  0.3099
    9SAPS   H7S 1114   2.540   2.034   7.438 -1.0987  0.5766  1.7005
    9SAPS   C28 1115   2.754   1.985   7.466  0.5232  0.0336  0.0163
    9SAPS   H8R 1116   2.818   1.997   7.378 -0.0790  1.6455 -0.2318
    9SAPS   C29 1117   2.806   1.991   7.587  0.5213 -0.0400 -0.0387
    9SAPS   H9R 1118   2.906   2.037   7.590 -0.5487  2.4193 -0.2319
    9SAPS  C210 1119   2.742   1.954   7.717 -0.6414  0.0863  0.1263
    9SAPS  H10R 1120   2.757   1.847   7.741  0.7098  0.4069  0.7316
    9SAPS  H10S 1121   2.631   1.963   7.710 -0.5349  2.2364  0.8240
    9SAPS  C211 1122   2.790   2.045   7.823 -0.0185 -0.7239 -0.3035
    9SAPS  H11R 1123   2.731   2.135   7.843  0.1100  0.2132 -3.7786
    9SAPS  C212 1124   2.894   2.028   7.909 -0.4464  0.8163  0.1183
    9SAPS  H12R 1125   2.922   2.104   7.983  1.2526  0.8541 -0.5183
    9SAPS  C213 1126   2.986   1.904   7.906 -1.0687  0.0727  0.3448
    9SAPS  H13R 1127   2.962   1.852   7.810 -0.2115 -0.3475  0.3467
    9SAPS  H13S 1128   2.957   1.824   7.977  0.4955 -1.1188 -0.3207
    9SAPS  C214 1129   3.139   1.922   7.927 -0.7480  0.7700  0.3417
    9SAPS  H14R 1130   3.169   1.960   8.026  2.5963 -1.1303  0.1271
    9SAPS  C215 1131   3.232   1.883   7.840 -0.0788  0.5449  0.5349
    9SAPS  H15R 1132   3.339   1.887   7.865  1.0371  0.0777 -3.8149
    9SAPS  C216 1133   3.208   1.822   7.705  0.0137  0.2727 -0.2842
    9SAPS  H16R 1134   3.178   1.910   7.645 -0.0893  0.8592  0.6325
    9SAPS  H16S 1135   3.118   1.756   7.710  0.6314 -0.5529  0.1811
    9SAPS  C217 1136   3.327   1.765   7.640 -0.7758  0.8223  0.0337
    9SAPS  H17R 1137   3.379   1.694   7.707 -0.7656  0.6534 -0.1512
    9SAPS  H17S 1138   3.387   1.853   7.611 -0.6996 -0.0695 -2.7757
    9SAPS  C218 1139   3.301   1.678   7.509  0.4525  0.1040  0.2308
    9SAPS  H18R 1140   3.263   1.576   7.534  0.5943  0.1031  0.4467
    9SAPS  H18S 1141   3.397   1.646   7.464 -0.9908 -1.3355 -1.8990
    9SAPS  C219 1142   3.213   1.735   7.394  0.2846  0.8707 -1.1207
    9SAPS  H19R 1143   3.116   1.765   7.439 -0.2859 -1.4593 -0.7242
    9SAPS  H19S 1144   3.194   1.653   7.322  0.0676 -0.3383  0.2788
    9SAPS  C220 1145   3.274   1.842   7.311 -0.0844  0.5057 -0.4715
    9SAPS  H20R 1146   3.208   1.883   7.232  0.3045 -0.8683 -1.5370
    9SAPS  H20S 1147   3.362   1.805   7.253  0.0802  0.4243 -0.1730
    9SAPS  H20T 1148   3.309   1.927   7.373  1.2689  0.0734 -0.6099
    9SAPS   C33 1149   2.184   2.701   7.182  0.1375 -0.8967  0.2366
    9SAPS   H3X 1150   2.231   2.778   7.116 -2.0925 -1.1882 -1.7706
    9SAPS   H3Y 1151   2.271   2.632   7.188  1.9340  1.3496  1.1086
    9SAPS   C34 1152   2.147   2.759   7.320 -0.1263  0.1777  0.0334
    9SAPS   H4X 1153   2.050   2.811   7.304 -0.0263  0.1642 -0.6056
    9SAPS   H4Y 1154   2.218   2.837   7.353  0.7427 -0.7324  0.3359
    9SAPS   C35 1155   2.138   2.655   7.434  0.3622  0.3553 -0.4184
    9SAPS   H5X 1156   2.238   2.607   7.435  1.0385  1.7407  1.6027
    9SAPS   H5Y 1157   2.055   2.584   7.418  0.4621  0.3187 -0.7809
    9SAPS   C36 1158   2.121   2.721   7.576 -0.5034 -0.6642  0.3671
    9SAPS   H6X 1159   2.032   2.788   7.570  1.3067  1.6998 -1.0474
    9SAPS   H6Y 1160   2.201   2.796   7.595  0.2894 -2.2710  3.6999
    9SAPS   C37 1161   2.119   2.619   7.684  0.5308  0.0930  0.1293
    9SAPS   H7X 1162   2.226   2.588   7.687  0.4275 -0.3564 -0.4985
    9SAPS   H7Y 1163   2.052   2.538   7.649  1.5838 -1.2637  1.1852
    9SAPS   C38 1164   2.074   2.688   7.817 -0.2812  0.5534  0.0975
    9SAPS   H8X 1165   2.158   2.760   7.828 -0.4269  0.7977 -0.3708
    9SAPS   H8Y 1166   2.072   2.604   7.889 -1.5576 -1.1466 -1.8856
    9SAPS   C39 1167   1.933   2.748   7.815 -1.0492 -0.4903 -0.6562
    9SAPS   H9X 1168   1.865   2.663   7.793  2.5212 -2.9941 -2.5330
    9SAPS   H9Y 1169   1.920   2.824   7.736 -1.1357  0.4716  0.2717
    9SAPS  C310 1170   1.908   2.815   7.946 -0.2237 -1.0034 -0.1353
    9SAPS  H10X 1171   1.987   2.892   7.952  0.5121 -1.7116 -0.6356
    9SAPS  H10Y 1172   1.923   2.743   8.029  2.1176  1.2685  1.5013
    9SAPS  C311 1173   1.762   2.862   7.963 -0.1208  0.0119 -0.0760
    9SAPS  H11X 1174   1.694   2.774   7.962 -0.4394  0.2049  1.8599
    9SAPS  H11Y 1175   1.744   2.915   7.867  0.9834 -0.4036 -0.5200
    9SAPS  C312 1176   1.719   2.941   8.086  0.8535 -0.4310  0.8552
    9SAPS  H12X 1177   1.718   2.876   8.176 -0.5229 -1.1206  0.3526
    9SAPS  H12Y 1178   1.620   2.990   8.073  0.9201  0.3022  2.8771
    9SAPS  C313 1179   1.808   3.065   8.106  0.2119 -0.2947  0.0700
    9SAPS  H13X 1180   1.740   3.144   8.147 -0.3924 -0.1378 -1.1997
    9SAPS  H13Y 1181   1.837   3.096   8.004  1.9819 -0.8946  0.3869
    9SAPS  C314 1182   1.929   3.040   8.186 -0.3005  0.7439  0.2272
    9SAPS  H14X 1183   1.985   2.950   8.153 -0.8008  0.5135  0.0142
    9SAPS  H14Y 1184   1.900   3.013   8.290 -1.6589  1.4465  0.0460
    9SAPS  C315 1185   2.035   3.147   8.167 -0.1362 -0.4352  0.3025
    9SAPS  H15X 1186   1.991   3.226   8.231 -0.2521 -0.0319 -0.2700
    9SAPS  H15Y 1187   2.042   3.173   8.059 -0.9079 -3.5290 -0.5455
    9SAPS  C316 1188   2.181   3.122   8.213 -0.7355  0.5473 -0.3096
    9SAPS  H16X 1189   2.235   3.219   8.208  1.0641 -0.5158 -2.1298
    9SAPS  H16Y 1190   2.236   3.057   8.142  0.6296  1.2532  0.0961
    9SAPS  C317 1191   2.205   3.072   8.361 -0.6957 -1.1799  0.2231
    9SAPS  H17X 1192   2.172   2.968   8.383 -0.7471 -0.8831  1.5677
    9SAPS  H17Y 1193   2.151   3.144   8.426  1.0497  0.9549 -0.6172
    9SAPS  C318 1194   2.359   3.084   8.397  0.0933 -0.5177  0.8666
    9SAPS  H18X 1195   2.391   3.015   8.478  3.0739  0.0779  0.2745
    9SAPS  H18Y 1196   2.388   3.190   8.415 -1.1292 -0.2257  1.1132
    9SAPS  H18Z 1197   2.406   3.059   8.299 -3.4291  2.1582 -1.6122
   10SAPS     N 1198   2.367   1.641   6.223  0.1776 -0.1777 -0.4666
   10SAPS   HN1 1199   2.332   1.601   6.312 -1.7018  1.2139 -0.5382
   10SAPS   HN2 1200   2.424   1.729   6.227  2.1755 -1.4051 -1.3333
   10SAPS   HN3 1201   2.273   1.672   6.190 -0.9614 -2.4083  0.5519
   10SAPS   C12 1202   2.450   1.539   6.142  0.5036  0.0262  0.5801
   10SAPS  H12A 1203   2.402   1.443   6.133 -1.2147  0.7927  1.3939
   10SAPS   C13 1204   2.482   1.588   5.997 -0.2002 -0.3880 -0.5022
   10SAPS  O13A 1205   2.448   1.702   5.959  0.1687  0.4491 -0.7292
   10SAPS  O13B 1206   2.538   1.505   5.917  0.5103 -0.2268  0.5517
   10SAPS   C11 1207   2.585   1.519   6.217 -0.5755 -0.3860 -0.4421
   10SAPS  H11A 1208   2.657   1.602   6.195 -0.8688  0.7082  2.5152
   10SAPS  H11B 1209   2.638   1.429   6.180 -1.5002 -1.0293 -0.2076
   10SAPS     P 1210   2.559   1.372   6.432 -0.0321  0.0702  0.4744
   10SAPS   O13 1211   2.447   1.290   6.382 -0.1401 -0.4410  0.2814
   10SAPS   O14 1212   2.694   1.315   6.408 -0.0183  0.2821 -0.5067
   10SAPS   O12 1213   2.557   1.510   6.355  0.5427 -0.4195 -0.0845
   10SAPS   O11 1214   2.546   1.410   6.586  0.0451 -0.0434  0.4415
   10SAPS    C1 1215   2.617   1.515   6.656 -0.4605 -0.0994  0.2496
   10SAPS    HA 1216   2.629   1.605   6.593  2.5288 -1.5086 -1.3446
   10SAPS    HB 1217   2.549   1.556   6.733  0.3576  0.6330  0.5972
   10SAPS    C2 1218   2.748   1.458   6.717 -0.5771  0.5424 -0.6953
   10SAPS    HS 1219   2.814   1.417   6.638 -0.2299  2.3453 -1.3628
   10SAPS   O21 1220   2.710   1.360   6.822  0.4611  0.4475 -0.2836
   10SAPS   C21 1221   2.792   1.256   6.826  0.1983  0.1220  1.0001
   10SAPS   O22 1222   2.880   1.231   6.747  0.2634  0.4291 -0.0870
   10SAPS   C22 1223   2.752   1.163   6.942 -0.8652 -0.7168 -0.1262
   10SAPS   H2R 1224   2.764   1.222   7.034 -3.0867 -0.3695 -0.0276
   10SAPS   H2S 1225   2.643   1.147   6.922 -0.6796 -0.8633 -1.0662
   10SAPS    C3 1226   2.835   1.573   6.771 -0.5636 -0.2489  0.0171
   10SAPS    HX 1227   2.789   1.608   6.866 -1.6445  0.4207 -0.7524
   10SAPS    HY 1228   2.844   1.654   6.697  2.3061 -0.0847  0.4720
   10SAPS   O31 1229   2.967   1.516   6.808 -0.7466  0.3350 -0.5339
   10SAPS   C31 1230   3.042   1.603   6.865  0.2126 -0.8152 -0.1091
   10SAPS   O32 1231   3.016   1.725   6.879  0.9160  0.1224 -0.0921
   10SAPS   C32 1232   3.169   1.537   6.917  0.1123  0.2323 -0.2505
   10SAPS   H2X 1233   3.258   1.603   6.910 -1.3582  2.0950 -2.2478
   10SAPS   H2Y 1234   3.195   1.446   6.859 -1.8507 -0.0661 -0.6983
   10SAPS   C23 1235   2.832   1.037   6.949 -0.1554 -0.2930  0.1470
   10SAPS   H3R 1236   2.927   1.058   7.003 -0.5225  2.9067 -0.3639
   10SAPS   H3S 1237   2.836   1.005   6.843  0.4057 -0.2253  0.1504
   10SAPS   C24 1238   2.756   0.915   7.010  0.1123  0.3146  0.0198
   10SAPS   H4R 1239   2.659   0.907   6.957 -0.1439 -1.1419  0.6960
   10SAPS   H4S 1240   2.721   0.946   7.111 -0.4118  0.4761 -0.2132
   10SAPS   C25 1241   2.840   0.792   6.998 -0.8774  0.1622  0.5010
   10SAPS   H5R 1242   2.901   0.780   6.907 -1.9913 -0.7642 -0.1449
   10SAPS   C26 1243   2.854   0.698   7.090 -0.1897  0.0877 -0.3295
   10SAPS   H6R 1244   2.924   0.618   7.061 -1.7835 -0.8403 -1.7348
   10SAPS   C27 1245   2.795   0.681   7.221 -0.4299 -0.4154  1.0358
   10SAPS   H7R 1246   2.810   0.776   7.276  0.0780 -0.6992  1.3866
   10SAPS   H7S 1247   2.854   0.609   7.282 -0.7782  1.1998  3.3606
   10SAPS   C28 1248   2.645   0.640   7.243 -0.4029  0.6827  0.0639
   10SAPS   H8R 1249   2.599   0.581   7.162 -0.0491  0.4327  0.0426
   10SAPS   C29 1250   2.570   0.662   7.349  1.6163 -0.0070 -0.7241
   10SAPS   H9R 1251   2.467   0.628   7.329  1.9999 -1.0567 -0.9169
   10SAPS  C210 1252   2.599   0.734   7.476  0.9397 -0.2748  0.3481
   10SAPS  H10R 1253   2.504   0.738   7.533  0.6189 -1.2226 -0.1041
   10SAPS  H10S 1254   2.624   0.837   7.444  0.3940 -0.8623 -2.0766
   10SAPS  C211 1255   2.704   0.673   7.564 -0.5029  0.0013  0.7663
   10SAPS  H11R 1256   2.806   0.660   7.523  0.0983  0.0776  2.2023
   10SAPS  C212 1257   2.689   0.636   7.693  0.2240 -0.5871  0.4297
   10SAPS  H12R 1258   2.775   0.592   7.747  3.7919  4.0481 -1.1182
   10SAPS  C213 1259   2.563   0.641   7.777 -0.2082  0.1549 -0.1770
   10SAPS  H13R 1260   2.536   0.535   7.795  1.4583 -0.1655  0.5216
   10SAPS  H13S 1261   2.474   0.687   7.729 -0.3269  0.2458  0.1326
   10SAPS  C214 1262   2.579   0.713   7.905 -0.1822 -0.1488  0.0065
   10SAPS  H14R 1263   2.550   0.819   7.902  3.0065  0.7511 -1.2010
   10SAPS  C215 1264   2.624   0.664   8.018  0.1148  0.6014  0.2263
   10SAPS  H15R 1265   2.608   0.732   8.103 -1.1913 -1.2228  1.4917
   10SAPS  C216 1266   2.668   0.528   8.056 -0.4301  0.0668 -1.2642
   10SAPS  H16R 1267   2.775   0.529   8.087 -0.6432 -3.1349 -0.3134
   10SAPS  H16S 1268   2.668   0.464   7.966  0.5502 -0.7058 -0.7269
   10SAPS  C217 1269   2.581   0.451   8.168  0.4934 -1.5052 -0.3402
   10SAPS  H17R 1270   2.614   0.346   8.179  2.0036 -0.7754  2.4901
   10SAPS  H17S 1271   2.473   0.458   8.139  0.6205  1.9770 -0.2173
   10SAPS  C218 1272   2.578   0.525   8.305 -0.0657 -0.5930 -0.8549
   10SAPS  H18R 1273   2.540   0.627   8.282  1.1476 -0.2684 -1.4642
   10SAPS  H18S 1274   2.679   0.527   8.353 -0.4866  1.1939 -0.0130
   10SAPS  C219 1275   2.478   0.444   8.395 -0.7725 -0.2659  0.8353
   10SAPS  H19R 1276   2.508   0.337   8.396  1.6103  0.3732  2.6870
   10SAPS  H19S 1277   2.376   0.450   8.352 -0.6333  0.0912  0.5472
   10SAPS  C220 1278   2.467   0.509   8.538 -0.1751  0.0338 -0.5099
   10SAPS  H20R 1279   2.364   0.478   8.567  0.1946 -1.0312 -0.3031
   10SAPS  H20S 1280   2.470   0.619   8.530  0.2240  0.1488  1.1597
   10SAPS  H20T 1281   2.549   0.465   8.598  0.5343  0.2411 -1.3091
   10SAPS   C33 1282   3.135   1.508   7.067  0.1769  0.5400 -0.6590
   10SAPS   H3X 1283   3.110   1.603   7.118  0.1309  0.2500 -0.1402
   10SAPS   H3Y 1284   3.226   1.464   7.113 -1.3942  0.1118  2.1469
   10SAPS   C34 1285   3.010   1.416   7.101  0.4858  0.0886  0.1843
   10SAPS   H4X 1286   3.019   1.325   7.038 -0.2257  2.2583 -3.1940
   10SAPS   H4Y 1287   2.908   1.461   7.096  0.1905 -0.6221 -0.1803
   10SAPS   C35 1288   3.023   1.365   7.250  0.3158  0.6526  0.4713
   10SAPS   H5X 1289   2.976   1.441   7.316 -0.3418  1.0755 -0.4695
   10SAPS   H5Y 1290   3.129   1.345   7.273  0.5714 -0.3268 -1.4478
   10SAPS   C36 1291   2.944   1.228   7.266 -0.2029  0.0560  0.2019
   10SAPS   H6X 1292   2.965   1.147   7.193 -3.2749 -0.4401 -0.2219
   10SAPS   H6Y 1293   2.833   1.237   7.257 -0.1186  0.1158 -0.8456
   10SAPS   C37 1294   2.964   1.177   7.413  0.1899 -0.4538  0.3606
   10SAPS   H7X 1295   2.941   1.263   7.480  0.8176 -1.9670  2.5848
   10SAPS   H7Y 1296   3.067   1.145   7.438  0.4237  1.7581  2.3573
   10SAPS   C38 1297   2.861   1.062   7.453  0.2701  0.0844 -0.2048
   10SAPS   H8X 1298   2.864   0.980   7.378  1.3529  0.6523 -0.7956
   10SAPS   H8Y 1299   2.759   1.106   7.457 -0.2684 -1.2427  0.7095
   10SAPS   C39 1300   2.890   1.001   7.593  0.3545 -0.3109 -0.0852
   10SAPS   H9X 1301   2.998   0.978   7.593  0.0320 -1.9733  1.6141
   10SAPS   H9Y 1302   2.837   0.904   7.606 -0.7632  0.2226 -0.5400
   10SAPS  C310 1303   2.848   1.082   7.716 -0.7164 -0.0656  0.3016
   10SAPS  H10X 1304   2.884   1.187   7.717  2.0664 -0.9684  1.1477
   10SAPS  H10Y 1305   2.894   1.031   7.804  0.5749  0.5038 -0.0347
   10SAPS  C311 1306   2.698   1.074   7.734  0.2756 -0.2612 -0.2632
   10SAPS  H11X 1307   2.655   0.976   7.704 -1.7259  1.2300 -2.4312
   10SAPS  H11Y 1308   2.653   1.159   7.680 -0.8825 -1.4451 -1.2015
   10SAPS  C312 1309   2.657   1.094   7.878  0.1651 -0.6896 -0.1255
   10SAPS  H12X 1310   2.729   1.166   7.923 -1.9813  2.1601 -1.1128
   10SAPS  H12Y 1311   2.664   1.002   7.940  1.5270  0.3383  1.2915
   10SAPS  C313 1312   2.516   1.153   7.898 -0.0300 -0.0385 -0.7022
   10SAPS  H13X 1313   2.445   1.109   7.824 -1.4048 -1.2207  1.2590
   10SAPS  H13Y 1314   2.522   1.256   7.857 -0.2070 -0.1763 -1.0842
   10SAPS  C314 1315   2.452   1.150   8.042  0.0484  0.1720 -0.0859
   10SAPS  H14X 1316   2.443   1.047   8.085 -0.3574  0.8347  1.4754
   10SAPS  H14Y 1317   2.351   1.196   8.037 -0.0907  0.7681  5.0098
   10SAPS  C315 1318   2.519   1.234   8.161 -0.2160  0.5322 -0.0050
   10SAPS  H15X 1319   2.533   1.329   8.106 -0.5326  0.7408  0.2712
   10SAPS  H15Y 1320   2.613   1.178   8.179 -0.4347  0.5452  1.2294
   10SAPS  C316 1321   2.444   1.249   8.293 -0.0120  0.6505  0.1843
   10SAPS  H16X 1322   2.335   1.239   8.271 -0.7764  5.4048  1.1071
   10SAPS  H16Y 1323   2.460   1.345   8.348  1.8561  0.5646 -0.1945
   10SAPS  C317 1324   2.486   1.139   8.389  0.1706  0.4398  0.0864
   10SAPS  H17X 1325   2.588   1.167   8.423 -0.6868  0.6697  2.5587
   10SAPS  H17Y 1326   2.471   1.033   8.359 -0.8096 -0.2503  2.8936
   10SAPS  C318 1327   2.419   1.141   8.525 -0.4477 -0.4726 -0.1537
   10SAPS  H18X 1328   2.311   1.122   8.507 -0.6260  0.5909 -0.2274
   10SAPS  H18Y 1329   2.430   1.239   8.576 -1.1283 -1.2483  1.5394
   10SAPS  H18Z 1330   2.461   1.070   8.600 -0.0778  0.5049  0.5766
   11SAPS     N 1331   4.308   4.485   5.666  0.1593 -0.1785  0.1160
   11SAPS   HN1 1332   4.374   4.440   5.599  0.9122 -0.3006  0.9186
   11SAPS   HN2 1333   4.220   4.430   5.656 -1.0991  0.9659  3.9768
   11SAPS   HN3 1334   4.291   4.583   5.637  2.5687  0.4422  0.6396
   11SAPS   C12 1335   4.355   4.481   5.809 -0.5437 -0.8386 -0.0061
   11SAPS  H12A 1336   4.448   4.535   5.819 -1.3792  0.5037  0.5139
   11SAPS   C13 1337   4.256   4.551   5.915  0.3919  0.2580 -0.4592
   11SAPS  O13A 1338   4.145   4.610   5.883 -0.2751 -0.0827 -0.1261
   11SAPS  O13B 1339   4.294   4.549   6.033  0.4188  0.2992 -0.4100
   11SAPS   C11 1340   4.376   4.326   5.854 -0.5514 -0.9182 -0.2263
   11SAPS  H11A 1341   4.284   4.264   5.857 -0.2132 -1.5005 -1.6273
   11SAPS  H11B 1342   4.415   4.339   5.957  0.9009  1.1853 -1.0159
   11SAPS     P 1343   4.535   4.125   5.800  0.0105 -0.0413  0.2582
   11SAPS   O13 1344   4.476   4.018   5.720  0.2699 -0.1240  0.3085
   11SAPS   O14 1345   4.681   4.151   5.784 -0.4056 -0.4130 -0.2197
   11SAPS   O12 1346   4.475   4.269   5.767 -0.3454  0.4811 -0.4974
   11SAPS   O11 1347   4.497   4.096   5.954 -0.1121  0.3125 -0.1451
   11SAPS    C1 1348   4.593   4.144   6.049  0.1395 -0.7376  1.0535
   11SAPS    HA 1349   4.693   4.170   6.009 -0.4471  0.5906  0.4511
   11SAPS    HB 1350   4.554   4.237   6.095  2.2974  0.7722 -0.0650
   11SAPS    C2 1351   4.607   4.052   6.173 -0.3198 -0.0310 -0.0629
   11SAPS    HS 1352   4.634   3.947   6.146 -0.8570  0.5575 -3.1292
   11SAPS   O21 1353   4.472   4.044   6.233  0.2039 -0.8122  0.6633
   11SAPS   C21 1354   4.465   3.946   6.317  0.3135  0.2307  0.1979
   11SAPS   O22 1355   4.539   3.850   6.332 -0.1745  0.1202 -0.6291
   11SAPS   C22 1356   4.324   3.944   6.389  0.5780 -0.5653 -0.3378
   11SAPS   H2R 1357   4.351   4.000   6.481 -1.9747 -0.2472  0.2512
   11SAPS   H2S 1358   4.246   4.003   6.337  1.3889 -0.9311 -1.9884
   11SAPS    C3 1359   4.716   4.114   6.278  0.1017  0.1050  0.3137
   11SAPS    HX 1360   4.694   4.223   6.282  2.7875  0.6947 -0.2887
   11SAPS    HY 1361   4.815   4.094   6.232 -0.1743  1.6959 -1.0418
   11SAPS   O31 1362   4.716   4.053   6.408 -0.1434 -0.0503 -0.1935
   11SAPS   C31 1363   4.799   3.956   6.436  0.0338 -0.0469  0.7714
   11SAPS   O32 1364   4.897   3.924   6.368 -0.2249  0.2831  0.5151
   11SAPS   C32 1365   4.757   3.894   6.566 -0.2242 -0.1873  0.4809
   11SAPS   H2X 1366   4.844   3.847   6.616 -0.8153 -2.0404 -0.2041
   11SAPS   H2Y 1367   4.694   3.809   6.535 -1.3010  0.5528  0.6140
   11SAPS   C23 1368   4.270   3.806   6.419  0.1825 -0.1192  0.2382
   11SAPS   H3R 1369   4.322   3.743   6.494 -1.8375  1.3295  2.9567
   11SAPS   H3S 1370   4.242   3.741   6.334 -2.3291 -0.1240  1.0225
   11SAPS   C24 1371   4.135   3.821   6.494 -0.2959  0.1340  1.1189
   11SAPS   H4R 1372   4.095   3.720   6.518 -3.9471  1.1189 -0.5906
   11SAPS   H4S 1373   4.064   3.858   6.418 -1.4303 -3.2621  0.4413
   11SAPS   C25 1374   4.134   3.930   6.602  0.2398  0.5082  0.0579
   11SAPS   H5R 1375   4.104   4.030   6.567  0.7319  0.4870 -0.4263
   11SAPS   C26 1376   4.154   3.915   6.733 -0.6916  0.0161  0.6926
   11SAPS   H6R 1377   4.156   4.005   6.795  0.0438  2.1438 -2.3116
   11SAPS   C27 1378   4.180   3.786   6.810 -0.3515  0.2456 -0.4593
   11SAPS   H7R 1379   4.277   3.801   6.861 -0.4149  0.7979 -0.4961
   11SAPS   H7S 1380   4.184   3.692   6.751  1.3188 -0.5732  0.9175
   11SAPS   C28 1381   4.079   3.758   6.914  0.2766 -0.6770 -0.0650
   11SAPS   H8R 1382   4.004   3.684   6.881 -1.5290  0.8898  0.4633
   11SAPS   C29 1383   4.057   3.818   7.031  0.4401 -0.6725 -0.2463
   11SAPS   H9R 1384   3.975   3.778   7.093  1.9964  1.1966  3.1193
   11SAPS  C210 1385   4.139   3.927   7.093 -0.2666  1.0538 -0.0884
   11SAPS  H10R 1386   4.069   4.002   7.135 -1.0263  0.7293 -0.7447
   11SAPS  H10S 1387   4.201   3.977   7.015 -0.0802  0.1935 -0.5121
   11SAPS  C211 1388   4.241   3.876   7.198 -0.6489 -0.7528  0.4769
   11SAPS  H11R 1389   4.313   3.810   7.147 -0.8587 -1.9421  1.7035
   11SAPS  C212 1390   4.263   3.889   7.330  0.0912 -0.2472  0.1615
   11SAPS  H12R 1391   4.352   3.854   7.384  2.3032  1.3934 -2.3276
   11SAPS  C213 1392   4.162   3.970   7.415  0.2620 -0.4798 -0.0642
   11SAPS  H13R 1393   4.071   3.979   7.353 -1.2814 -0.9866  2.0480
   11SAPS  H13S 1394   4.200   4.074   7.420 -1.9336  0.2398  4.5325
   11SAPS  C214 1395   4.124   3.926   7.553  0.8656 -0.0150  0.8186
   11SAPS  H14R 1396   4.029   3.871   7.560  0.0694  1.5339  2.5308
   11SAPS  C215 1397   4.184   3.959   7.669 -0.2921 -0.8971 -0.3444
   11SAPS  H15R 1398   4.135   3.934   7.765 -0.0277  1.8030  0.5272
   11SAPS  C216 1399   4.303   4.053   7.688 -0.6857 -0.8784  0.0878
   11SAPS  H16R 1400   4.289   4.158   7.655  0.5962 -0.6512  0.2311
   11SAPS  H16S 1401   4.380   4.009   7.621  0.6611  0.6905  0.5707
   11SAPS  C217 1402   4.351   4.062   7.833  0.5132 -0.4238 -0.4773
   11SAPS  H17R 1403   4.430   4.141   7.834 -0.7338  0.8784 -2.1432
   11SAPS  H17S 1404   4.394   3.967   7.872  0.4697  0.6435  2.2807
   11SAPS  C218 1405   4.246   4.121   7.932 -0.2757  0.3763 -0.3166
   11SAPS  H18R 1406   4.180   4.040   7.969 -1.0967  2.4668  2.9771
   11SAPS  H18S 1407   4.186   4.194   7.873 -1.4769  1.1953  1.8732
   11SAPS  C219 1408   4.322   4.178   8.050 -0.0157 -0.1409 -0.3186
   11SAPS  H19R 1409   4.251   4.228   8.120  2.0404  3.2430 -0.5039
   11SAPS  H19S 1410   4.401   4.254   8.028  0.3499 -0.6519 -0.7719
   11SAPS  C220 1411   4.391   4.067   8.136  0.3812 -0.2587 -0.8195
   11SAPS  H20R 1412   4.422   4.110   8.234  0.8023  1.4013 -1.6656
   11SAPS  H20S 1413   4.472   4.011   8.085  2.6962  1.3737  0.9851
   11SAPS  H20T 1414   4.310   3.995   8.162  1.1019 -1.3974 -1.6743
   11SAPS   C33 1415   4.662   3.976   6.663  0.0298 -0.0885  0.5293
   11SAPS   H3X 1416   4.574   4.021   6.612 -1.7676 -1.8305  2.0243
   11SAPS   H3Y 1417   4.720   4.057   6.711 -1.1338  1.3836 -0.5089
   11SAPS   C34 1418   4.604   3.883   6.770  0.0038 -0.2904 -0.6422
   11SAPS   H4X 1419   4.688   3.818   6.803  0.0873  1.2825  2.4017
   11SAPS   H4Y 1420   4.526   3.818   6.725  0.3091 -2.1652  1.4833
   11SAPS   C35 1421   4.548   3.963   6.882 -0.3920 -0.0407 -0.0119
   11SAPS   H5X 1422   4.473   3.917   6.949 -1.3687 -0.6519 -1.5195
   11SAPS   H5Y 1423   4.495   4.048   6.835 -0.8677 -0.0806  0.4471
   11SAPS   C36 1424   4.649   4.026   6.974  0.3937 -0.2958  0.2821
   11SAPS   H6X 1425   4.725   4.086   6.918 -2.8520  2.3048 -1.5383
   11SAPS   H6Y 1426   4.712   3.947   7.021  0.8219  0.9163  1.7742
   11SAPS   C37 1427   4.598   4.131   7.073  0.2870 -0.0224  0.2069
   11SAPS   H7X 1428   4.500   4.094   7.112  0.6733 -0.2659  0.9529
   11SAPS   H7Y 1429   4.579   4.234   7.037 -0.0730 -0.2372 -0.2355
   11SAPS   C38 1430   4.690   4.140   7.198 -0.1118 -0.3957  0.2225
   11SAPS   H8X 1431   4.785   4.182   7.158 -0.7847  0.7361 -0.2223
   11SAPS   H8Y 1432   4.719   4.035   7.220  0.2632 -0.2097  0.6291
   11SAPS   C39 1433   4.628   4.224   7.314 -0.0486  1.2546  0.8338
   11SAPS   H9X 1434   4.541   4.164   7.348  0.8045 -0.5623 -0.1230
   11SAPS   H9Y 1435   4.600   4.329   7.292 -3.1926  0.4752  0.9288
   11SAPS  C310 1436   4.723   4.230   7.433  0.3011  0.4013 -0.1003
   11SAPS  H10X 1437   4.826   4.267   7.417  0.5186 -1.1848 -2.6928
   11SAPS  H10Y 1438   4.747   4.126   7.465 -2.7146 -0.4434 -0.3826
   11SAPS  C311 1439   4.650   4.292   7.547 -0.1929  0.1535  0.3637
   11SAPS  H11X 1440   4.562   4.233   7.580  0.5739 -0.0317  2.1178
   11SAPS  H11Y 1441   4.604   4.391   7.527 -1.7619 -0.1891  2.1043
   11SAPS  C312 1442   4.745   4.305   7.671  0.4813  0.9678  0.1539
   11SAPS  H12X 1443   4.816   4.388   7.655 -0.2018  1.8326  1.5466
   11SAPS  H12Y 1444   4.810   4.215   7.678  1.9654  1.9330 -0.8836
   11SAPS  C313 1445   4.672   4.318   7.809  0.2014  0.4572  0.2730
   11SAPS  H13X 1446   4.608   4.227   7.818  0.1475  0.3959 -0.6845
   11SAPS  H13Y 1447   4.612   4.411   7.805 -0.5856 -0.1263 -2.1830
   11SAPS  C314 1448   4.769   4.320   7.933  0.0389  0.0195 -0.2773
   11SAPS  H14X 1449   4.802   4.426   7.936  1.1399 -0.2352 -2.7425
   11SAPS  H14Y 1450   4.855   4.254   7.909 -1.9381 -1.4228 -3.7893
   11SAPS  C315 1451   4.702   4.298   8.068  0.4431 -0.1056  0.0149
   11SAPS  H15X 1452   4.656   4.197   8.064  0.8789 -0.3419  0.8545
   11SAPS  H15Y 1453   4.625   4.376   8.085 -2.0092 -2.8950  2.2661
   11SAPS  C316 1454   4.804   4.285   8.176 -0.1239 -0.5389  0.2347
   11SAPS  H16X 1455   4.875   4.206   8.145 -0.5706 -0.8125 -0.1031
   11SAPS  H16Y 1456   4.762   4.254   8.274 -1.6443  0.1543 -0.1678
   11SAPS  C317 1457   4.882   4.416   8.213  0.0649  0.9309  0.6944
   11SAPS  H17X 1458   4.905   4.469   8.118 -0.6417 -0.6194 -0.3485
   11SAPS  H17Y 1459   4.983   4.397   8.255  1.0915  2.3149 -1.0500
   11SAPS  C318 1460   4.806   4.513   8.301 -0.0605  0.3124  0.5547
   11SAPS  H18X 1461   4.777   4.468   8.399  0.3689 -0.3153  0.3917
   11SAPS  H18Y 1462   4.708   4.536   8.254 -1.0042 -0.7971  1.9413
   11SAPS  H18Z 1463   4.876   4.599   8.316 -0.3839  0.7228 -0.2804
   12SAPS     N 1464   4.179   4.895   5.914  0.5323 -0.2687 -0.0164
   12SAPS   HN1 1465   4.197   4.904   6.016 -0.0681 -1.2861  0.1884
   12SAPS   HN2 1466   4.157   4.797   5.887 -0.6195  0.6182 -2.4153
   12SAPS   HN3 1467   4.269   4.930   5.875  0.2057  0.0933 -0.4444
   12SAPS   C12 1468   4.075   4.993   5.859 -0.0048 -0.0963  0.2254
   12SAPS  H12A 1469   4.121   5.088   5.884  1.4338 -0.8159  0.3480
   12SAPS   C13 1470   4.053   4.990   5.707  0.3424 -0.0525 -0.1494
   12SAPS  O13A 1471   4.085   4.884   5.642 -0.0213  0.8296  0.4966
   12SAPS  O13B 1472   3.996   5.088   5.650  0.0986  1.0240 -0.3552
   12SAPS   C11 1473   3.934   4.971   5.919 -0.1975  0.0007 -0.8970
   12SAPS  H11A 1474   3.911   4.865   5.898 -1.9683  0.7597 -2.9336
   12SAPS  H11B 1475   3.864   5.034   5.860 -1.1481 -1.6614 -1.5623
   12SAPS     P 1476   3.879   5.133   6.117 -0.1485  0.0317 -0.3329
   12SAPS   O13 1477   3.887   5.245   6.020  0.2425  0.3017 -0.1758
   12SAPS   O14 1478   3.740   5.112   6.169 -0.4882 -0.1009  0.5608
   12SAPS   O12 1479   3.937   4.997   6.064  0.1540  0.0648 -0.1448
   12SAPS   O11 1480   3.980   5.176   6.235 -0.1674  0.4658 -0.1621
   12SAPS    C1 1481   4.119   5.209   6.215  0.0301  0.7131  0.3175
   12SAPS    HA 1482   4.175   5.127   6.166 -1.0514  1.7019 -2.6581
   12SAPS    HB 1483   4.129   5.293   6.143 -1.6367  0.0850 -0.6726
   12SAPS    C2 1484   4.191   5.251   6.346 -0.3203 -0.2935  0.2474
   12SAPS    HS 1485   4.301   5.246   6.333 -0.4471  2.3973 -2.6252
   12SAPS   O21 1486   4.136   5.183   6.457 -0.0155  0.1412  0.6688
   12SAPS   C21 1487   4.178   5.056   6.467  0.5930  0.4185  0.1022
   12SAPS   O22 1488   4.242   4.990   6.388 -0.7647 -0.0869  0.4493
   12SAPS   C22 1489   4.142   5.001   6.606  0.0093  1.2627 -0.1435
   12SAPS   H2R 1490   4.032   5.006   6.621  0.0238 -2.6104  1.6349
   12SAPS   H2S 1491   4.167   4.893   6.609  0.4485  1.3150 -1.5527
   12SAPS    C3 1492   4.159   5.403   6.369 -0.0129  0.3821  0.4114
   12SAPS    HX 1493   4.051   5.405   6.392 -0.5052 -1.6042 -1.5097
   12SAPS    HY 1494   4.174   5.452   6.270 -1.9188 -1.7500 -0.9714
   12SAPS   O31 1495   4.248   5.461   6.469 -0.3178  0.0845  0.5625
   12SAPS   C31 1496   4.201   5.451   6.594 -0.7247 -0.0623 -0.2218
   12SAPS   O32 1497   4.086   5.422   6.621  0.8421  0.7873  0.3051
   12SAPS   C32 1498   4.312   5.476   6.699  0.8521  0.5890  0.5093
   12SAPS   H2X 1499   4.353   5.578   6.684  0.8918  0.6878  1.3070
   12SAPS   H2Y 1500   4.399   5.409   6.683 -0.3126 -1.0115  0.7322
   12SAPS   C23 1501   4.210   5.077   6.721 -0.3493 -0.2292 -0.4994
   12SAPS   H3R 1502   4.145   5.167   6.727 -2.1599 -1.4415 -1.4214
   12SAPS   H3S 1503   4.316   5.106   6.704 -0.4697  1.7280  1.8479
   12SAPS   C24 1504   4.207   4.981   6.845 -0.2042  0.0940  0.2774
   12SAPS   H4R 1505   4.275   4.894   6.837 -0.3988  0.0550 -1.0529
   12SAPS   H4S 1506   4.106   4.940   6.866 -0.3863 -1.5548 -3.3855
   12SAPS   C25 1507   4.249   5.060   6.962  0.4303  0.2167  0.0753
   12SAPS   H5R 1508   4.358   5.052   6.973  0.4184 -0.0785 -0.0179
   12SAPS   C26 1509   4.179   5.142   7.043  0.2139  0.0019  0.3157
   12SAPS   H6R 1510   4.240   5.190   7.121  1.2530 -0.0083 -0.4762
   12SAPS   C27 1511   4.038   5.189   7.049  0.2075 -0.0318  0.5505
   12SAPS   H7R 1512   3.976   5.122   6.986  0.4632 -1.0261  1.3417
   12SAPS   H7S 1513   4.035   5.287   6.996 -2.1080  0.8274  2.2032
   12SAPS   C28 1514   3.977   5.188   7.190  0.1705  1.1380 -0.4459
   12SAPS   H8R 1515   3.896   5.114   7.195 -0.7162  2.2343  1.9104
   12SAPS   C29 1516   4.003   5.252   7.307  0.3721 -0.0341 -0.0300
   12SAPS   H9R 1517   3.948   5.218   7.396 -1.0189 -0.1869 -0.9305
   12SAPS  C210 1518   4.110   5.358   7.326 -0.5747 -0.1673 -0.0582
   12SAPS  H10R 1519   4.067   5.453   7.364 -0.1236  0.2848 -0.6674
   12SAPS  H10S 1520   4.159   5.383   7.230 -0.2398  0.4956  0.2845
   12SAPS  C211 1521   4.224   5.311   7.418 -0.4670 -0.1135 -1.2301
   12SAPS  H11R 1522   4.290   5.242   7.364 -1.9594 -0.4223 -2.6949
   12SAPS  C212 1523   4.260   5.366   7.535  0.2737 -0.0017  0.2248
   12SAPS  H12R 1524   4.343   5.317   7.588  1.1197  1.2063  0.0541
   12SAPS  C213 1525   4.198   5.476   7.618  0.0785  0.0072  0.3146
   12SAPS  H13R 1526   4.185   5.560   7.546  3.8793  0.0904 -0.3625
   12SAPS  H13S 1527   4.274   5.504   7.693  0.7876 -0.7147 -0.1271
   12SAPS  C214 1528   4.072   5.446   7.697  0.7777 -0.1471 -0.3646
   12SAPS  H14R 1529   4.021   5.354   7.666  0.4499 -0.1123  0.0667
   12SAPS  C215 1530   4.027   5.510   7.811 -0.0041  0.7117  0.0428
   12SAPS  H15R 1531   3.940   5.464   7.861  0.1269 -0.6014 -0.9284
   12SAPS  C216 1532   4.090   5.625   7.883  0.3536 -0.1257  0.0681
   12SAPS  H16R 1533   4.014   5.706   7.881 -1.4173 -1.7350  0.5222
   12SAPS  H16S 1534   4.184   5.656   7.833 -0.0920  0.6802 -0.2818
   12SAPS  C217 1535   4.107   5.602   8.037 -0.6591 -0.2919  0.7938
   12SAPS  H17R 1536   4.175   5.684   8.068 -0.5101 -0.2402  0.3391
   12SAPS  H17S 1537   4.151   5.501   8.049 -0.5378 -0.4280 -0.6618
   12SAPS  C218 1538   3.989   5.618   8.121  0.1611 -0.0236  0.2873
   12SAPS  H18R 1539   3.917   5.540   8.089 -0.4280  2.4447 -4.8574
   12SAPS  H18S 1540   3.937   5.716   8.110 -1.3156 -0.8872 -0.5263
   12SAPS  C219 1541   4.027   5.604   8.272  0.3800 -0.3968 -0.4666
   12SAPS  H19R 1542   4.096   5.685   8.303  1.1134 -1.9448  2.1151
   12SAPS  H19S 1543   4.094   5.516   8.286 -0.3052 -1.0424 -1.1450
   12SAPS  C220 1544   3.905   5.598   8.365  0.2037 -1.1158  0.4530
   12SAPS  H20R 1545   3.918   5.549   8.464  1.5989 -1.6220  0.0281
   12SAPS  H20S 1546   3.820   5.552   8.310 -0.7743  2.1475 -0.8968
   12SAPS  H20T 1547   3.878   5.704   8.384 -1.0388 -1.8768  3.0657
   12SAPS   C33 1548   4.261   5.468   6.844 -1.0822 -0.4662  0.5815
   12SAPS   H3X 1549   4.347   5.496   6.909  0.1685 -2.5059 -0.1434
   12SAPS   H3Y 1550   4.243   5.359   6.858 -2.1529 -0.6981 -2.3148
   12SAPS   C34 1551   4.151   5.572   6.882  0.5902  0.2588  0.2454
   12SAPS   H4X 1552   4.134   5.557   6.991 -0.0931 -1.7711 -0.1168
   12SAPS   H4Y 1553   4.053   5.555   6.834  0.7648 -0.7970  0.2589
   12SAPS   C35 1554   4.192   5.719   6.855 -0.1464  0.3972  0.0898
   12SAPS   H5X 1555   4.170   5.747   6.750  0.5371  1.9417  0.3346
   12SAPS   H5Y 1556   4.302   5.731   6.866 -0.2989  2.8396 -0.6970
   12SAPS   C36 1557   4.115   5.817   6.953 -0.5050  0.0878  0.2249
   12SAPS   H6X 1558   4.010   5.825   6.918 -0.4739 -2.4391 -0.5553
   12SAPS   H6Y 1559   4.161   5.917   6.939  2.3071 -1.1802 -0.0106
   12SAPS   C37 1560   4.132   5.793   7.101  0.4115  0.4146 -0.4656
   12SAPS   H7X 1561   4.082   5.697   7.126 -1.1472  1.3644  0.0981
   12SAPS   H7Y 1562   4.067   5.867   7.152  1.1017  1.1687 -0.6707
   12SAPS   C38 1563   4.270   5.786   7.159 -0.1691 -0.1881  0.4887
   12SAPS   H8X 1564   4.332   5.874   7.131 -0.3953  0.0646  0.7690
   12SAPS   H8Y 1565   4.325   5.701   7.115 -0.8961 -1.0801  1.2806
   12SAPS   C39 1566   4.274   5.786   7.310  0.0895  0.0471  0.4588
   12SAPS   H9X 1567   4.222   5.696   7.347  0.7255 -0.6896 -0.4194
   12SAPS   H9Y 1568   4.233   5.883   7.345  2.6577  1.0468  0.8233
   12SAPS  C310 1569   4.416   5.760   7.361  1.0020 -0.0254  0.8364
   12SAPS  H10X 1570   4.489   5.823   7.305 -1.7297  1.3413 -1.3704
   12SAPS  H10Y 1571   4.455   5.658   7.342 -0.8009 -0.4718 -0.5768
   12SAPS  C311 1572   4.425   5.786   7.514  0.3223 -0.4771  0.3484
   12SAPS  H11X 1573   4.353   5.722   7.571  0.8926 -0.4510  1.0973
   12SAPS  H11Y 1574   4.401   5.892   7.535  0.3217 -0.3990 -0.0342
   12SAPS  C312 1575   4.572   5.755   7.562  0.5999 -0.2611 -0.2521
   12SAPS  H12X 1576   4.633   5.816   7.492  0.7196  0.7654  0.7396
   12SAPS  H12Y 1577   4.592   5.646   7.552  1.2931 -0.2560  1.0176
   12SAPS  C313 1578   4.585   5.789   7.708 -0.8825  0.2355  0.5824
   12SAPS  H13X 1579   4.546   5.892   7.714  0.3238  0.8487 -1.4072
   12SAPS  H13Y 1580   4.693   5.775   7.728 -1.2374 -3.2964  0.3624
   12SAPS  C314 1581   4.498   5.703   7.808 -0.1332  0.5383 -0.1895
   12SAPS  H14X 1582   4.394   5.718   7.770 -0.3662  1.0460  0.6348
   12SAPS  H14Y 1583   4.510   5.752   7.907 -0.9460  0.5224 -0.0750
   12SAPS  C315 1584   4.551   5.559   7.812  0.1421  0.0663 -0.1048
   12SAPS  H15X 1585   4.659   5.568   7.837  0.7892 -0.2042 -2.6914
   12SAPS  H15Y 1586   4.544   5.504   7.716  2.5274 -2.5667  1.1530
   12SAPS  C316 1587   4.494   5.470   7.922  0.3539 -0.2963  0.9887
   12SAPS  H16X 1588   4.569   5.391   7.945  0.2931 -0.4698  0.5964
   12SAPS  H16Y 1589   4.396   5.430   7.888 -1.0602  4.1135 -0.4512
   12SAPS  C317 1590   4.481   5.551   8.049  0.3597 -0.3023  0.1695
   12SAPS  H17X 1591   4.398   5.623   8.034  1.3442  0.9705  0.7432
   12SAPS  H17Y 1592   4.575   5.608   8.068  1.7569 -2.5678  0.3077
   12SAPS  C318 1593   4.457   5.474   8.176 -0.7051  0.3035 -0.3214
   12SAPS  H18X 1594   4.442   5.545   8.259  3.0476 -0.6135  1.2557
   12SAPS  H18Y 1595   4.545   5.412   8.204  1.1933  2.9117 -0.2495
   12SAPS  H18Z 1596   4.368   5.409   8.163 -0.5938  0.0775  0.0425
   13SAPS     N 1597   4.801   2.804   5.812 -0.2367 -0.2173 -0.0423
   13SAPS   HN1 1598   4.769   2.883   5.871  2.6641  1.3344 -0.4781
   13SAPS   HN2 1599   4.904   2.806   5.807 -0.2499 -0.4320 -0.4026
   13SAPS   HN3 1600   4.765   2.826   5.717  0.4461 -0.6423 -0.4042
   13SAPS   C12 1601   4.757   2.667   5.850 -0.1382 -0.2325 -0.3553
   13SAPS  H12A 1602   4.650   2.667   5.862 -0.3046  0.6698 -1.7625
   13SAPS   C13 1603   4.790   2.555   5.745 -0.3773 -0.2488 -0.6036
   13SAPS  O13A 1604   4.870   2.566   5.648  0.1369 -0.4270 -0.0821
   13SAPS  O13B 1605   4.743   2.441   5.775 -0.0880 -0.1892  0.3180
   13SAPS   C11 1606   4.821   2.640   5.988  0.6708  0.2510  0.5427
   13SAPS  H11A 1607   4.929   2.644   5.964  0.3452  0.3749 -0.9398
   13SAPS  H11B 1608   4.787   2.542   6.028  1.4368  0.2613  1.2268
   13SAPS     P 1609   4.668   2.729   6.180 -0.6238  0.2431  0.2458
   13SAPS   O13 1610   4.671   2.835   6.281 -0.7255 -0.5440  0.4707
   13SAPS   O14 1611   4.542   2.715   6.102 -0.0632 -0.2324 -0.2613
   13SAPS   O12 1612   4.789   2.749   6.077  0.0055 -0.4431  0.0365
   13SAPS   O11 1613   4.713   2.594   6.250 -0.7384 -0.3351 -0.2518
   13SAPS    C1 1614   4.627   2.515   6.331  0.4119 -0.2906  0.7197
   13SAPS    HA 1615   4.522   2.551   6.326  0.5317 -0.2872 -4.1033
   13SAPS    HB 1616   4.633   2.411   6.292 -0.6305 -1.0324  2.4481
   13SAPS    C2 1617   4.665   2.501   6.483 -0.0995 -0.6532  0.1637
   13SAPS    HS 1618   4.579   2.445   6.525 -0.3785 -0.8059 -0.5968
   13SAPS   O21 1619   4.685   2.631   6.546 -0.1465 -0.3611 -0.5434
   13SAPS   C21 1620   4.574   2.694   6.568  0.5872  0.2528 -0.4718
   13SAPS   O22 1621   4.463   2.647   6.563  0.1915 -0.0131  0.1272
   13SAPS   C22 1622   4.613   2.827   6.626  0.4327 -0.6249  0.7437
   13SAPS   H2R 1623   4.692   2.805   6.701  3.3579  2.5483 -1.2548
   13SAPS   H2S 1624   4.658   2.896   6.551 -2.6945 -0.4874 -1.0693
   13SAPS    C3 1625   4.789   2.410   6.515  0.9796  0.7460 -0.3198
   13SAPS    HX 1626   4.874   2.447   6.455 -0.6563 -2.2231 -4.7996
   13SAPS    HY 1627   4.780   2.304   6.484  1.0067  0.8887 -0.8173
   13SAPS   O31 1628   4.828   2.428   6.654  0.0135 -0.8882  0.0626
   13SAPS   C31 1629   4.775   2.343   6.742 -0.1799  0.1781 -0.8748
   13SAPS   O32 1630   4.703   2.249   6.708  0.1508 -0.3814 -0.1213
   13SAPS   C32 1631   4.780   2.409   6.876  0.0525 -0.2912 -0.8558
   13SAPS   H2X 1632   4.687   2.469   6.879  0.7562  0.8189 -1.0847
   13SAPS   H2Y 1633   4.869   2.474   6.884  1.3516 -1.6155 -3.6387
   13SAPS   C23 1634   4.484   2.903   6.679 -0.7246  0.3534 -0.6723
   13SAPS   H3R 1635   4.402   2.904   6.604 -0.5015 -0.0135 -0.9227
   13SAPS   H3S 1636   4.515   3.004   6.711  0.3842 -0.3657  0.5512
   13SAPS   C24 1637   4.422   2.836   6.807 -0.4165  0.5517 -0.1725
   13SAPS   H4R 1638   4.504   2.810   6.878  0.7038 -0.1490 -1.7050
   13SAPS   H4S 1639   4.380   2.743   6.764 -0.1890  0.8155 -0.9580
   13SAPS   C25 1640   4.309   2.913   6.875 -0.5389 -0.0413  0.0444
   13SAPS   H5R 1641   4.233   2.943   6.802 -2.5771 -0.9642  1.7217
   13SAPS   C26 1642   4.303   2.974   6.994  0.8599 -0.1906 -0.3371
   13SAPS   H6R 1643   4.213   3.029   7.026  0.1644 -1.1746 -0.5894
   13SAPS   C27 1644   4.411   2.967   7.101 -0.2997 -0.0014  0.5164
   13SAPS   H7R 1645   4.421   3.059   7.163  0.8103  0.4315 -0.2838
   13SAPS   H7S 1646   4.509   2.956   7.049 -0.9887  0.6920 -0.9209
   13SAPS   C28 1647   4.374   2.852   7.195  0.2437  0.0603 -0.1665
   13SAPS   H8R 1648   4.314   2.772   7.149 -0.0473  0.3098 -0.2194
   13SAPS   C29 1649   4.392   2.847   7.327  0.3498 -0.9338 -0.8426
   13SAPS   H9R 1650   4.357   2.756   7.377  1.0467 -2.5910 -3.2812
   13SAPS  C210 1651   4.452   2.955   7.412 -0.5327  0.0786 -0.7732
   13SAPS  H10R 1652   4.501   3.035   7.352 -0.3593 -1.0372 -2.1476
   13SAPS  H10S 1653   4.535   2.903   7.464 -1.2028  0.1406  0.3712
   13SAPS  C211 1654   4.377   3.021   7.520  0.6200  0.3134  0.4143
   13SAPS  H11R 1655   4.379   3.131   7.518 -1.2164  0.3532  0.0849
   13SAPS  C212 1656   4.330   2.969   7.634 -0.1015  0.7139  0.3711
   13SAPS  H12R 1657   4.260   3.035   7.687  0.6717  0.4329  1.7661
   13SAPS  C213 1658   4.323   2.823   7.672 -0.9211 -0.1070 -0.8266
   13SAPS  H13R 1659   4.418   2.788   7.717  0.6446  2.9052 -1.6703
   13SAPS  H13S 1660   4.303   2.756   7.586  0.5489 -1.0833 -0.4166
   13SAPS  C214 1661   4.203   2.800   7.765  0.2644  0.5859 -0.5115
   13SAPS  H14R 1662   4.109   2.781   7.711  0.2047  2.7812 -1.2153
   13SAPS  C215 1663   4.202   2.808   7.898  0.3281 -0.2911 -0.5765
   13SAPS  H15R 1664   4.113   2.789   7.958 -0.2272 -1.3214 -1.6995
   13SAPS  C216 1665   4.322   2.840   7.986  0.1851 -0.4050 -0.7783
   13SAPS  H16R 1666   4.422   2.837   7.937  0.3027  0.2238 -0.5876
   13SAPS  H16S 1667   4.319   2.760   8.062  0.5254  0.3715  0.0615
   13SAPS  C217 1668   4.310   2.969   8.075 -0.5603  0.3294 -0.5760
   13SAPS  H17R 1669   4.204   2.965   8.106  0.1748  0.2062  1.9796
   13SAPS  H17S 1670   4.329   3.060   8.015  0.4027  1.1836  0.9996
   13SAPS  C218 1671   4.390   2.969   8.200  1.0691 -0.0489 -0.1343
   13SAPS  H18R 1672   4.500   2.977   8.184  1.0026  2.2339  0.3365
   13SAPS  H18S 1673   4.360   2.893   8.275  1.1943 -1.4258 -1.4584
   13SAPS  C219 1674   4.363   3.107   8.273  0.1014 -0.4453  0.2484
   13SAPS  H19R 1675   4.254   3.116   8.290  0.3844  0.9499  1.4141
   13SAPS  H19S 1676   4.397   3.187   8.204  3.0313 -2.7597 -1.1709
   13SAPS  C220 1677   4.440   3.105   8.403  0.2057  0.2638 -0.0062
   13SAPS  H20R 1678   4.416   3.017   8.466 -0.3526 -0.2714 -0.9631
   13SAPS  H20S 1679   4.419   3.198   8.460 -3.6844 -0.5881  0.0500
   13SAPS  H20T 1680   4.549   3.092   8.385  0.0113 -1.5588  0.1206
   13SAPS   C33 1681   4.788   2.297   6.984 -0.1534 -0.2538  0.4707
   13SAPS   H3X 1682   4.888   2.250   6.987 -0.0678 -0.4137 -2.9286
   13SAPS   H3Y 1683   4.717   2.214   6.967  1.1201 -1.3496  0.4452
   13SAPS   C34 1684   4.769   2.355   7.123 -0.4863 -0.1824 -0.5927
   13SAPS   H4X 1685   4.682   2.425   7.120 -1.7986 -1.6021  2.0910
   13SAPS   H4Y 1686   4.861   2.409   7.155 -0.0502 -1.7429  0.8804
   13SAPS   C35 1687   4.738   2.243   7.227 -0.8343 -0.4001 -0.3054
   13SAPS   H5X 1688   4.808   2.156   7.225  1.0719  1.0390  1.5423
   13SAPS   H5Y 1689   4.637   2.208   7.197 -1.6397  1.1861  0.5032
   13SAPS   C36 1690   4.734   2.305   7.374  0.1855 -0.0107  0.6442
   13SAPS   H6X 1691   4.641   2.365   7.382  0.4454  0.3028  1.4366
   13SAPS   H6Y 1692   4.823   2.371   7.376  0.6999 -0.5080 -3.0641
   13SAPS   C37 1693   4.753   2.190   7.475 -0.1123 -0.0355  0.2646
   13SAPS   H7X 1694   4.847   2.131   7.466 -1.5199 -2.2121 -0.6606
   13SAPS   H7Y 1695   4.695   2.103   7.436  0.7027 -0.4300 -0.0857
   13SAPS   C38 1696   4.735   2.223   7.619 -0.1723  0.0427 -0.7667
   13SAPS   H8X 1697   4.713   2.126   7.669 -0.2754  0.5111  0.1101
   13SAPS   H8Y 1698   4.653   2.298   7.625 -0.4964 -0.3505 -0.2011
   13SAPS   C39 1699   4.857   2.292   7.686  0.2789 -0.3469 -0.8695
   13SAPS   H9X 1700   4.839   2.398   7.658  0.4793 -0.6304 -2.1304
   13SAPS   H9Y 1701   4.936   2.238   7.630  0.2454  1.5721 -2.8711
   13SAPS  C310 1702   4.856   2.281   7.832 -0.7780 -0.3083  1.2027
   13SAPS  H10X 1703   4.951   2.332   7.858 -0.0771 -1.4221  0.8688
   13SAPS  H10Y 1704   4.849   2.173   7.857 -1.8451 -0.9817 -1.8160
   13SAPS  C311 1705   4.747   2.355   7.911  0.2531  0.1049  0.2797
   13SAPS  H11X 1706   4.648   2.311   7.884 -1.3630  2.9378  1.3894
   13SAPS  H11Y 1707   4.749   2.461   7.879 -1.3539  0.3208  0.8517
   13SAPS  C312 1708   4.753   2.342   8.060  0.7694 -0.0980  0.1959
   13SAPS  H12X 1709   4.698   2.247   8.082 -0.9086  0.9023  0.4413
   13SAPS  H12Y 1710   4.697   2.420   8.117  2.8038  1.4541  0.1379
   13SAPS  C313 1711   4.893   2.343   8.131  0.1878  0.1326  0.0706
   13SAPS  H13X 1712   4.952   2.433   8.104 -0.0460  0.4700  0.6919
   13SAPS  H13Y 1713   4.942   2.251   8.092 -1.4220 -0.5297 -0.4279
   13SAPS  C314 1714   4.879   2.337   8.282  0.3517 -0.1733 -0.0331
   13SAPS  H14X 1715   4.816   2.250   8.311  0.9821 -0.2891  0.9905
   13SAPS  H14Y 1716   4.833   2.428   8.325  0.2894 -0.9626  1.6018
   13SAPS  C315 1717   5.016   2.316   8.345  0.8700  0.2191  0.0763
   13SAPS  H15X 1718   5.087   2.391   8.304  0.1393  0.0228 -1.5795
   13SAPS  H15Y 1719   5.060   2.222   8.304  1.1101 -0.5895  2.1103
   13SAPS  C316 1720   5.005   2.332   8.502  0.3659 -0.5873 -0.1522
   13SAPS  H16X 1721   4.944   2.421   8.527 -1.5305 -2.1022  0.6995
   13SAPS  H16Y 1722   5.109   2.346   8.539  1.1908 -0.5696 -2.3895
   13SAPS  C317 1723   4.953   2.211   8.577 -0.5749 -0.6714 -0.1104
   13SAPS  H17X 1724   5.034   2.137   8.556  2.0101  1.6116  1.4760
   13SAPS  H17Y 1725   4.858   2.184   8.526 -0.4238 -1.0507 -0.1947
   13SAPS  C318 1726   4.934   2.228   8.725 -0.3192  0.0329  0.1082
   13SAPS  H18X 1727   5.034   2.261   8.762 -1.2001  1.1200  1.5920
   13SAPS  H18Y 1728   4.915   2.127   8.766  0.1685  0.0278  0.3326
   13SAPS  H18Z 1729   4.854   2.300   8.754  0.1585 -0.1645  1.9980
   14SAPS     N 1730   4.678   5.131   5.707  0.1199  0.4081 -0.5851
   14SAPS   HN1 1731   4.781   5.126   5.713  0.1636  0.4577 -1.3300
   14SAPS   HN2 1732   4.650   5.061   5.636  0.8058 -0.0152 -0.4319
   14SAPS   HN3 1733   4.644   5.221   5.666 -0.2884  0.3475 -0.3909
   14SAPS   C12 1734   4.614   5.097   5.835 -0.1163  0.2873  0.0920
   14SAPS  H12A 1735   4.631   5.178   5.904  0.2297 -0.0764  0.4458
   14SAPS   C13 1736   4.468   5.058   5.834  0.1224 -1.0948  0.1636
   14SAPS  O13A 1737   4.408   5.027   5.727  0.1185 -0.0226 -0.2960
   14SAPS  O13B 1738   4.409   5.075   5.942 -0.1125 -0.5999  0.0324
   14SAPS   C11 1739   4.701   4.972   5.896 -0.1005  0.7728 -0.0095
   14SAPS  H11A 1740   4.665   4.963   6.001  0.9149  1.4192  0.4030
   14SAPS  H11B 1741   4.809   4.999   5.894 -0.4082  2.0226  0.2276
   14SAPS     P 1742   4.760   4.722   5.865  0.4102 -0.1920 -0.4076
   14SAPS   O13 1743   4.690   4.606   5.803  0.2884 -0.1102  0.2356
   14SAPS   O14 1744   4.902   4.743   5.849  0.2622 -0.1818  0.6941
   14SAPS   O12 1745   4.673   4.851   5.828  0.2710 -0.1222 -0.6304
   14SAPS   O11 1746   4.733   4.706   6.020 -0.3782  0.2744  0.1700
   14SAPS    C1 1747   4.595   4.684   6.054 -0.1840 -0.0842  0.3330
   14SAPS    HA 1748   4.532   4.768   6.018  1.1311  0.2873 -1.1479
   14SAPS    HB 1749   4.566   4.590   6.003 -0.9317 -1.0640  2.5031
   14SAPS    C2 1750   4.571   4.664   6.208 -0.0827  0.2655  0.2002
   14SAPS    HS 1751   4.465   4.630   6.219 -0.2567  1.0855  1.1400
   14SAPS   O21 1752   4.617   4.783   6.280  0.3882 -0.2234 -0.3603
   14SAPS   C21 1753   4.545   4.802   6.390 -0.2303  0.5255  0.5786
   14SAPS   O22 1754   4.446   4.741   6.420  0.0352 -0.2356  0.1585
   14SAPS   C22 1755   4.620   4.894   6.491  0.3392 -0.2300 -0.5302
   14SAPS   H2R 1756   4.721   4.851   6.512  0.4932  0.8661  1.0219
   14SAPS   H2S 1757   4.653   4.984   6.434  1.4638  1.1528  2.2249
   14SAPS    C3 1758   4.656   4.548   6.265 -0.9758  0.0648  0.2332
   14SAPS    HX 1759   4.764   4.558   6.243 -0.9765 -2.4046 -1.0879
   14SAPS    HY 1760   4.627   4.460   6.203 -0.8548 -0.5777  1.0722
   14SAPS   O31 1761   4.625   4.520   6.403  0.1994  0.6240 -0.2787
   14SAPS   C31 1762   4.526   4.426   6.425 -0.3802  0.2976 -0.5164
   14SAPS   O32 1763   4.469   4.360   6.343 -0.5988 -0.1373 -0.0509
   14SAPS   C32 1764   4.494   4.414   6.568  0.5744  0.3073 -0.6902
   14SAPS   H2X 1765   4.564   4.475   6.629 -1.1483  3.0556 -1.4134
   14SAPS   H2Y 1766   4.509   4.308   6.599 -1.0683  0.6613  1.3487
   14SAPS   C23 1767   4.527   4.919   6.607 -0.0336  0.0415  0.4523
   14SAPS   H3R 1768   4.505   4.823   6.658 -0.2227 -0.3262 -0.3061
   14SAPS   H3S 1769   4.426   4.956   6.579  0.4863  0.2065 -1.2866
   14SAPS   C24 1770   4.591   5.013   6.709  0.1917 -0.7376  0.1827
   14SAPS   H4R 1771   4.688   4.965   6.737  0.5503  0.9826  1.9804
   14SAPS   H4S 1772   4.545   5.016   6.810 -2.5069  1.7347 -1.0519
   14SAPS   C25 1773   4.606   5.148   6.648 -0.2921 -0.0948 -0.2884
   14SAPS   H5R 1774   4.537   5.169   6.565  0.3661  0.8528 -0.6018
   14SAPS   C26 1775   4.701   5.239   6.681  0.0161  0.5867 -0.3964
   14SAPS   H6R 1776   4.697   5.336   6.630 -0.7857  0.4493 -0.6075
   14SAPS   C27 1777   4.813   5.226   6.792  0.2378  0.1636 -0.1811
   14SAPS   H7R 1778   4.914   5.205   6.749 -0.2088 -0.1584 -1.1024
   14SAPS   H7S 1779   4.798   5.139   6.860  1.5472  0.1475  0.1047
   14SAPS   C28 1780   4.822   5.337   6.892  0.4744  0.4706  0.4833
   14SAPS   H8R 1781   4.914   5.396   6.888  1.4920 -1.1987 -1.3604
   14SAPS   C29 1782   4.736   5.363   6.995  0.1386  0.7957 -0.6364
   14SAPS   H9R 1783   4.745   5.453   7.057 -0.4756 -1.4074  2.8698
   14SAPS  C210 1784   4.615   5.280   7.035 -0.4550 -0.2325  0.1516
   14SAPS  H10R 1785   4.659   5.194   7.090 -2.2744 -2.3148 -1.5908
   14SAPS  H10S 1786   4.553   5.244   6.951 -1.6544  1.3078  0.3533
   14SAPS  C211 1787   4.526   5.353   7.134 -0.0406  1.1212  0.4317
   14SAPS  H11R 1788   4.431   5.380   7.085 -0.1831 -0.5464 -0.2392
   14SAPS  C212 1789   4.532   5.382   7.265  0.7108 -0.4964  1.1185
   14SAPS  H12R 1790   4.452   5.444   7.308 -1.2139 -0.7123 -1.9858
   14SAPS  C213 1791   4.642   5.345   7.355 -0.4371 -0.2224 -0.6628
   14SAPS  H13R 1792   4.680   5.440   7.398  2.3595 -1.8289  0.5147
   14SAPS  H13S 1793   4.726   5.290   7.308 -0.0580  1.3210 -1.8115
   14SAPS  C214 1794   4.602   5.268   7.477  0.6059 -0.2556  0.2765
   14SAPS  H14R 1795   4.587   5.334   7.564 -1.1879 -1.3669  0.8301
   14SAPS  C215 1796   4.608   5.135   7.492 -0.6896  0.4011  0.7334
   14SAPS  H15R 1797   4.573   5.098   7.589 -1.1077 -2.2021 -0.3455
   14SAPS  C216 1798   4.651   5.031   7.386  0.2442 -0.5078  0.2019
   14SAPS  H16R 1799   4.741   4.976   7.423  0.1701 -0.3381  0.6396
   14SAPS  H16S 1800   4.677   5.085   7.293  2.5067 -1.7712  0.0670
   14SAPS  C217 1801   4.545   4.927   7.352  0.1800  0.1181 -0.5376
   14SAPS  H17R 1802   4.448   4.973   7.322  0.7353  0.9509 -1.0976
   14SAPS  H17S 1803   4.518   4.867   7.441  1.5019 -0.5262 -0.5598
   14SAPS  C218 1804   4.579   4.826   7.245 -0.7593 -0.0150 -0.5365
   14SAPS  H18R 1805   4.493   4.757   7.228 -0.8166 -0.1022  0.0641
   14SAPS  H18S 1806   4.663   4.762   7.280  0.2141  1.0238 -0.9465
   14SAPS  C219 1807   4.627   4.875   7.106 -0.2622  0.0862  0.5102
   14SAPS  H19R 1808   4.738   4.885   7.108 -0.4274  2.0724  0.6376
   14SAPS  H19S 1809   4.579   4.972   7.084 -1.4850 -0.6239 -0.0075
   14SAPS  C220 1810   4.592   4.773   6.999  0.2949  0.1018 -1.3234
   14SAPS  H20R 1811   4.503   4.785   6.933 -1.1324 -2.7323 -0.0062
   14SAPS  H20S 1812   4.572   4.675   7.048  1.9127  0.7346  0.6441
   14SAPS  H20T 1813   4.678   4.753   6.932  1.5820  0.4164  0.2135
   14SAPS   C33 1814   4.347   4.458   6.597  0.6059 -0.2317 -0.8322
   14SAPS   H3X 1815   4.293   4.382   6.537  1.2974  0.5384 -2.4684
   14SAPS   H3Y 1816   4.325   4.556   6.550 -0.1116  0.2403  0.4788
   14SAPS   C34 1817   4.312   4.444   6.751  1.1629 -0.3653  0.2930
   14SAPS   H4X 1818   4.210   4.485   6.758  1.5573  0.4356  1.3264
   14SAPS   H4Y 1819   4.379   4.505   6.815  1.6925 -1.4621  0.8037
   14SAPS   C35 1820   4.319   4.307   6.805 -0.0335  0.1181 -0.2220
   14SAPS   H5X 1821   4.424   4.270   6.796  0.5982  1.8383 -0.2491
   14SAPS   H5Y 1822   4.262   4.239   6.739  0.2927 -2.5882  2.2075
   14SAPS   C36 1823   4.273   4.318   6.948  0.0748 -0.0645  0.9117
   14SAPS   H6X 1824   4.281   4.222   7.003 -2.2871 -1.8292 -1.7316
   14SAPS   H6Y 1825   4.167   4.347   6.935 -0.1870 -1.6687 -0.6311
   14SAPS   C37 1826   4.340   4.424   7.040 -0.1643  0.4507  0.4972
   14SAPS   H7X 1827   4.311   4.526   7.007 -1.8368  0.0851  0.8044
   14SAPS   H7Y 1828   4.451   4.417   7.038 -0.2123 -0.1383 -0.7074
   14SAPS   C38 1829   4.309   4.401   7.193  0.2087  0.5288  0.3098
   14SAPS   H8X 1830   4.341   4.296   7.214 -2.2340 -0.5620 -1.1448
   14SAPS   H8Y 1831   4.199   4.403   7.212 -0.2786 -1.3607 -1.9645
   14SAPS   C39 1832   4.370   4.511   7.282  0.3824  0.2764 -0.2732
   14SAPS   H9X 1833   4.320   4.608   7.260  0.0694  1.1572  3.7881
   14SAPS   H9Y 1834   4.480   4.518   7.272  0.4261 -0.1415 -0.1185
   14SAPS  C310 1835   4.335   4.475   7.432  0.1663  0.3822  0.6167
   14SAPS  H10X 1836   4.376   4.378   7.469  0.2066  0.2235  0.1615
   14SAPS  H10Y 1837   4.226   4.464   7.445  0.0315  1.7312  0.6314
   14SAPS  C311 1838   4.379   4.584   7.533  0.3793  0.2404 -0.3917
   14SAPS  H11X 1839   4.338   4.684   7.504 -0.1371  0.1015 -0.1513
   14SAPS  H11Y 1840   4.490   4.586   7.531  0.3465  1.5475 -2.9458
   14SAPS  C312 1841   4.337   4.550   7.675  0.6404 -0.5025 -0.2661
   14SAPS  H12X 1842   4.360   4.445   7.703  0.4851  0.2309  2.7622
   14SAPS  H12Y 1843   4.228   4.564   7.687  0.5672 -2.3971  1.5868
   14SAPS  C313 1844   4.406   4.641   7.777  0.2006 -0.3534  0.1169
   14SAPS  H13X 1845   4.394   4.749   7.752  1.8496 -0.3045 -0.4926
   14SAPS  H13Y 1846   4.516   4.622   7.774  0.2340 -0.0356 -0.8410
   14SAPS  C314 1847   4.366   4.632   7.926  0.3600 -0.3900 -0.5390
   14SAPS  H14X 1848   4.368   4.527   7.962 -2.4391 -0.5067 -0.5947
   14SAPS  H14Y 1849   4.264   4.675   7.936  0.6039  0.2137 -0.5894
   14SAPS  C315 1850   4.463   4.711   8.019  0.0873 -0.4708 -0.9444
   14SAPS  H15X 1851   4.466   4.819   7.995 -0.9030 -0.2527 -0.1087
   14SAPS  H15Y 1852   4.565   4.670   8.002  0.2338 -1.0359  1.1606
   14SAPS  C316 1853   4.427   4.704   8.170 -0.2293  0.1655 -0.0265
   14SAPS  H16X 1854   4.522   4.735   8.217  1.1619 -2.9951 -0.6185
   14SAPS  H16Y 1855   4.407   4.596   8.191 -1.0983  0.4400  0.5900
   14SAPS  C317 1856   4.303   4.788   8.217 -0.0583 -0.1240 -0.4313
   14SAPS  H17X 1857   4.228   4.770   8.137 -0.3605  0.2006 -0.2219
   14SAPS  H17Y 1858   4.332   4.895   8.219  0.6195 -0.3243  1.7895
   14SAPS  C318 1859   4.264   4.747   8.354  0.2779 -1.3299 -0.3870
   14SAPS  H18X 1860   4.205   4.653   8.355 -0.0532 -1.1600 -1.9800
   14SAPS  H18Y 1861   4.190   4.823   8.387 -1.3160 -1.7918 -2.7463
   14SAPS  H18Z 1862   4.352   4.742   8.421 -1.4752 -2.2233  1.9407
   15SAPS     N 1863   5.224   5.087   5.800 -0.0722 -0.3176 -0.5676
   15SAPS   HN1 1864   5.176   5.002   5.764  3.4363 -1.2024 -3.3811
   15SAPS   HN2 1865   5.228   5.157   5.724  1.9007 -0.1289 -0.3032
   15SAPS   HN3 1866   5.317   5.056   5.832 -0.6712 -1.3419  0.2190
   15SAPS   C12 1867   5.141   5.136   5.918  0.1570 -0.0877 -0.4076
   15SAPS  H12A 1868   5.197   5.213   5.969 -1.0261 -0.0919  0.9407
   15SAPS   C13 1869   5.005   5.191   5.876  0.2878 -0.4170 -0.5446
   15SAPS  O13A 1870   4.956   5.168   5.762 -0.3184 -0.8502 -0.7200
   15SAPS  O13B 1871   4.939   5.261   5.963 -0.1816 -0.3943 -0.4932
   15SAPS   C11 1872   5.124   5.008   6.013 -0.3330 -0.7748  0.5200
   15SAPS  H11A 1873   5.060   4.938   5.956 -1.0221  1.3220 -1.3702
   15SAPS  H11B 1874   5.086   5.051   6.108 -1.3155  0.8454 -0.5807
   15SAPS     P 1875   5.277   4.827   6.129  0.0425 -0.3883  0.1069
   15SAPS   O13 1876   5.349   4.728   6.042  0.4446  0.0153  0.4509
   15SAPS   O14 1877   5.351   4.863   6.253 -0.1232  0.0410 -0.5477
   15SAPS   O12 1878   5.248   4.950   6.037  0.5767  0.0348  0.8017
   15SAPS   O11 1879   5.126   4.780   6.179 -0.1140 -0.2777  0.0484
   15SAPS    C1 1880   5.107   4.638   6.213 -0.4446 -0.1110  0.2015
   15SAPS    HA 1881   4.999   4.624   6.233 -0.9342  1.8531 -0.9588
   15SAPS    HB 1882   5.135   4.569   6.130  0.3561  1.9049 -1.2286
   15SAPS    C2 1883   5.172   4.590   6.343  0.5349 -0.1645 -0.2239
   15SAPS    HS 1884   5.279   4.572   6.318 -0.1395 -2.9436 -1.3047
   15SAPS   O21 1885   5.106   4.474   6.380 -0.5136 -0.3871  0.3481
   15SAPS   C21 1886   5.165   4.370   6.427  0.6185 -0.0912  0.4795
   15SAPS   O22 1887   5.284   4.363   6.452 -0.4488 -0.4544  0.0639
   15SAPS   C22 1888   5.063   4.262   6.427 -0.0143  0.4415  0.0169
   15SAPS   H2R 1889   5.027   4.234   6.326  1.5267  0.6081 -0.5902
   15SAPS   H2S 1890   5.114   4.175   6.475 -2.7697  0.1258  2.5210
   15SAPS    C3 1891   5.150   4.687   6.466  0.2169  0.0677  0.4718
   15SAPS    HX 1892   5.044   4.682   6.498 -0.0648  0.5140 -0.3837
   15SAPS    HY 1893   5.164   4.792   6.432  0.0634 -0.2183 -0.4837
   15SAPS   O31 1894   5.233   4.652   6.575 -0.0265  0.2023 -0.2170
   15SAPS   C31 1895   5.298   4.746   6.639 -0.0687  0.1801 -0.3962
   15SAPS   O32 1896   5.302   4.867   6.612 -0.3261 -0.6081  0.3050
   15SAPS   C32 1897   5.372   4.680   6.746  0.3530 -0.0344 -0.2549
   15SAPS   H2X 1898   5.465   4.634   6.705  1.0410 -1.8431  3.1319
   15SAPS   H2Y 1899   5.306   4.621   6.812  1.3789  1.0405  1.7764
   15SAPS   C23 1900   4.935   4.296   6.503  0.6086  0.0282  0.1764
   15SAPS   H3R 1901   4.873   4.204   6.502 -0.2026  0.5530 -2.0135
   15SAPS   H3S 1902   4.871   4.378   6.463 -0.0234 -0.3578  0.4056
   15SAPS   C24 1903   4.967   4.316   6.655  0.5538 -0.2612  0.3185
   15SAPS   H4R 1904   5.047   4.393   6.659  0.6700 -0.3002 -1.1050
   15SAPS   H4S 1905   5.007   4.218   6.689  3.9983  1.0132  0.0636
   15SAPS   C25 1906   4.838   4.368   6.720  0.0835  0.1288  0.0617
   15SAPS   H5R 1907   4.748   4.305   6.708 -0.0351  0.7497 -2.5392
   15SAPS   C26 1908   4.816   4.473   6.792 -0.8482  0.5786  0.5608
   15SAPS   H6R 1909   4.711   4.489   6.820 -0.6823  2.3686  0.2715
   15SAPS   C27 1910   4.920   4.567   6.850  0.0863  0.3917  0.1506
   15SAPS   H7R 1911   5.022   4.524   6.845 -1.0109 -2.4747  1.6131
   15SAPS   H7S 1912   4.897   4.600   6.954  1.1413  2.7110 -0.3042
   15SAPS   C28 1913   4.943   4.696   6.776  0.4815 -0.0619 -0.1257
   15SAPS   H8R 1914   4.895   4.701   6.678 -2.0356  1.2360  1.1370
   15SAPS   C29 1915   5.000   4.810   6.828 -0.2454  0.1678  0.4860
   15SAPS   H9R 1916   5.028   4.888   6.756  0.9185 -0.9333 -0.2844
   15SAPS  C210 1917   5.060   4.836   6.964 -0.8008 -0.0771  0.1437
   15SAPS  H10R 1918   5.138   4.758   6.978 -0.5851 -0.5571 -3.2430
   15SAPS  H10S 1919   4.979   4.823   7.039 -1.1309 -0.6334 -0.3030
   15SAPS  C211 1920   5.127   4.973   6.972  0.1742 -0.4523 -0.0759
   15SAPS  H11R 1921   5.197   4.997   6.890 -1.1707 -0.0722 -1.1206
   15SAPS  C212 1922   5.113   5.070   7.065 -0.4460 -0.4950  0.0094
   15SAPS  H12R 1923   5.160   5.165   7.036  0.1645 -0.6451  0.4792
   15SAPS  C213 1924   5.019   5.067   7.187 -0.3531  0.4043 -0.1240
   15SAPS  H13R 1925   4.954   4.977   7.181  1.9347 -1.2436 -0.8133
   15SAPS  H13S 1926   4.963   5.163   7.189  0.5884  0.9504  1.3284
   15SAPS  C214 1927   5.101   5.041   7.308  0.1023  0.4406  0.4069
   15SAPS  H14R 1928   5.184   4.974   7.281 -1.7201 -0.9321 -2.0234
   15SAPS  C215 1929   5.088   5.068   7.441  0.0743  0.0031 -0.1595
   15SAPS  H15R 1930   5.167   5.032   7.508  1.1641 -2.3615 -2.6418
   15SAPS  C216 1931   4.980   5.151   7.509  0.0638  0.2460  0.0053
   15SAPS  H16R 1932   4.915   5.088   7.574 -0.3509  1.5466  0.8721
   15SAPS  H16S 1933   4.912   5.198   7.435  0.3879 -1.1511 -1.1962
   15SAPS  C217 1934   5.035   5.259   7.603 -0.5945  0.0672  0.7316
   15SAPS  H17R 1935   5.122   5.312   7.560  0.5389 -2.1035  0.2495
   15SAPS  H17S 1936   5.075   5.195   7.685 -0.5717 -2.9378 -1.5374
   15SAPS  C218 1937   4.923   5.351   7.644  0.1520  0.2290 -0.1233
   15SAPS  H18R 1938   4.852   5.297   7.711  0.0518 -0.5229 -0.8215
   15SAPS  H18S 1939   4.866   5.385   7.554  0.6318 -1.7076 -1.1884
   15SAPS  C219 1940   4.974   5.460   7.746 -0.2267 -0.7115 -0.9262
   15SAPS  H19R 1941   4.916   5.555   7.740  0.1093 -0.3135  1.8327
   15SAPS  H19S 1942   5.076   5.498   7.728 -0.1306  0.4309  1.7923
   15SAPS  C220 1943   4.977   5.411   7.896  0.7475  0.5600  0.1866
   15SAPS  H20R 1944   5.035   5.483   7.957  0.5951 -1.1489  2.3901
   15SAPS  H20S 1945   5.018   5.308   7.903 -1.0459 -0.0544  2.0001
   15SAPS  H20T 1946   4.871   5.407   7.929  0.2376 -0.8646 -1.5651
   15SAPS   C33 1947   5.439   4.789   6.836  0.5177  0.4125  0.3083
   15SAPS   H3X 1948   5.363   4.865   6.864 -0.4575 -0.5092  0.2253
   15SAPS   H3Y 1949   5.509   4.842   6.768 -0.7097 -1.3401 -2.4132
   15SAPS   C34 1950   5.501   4.732   6.962  0.3057 -0.0014  0.0508
   15SAPS   H4X 1951   5.605   4.697   6.946  1.0596  0.3176  3.8166
   15SAPS   H4Y 1952   5.460   4.633   6.992  0.6158  0.1205  0.8814
   15SAPS   C35 1953   5.492   4.823   7.082  0.1955  0.5312 -0.5026
   15SAPS   H5X 1954   5.551   4.781   7.166 -0.5193  0.7677  0.1188
   15SAPS   H5Y 1955   5.384   4.843   7.100  0.2150  1.1764 -1.0684
   15SAPS   C36 1956   5.547   4.965   7.053  0.0185  0.1696 -0.1089
   15SAPS   H6X 1957   5.472   5.021   6.994  1.5569  2.0430 -0.3440
   15SAPS   H6Y 1958   5.642   4.964   6.995  0.5565  1.1816  0.7378
   15SAPS   C37 1959   5.559   5.053   7.179  0.8953 -0.0143 -0.3907
   15SAPS   H7X 1960   5.592   5.153   7.143  0.3637 -0.4514 -2.1293
   15SAPS   H7Y 1961   5.646   5.021   7.241  1.3866  0.8693 -0.6116
   15SAPS   C38 1962   5.433   5.061   7.268 -0.1504 -0.1280  0.2611
   15SAPS   H8X 1963   5.432   4.973   7.336  0.0849 -0.3903 -0.0674
   15SAPS   H8Y 1964   5.347   5.064   7.197 -0.0422 -1.7523  0.0431
   15SAPS   C39 1965   5.437   5.188   7.367  0.5121  0.0886 -0.1242
   15SAPS   H9X 1966   5.358   5.176   7.444  1.6166  3.9639  1.7508
   15SAPS   H9Y 1967   5.415   5.281   7.309 -0.3052  0.6062  1.0068
   15SAPS  C310 1968   5.571   5.210   7.440 -0.7929 -0.6201  0.1350
   15SAPS  H10X 1969   5.651   5.221   7.363 -0.5717 -0.1480  0.4269
   15SAPS  H10Y 1970   5.589   5.124   7.508 -0.9158 -0.1697  0.7427
   15SAPS  C311 1971   5.559   5.330   7.546  0.0471  0.2803  0.6438
   15SAPS  H11X 1972   5.500   5.415   7.506 -0.0840 -1.0013 -1.9683
   15SAPS  H11Y 1973   5.663   5.364   7.566 -0.2915  0.7850  1.5911
   15SAPS  C312 1974   5.495   5.296   7.685  0.1600 -0.5449  0.4540
   15SAPS  H12X 1975   5.544   5.209   7.733  0.1063 -1.1037 -0.4858
   15SAPS  H12Y 1976   5.390   5.268   7.664  0.1353 -0.1458  0.0465
   15SAPS  C313 1977   5.508   5.426   7.774  0.1637 -0.1075  0.3746
   15SAPS  H13X 1978   5.444   5.498   7.719  0.8442  0.5622  0.4627
   15SAPS  H13Y 1979   5.613   5.462   7.780  0.8578 -2.3190  2.5016
   15SAPS  C314 1980   5.444   5.410   7.912 -0.6083  0.5494  0.1421
   15SAPS  H14X 1981   5.349   5.353   7.911 -0.0140 -0.4928  1.0662
   15SAPS  H14Y 1982   5.414   5.510   7.951 -0.9529  0.3107  0.4938
   15SAPS  C315 1983   5.539   5.355   8.027 -0.8073 -0.0254 -1.3092
   15SAPS  H15X 1984   5.631   5.418   8.025  0.9204 -2.4488 -0.1697
   15SAPS  H15Y 1985   5.573   5.254   7.994 -1.8411 -0.5759 -0.6794
   15SAPS  C316 1986   5.467   5.336   8.162  0.1630 -0.2444  0.4804
   15SAPS  H16X 1987   5.367   5.287   8.157  0.2482 -0.2351 -2.3128
   15SAPS  H16Y 1988   5.463   5.437   8.208  1.0208  0.6591 -1.3608
   15SAPS  C317 1989   5.553   5.240   8.259 -0.5396 -0.1791  1.1468
   15SAPS  H17X 1990   5.605   5.170   8.190  0.7227 -0.0741  1.9850
   15SAPS  H17Y 1991   5.481   5.182   8.321 -0.8745  0.3898  1.2973
   15SAPS  C318 1992   5.652   5.311   8.351 -0.6028 -0.3339  0.2094
   15SAPS  H18X 1993   5.712   5.386   8.295 -1.1872 -1.5851 -2.1555
   15SAPS  H18Y 1994   5.712   5.228   8.394 -1.2169 -0.0814  1.5722
   15SAPS  H18Z 1995   5.590   5.357   8.431 -2.1457  1.2760 -1.8572
   16SAPS     N 1996   6.790   6.243   6.306 -0.3001 -0.2289 -0.5020
   16SAPS   HN1 1997   6.706   6.185   6.325 -1.0239  0.3598 -1.7988
   16SAPS   HN2 1998   6.773   6.346   6.305 -2.6934 -0.6033 -0.4847
   16SAPS   HN3 1999   6.822   6.215   6.211 -0.1004  1.9982 -1.1295
   16SAPS   C12 2000   6.895   6.213   6.409  0.1341 -0.2925  0.4972
   16SAPS  H12A 2001   6.847   6.143   6.476 -0.4302  0.1125  0.5166
   16SAPS   C13 2002   7.020   6.143   6.349 -0.1117 -0.4897 -0.0578
   16SAPS  O13A 2003   7.032   6.139   6.223 -0.3632  0.0249  0.2203
   16SAPS  O13B 2004   7.111   6.102   6.423  0.0812 -0.3337 -0.5008
   16SAPS   C11 2005   6.937   6.340   6.490  0.0789  0.1448 -0.5215
   16SAPS  H11A 2006   6.995   6.399   6.416  1.9683 -1.0119 -0.0029
   16SAPS  H11B 2007   7.010   6.316   6.571 -1.3711  3.6019  1.9116
   16SAPS     P 2008   6.796   6.420   6.693 -0.0954 -0.1383  0.1110
   16SAPS   O13 2009   6.918   6.470   6.758 -0.7669 -0.4664 -0.0418
   16SAPS   O14 2010   6.674   6.498   6.725 -0.1092 -0.1825 -0.9069
   16SAPS   O12 2011   6.819   6.411   6.537  0.2507  0.4148 -0.4429
   16SAPS   O11 2012   6.768   6.271   6.720  0.0606 -0.1253 -0.4012
   16SAPS    C1 2013   6.636   6.229   6.703  0.8176 -1.0128 -0.0388
   16SAPS    HA 2014   6.567   6.288   6.640  2.9437  1.1166 -0.4517
   16SAPS    HB 2015   6.634   6.125   6.663  0.2293  0.4927 -4.0516
   16SAPS    C2 2016   6.562   6.209   6.844  0.1671  0.8040  0.3500
   16SAPS    HS 2017   6.564   6.307   6.896  1.6948 -0.5378  2.9808
   16SAPS   O21 2018   6.643   6.119   6.935 -0.7762  0.2017  0.5289
   16SAPS   C21 2019   6.626   6.142   7.068  0.1125 -0.5742  0.2057
   16SAPS   O22 2020   6.564   6.235   7.115 -1.0625  0.7597 -0.4364
   16SAPS   C22 2021   6.716   6.042   7.148 -0.2234 -0.0985  0.1638
   16SAPS   H2R 2022   6.647   5.987   7.215  0.1936 -0.2158  0.4977
   16SAPS   H2S 2023   6.764   5.976   7.072  1.3662  1.7489 -0.4597
   16SAPS    C3 2024   6.416   6.161   6.838  0.3919 -0.0618 -0.8006
   16SAPS    HX 2025   6.418   6.050   6.834 -1.0028 -0.1775  0.9041
   16SAPS    HY 2026   6.361   6.182   6.744 -1.4098  0.8415  0.4291
   16SAPS   O31 2027   6.342   6.195   6.958 -0.3396  0.0963  0.1007
   16SAPS   C31 2028   6.302   6.325   6.973 -0.4257  0.6533  0.1367
   16SAPS   O32 2029   6.336   6.407   6.891 -0.0162  0.1239  0.5665
   16SAPS   C32 2030   6.222   6.330   7.099  0.1281  0.0427 -0.2654
   16SAPS   H2X 2031   6.222   6.233   7.152  1.8894 -1.0617 -2.2158
   16SAPS   H2Y 2032   6.120   6.359   7.065  0.4120 -0.3610 -1.5178
   16SAPS   C23 2033   6.825   6.121   7.229 -0.3538  0.2124  0.0866
   16SAPS   H3R 2034   6.777   6.176   7.312  0.1808 -1.4378  1.5295
   16SAPS   H3S 2035   6.868   6.202   7.166  1.7276 -0.3625  0.7363
   16SAPS   C24 2036   6.942   6.027   7.258  0.2856  0.1763  0.2209
   16SAPS   H4R 2037   7.036   6.084   7.272  0.8273 -0.5994 -0.2833
   16SAPS   H4S 2038   6.963   5.969   7.166  0.2214 -0.4309  0.5859
   16SAPS   C25 2039   6.899   5.940   7.369  0.1380  0.2407  0.2146
   16SAPS   H5R 2040   6.799   5.896   7.353 -0.5211  1.8595 -0.2171
   16SAPS   C26 2041   6.961   5.913   7.489 -1.1084 -0.6945 -0.5929
   16SAPS   H6R 2042   6.925   5.843   7.566  0.0681  1.4796  1.9839
   16SAPS   C27 2043   7.094   5.973   7.535 -0.6037  0.3368 -0.2464
   16SAPS   H7R 2044   7.067   6.031   7.626  0.7188 -0.3266  0.5887
   16SAPS   H7S 2045   7.128   6.041   7.454 -0.6293  0.0043 -0.5366
   16SAPS   C28 2046   7.201   5.877   7.577 -0.2574 -0.1651  0.2423
   16SAPS   H8R 2047   7.281   5.849   7.507 -0.9729  0.5079 -0.8393
   16SAPS   C29 2048   7.217   5.819   7.699 -0.1043 -0.0268 -0.2377
   16SAPS   H9R 2049   7.296   5.743   7.701 -0.2932 -0.2134  4.8949
   16SAPS  C210 2050   7.135   5.822   7.823  0.5355 -0.1568 -0.2720
   16SAPS  H10R 2051   7.145   5.731   7.886  2.2591 -0.7278 -1.3314
   16SAPS  H10S 2052   7.027   5.828   7.796  0.8440  2.8932 -1.0644
   16SAPS  C211 2053   7.178   5.937   7.909  0.1741 -0.3286  0.1639
   16SAPS  H11R 2054   7.177   6.032   7.854 -0.6212 -0.3783  0.0968
   16SAPS  C212 2055   7.228   5.937   8.033 -0.6602  0.4312 -0.1620
   16SAPS  H12R 2056   7.253   6.031   8.083  1.1026  0.7840 -1.6680
   16SAPS  C213 2057   7.258   5.804   8.097  0.3371 -0.0911  0.0309
   16SAPS  H13R 2058   7.338   5.824   8.172  0.9443 -0.3596 -0.5388
   16SAPS  H13S 2059   7.301   5.729   8.027 -0.3888 -1.0500  0.5942
   16SAPS  C214 2060   7.128   5.753   8.156 -0.2817  0.5850 -0.3111
   16SAPS  H14R 2061   7.054   5.710   8.087  1.5220 -0.0126 -1.8919
   16SAPS  C215 2062   7.105   5.750   8.285 -0.7416  0.2174  0.2218
   16SAPS  H15R 2063   7.012   5.703   8.319  0.4262 -1.5671  1.0550
   16SAPS  C216 2064   7.200   5.790   8.398  0.2971 -0.3108  0.2469
   16SAPS  H16R 2065   7.292   5.842   8.362 -0.1295 -0.2512 -0.7707
   16SAPS  H16S 2066   7.237   5.701   8.453  1.4446  0.2807  0.4532
   16SAPS  C217 2067   7.144   5.882   8.507 -0.3096  0.1829 -0.5922
   16SAPS  H17R 2068   7.052   5.845   8.558  0.5559  0.1701  0.9684
   16SAPS  H17S 2069   7.110   5.980   8.466  1.5906  0.2652 -2.0007
   16SAPS  C218 2070   7.252   5.902   8.620  0.2081 -0.2230  0.7085
   16SAPS  H18R 2071   7.354   5.933   8.591  0.0938  2.7389  3.2580
   16SAPS  H18S 2072   7.251   5.806   8.677  2.5906 -0.7736 -0.1072
   16SAPS  C219 2073   7.202   6.009   8.717 -0.7830  0.0370 -0.1718
   16SAPS  H19R 2074   7.274   6.009   8.802 -1.5920 -1.5586  0.5421
   16SAPS  H19S 2075   7.105   5.980   8.761 -0.2467  1.3350  1.9058
   16SAPS  C220 2076   7.197   6.144   8.645  0.9993  0.1511 -0.7318
   16SAPS  H20R 2077   7.178   6.233   8.710  1.1962  1.2116 -2.1184
   16SAPS  H20S 2078   7.113   6.150   8.572  0.5033 -0.7208 -0.2376
   16SAPS  H20T 2079   7.286   6.163   8.583 -0.4859  0.5927 -2.7761
   16SAPS   C33 2080   6.272   6.439   7.197 -0.2157 -0.2004 -0.1656
   16SAPS   H3X 2081   6.288   6.540   7.153 -0.6891  0.3540  0.8928
   16SAPS   H3Y 2082   6.371   6.405   7.234  0.0342  1.1727  0.4585
   16SAPS   C34 2083   6.173   6.448   7.312  0.1742 -0.4063  0.8046
   16SAPS   H4X 2084   6.134   6.345   7.323  0.8824 -0.5280  2.3634
   16SAPS   H4Y 2085   6.082   6.498   7.272  1.0471  1.6500  1.2997
   16SAPS   C35 2086   6.220   6.525   7.439  0.7139 -0.4648  0.3835
   16SAPS   H5X 2087   6.133   6.522   7.507  0.7734  1.7763  0.6071
   16SAPS   H5Y 2088   6.240   6.629   7.405 -1.1391 -0.7130 -1.5870
   16SAPS   C36 2089   6.342   6.448   7.507 -0.1617 -0.6312 -0.2404
   16SAPS   H6X 2090   6.362   6.508   7.598  1.1699 -0.3176 -0.7331
   16SAPS   H6Y 2091   6.438   6.454   7.451  0.8087 -0.1341  1.4344
   16SAPS   C37 2092   6.305   6.304   7.541  0.0566  0.6015 -0.4331
   16SAPS   H7X 2093   6.304   6.249   7.444  0.7897  0.5839 -0.4333
   16SAPS   H7Y 2094   6.204   6.286   7.583 -0.0612  0.7956 -0.6350
   16SAPS   C38 2095   6.410   6.229   7.635 -0.4243 -0.2734  0.1440
   16SAPS   H8X 2096   6.372   6.125   7.650 -0.9958 -0.0152  0.5285
   16SAPS   H8Y 2097   6.428   6.274   7.735 -2.2197  0.0277  0.3470
   16SAPS   C39 2098   6.551   6.221   7.564  0.1884 -0.8527  0.6066
   16SAPS   H9X 2099   6.605   6.317   7.576 -0.1240 -0.5598 -0.3124
   16SAPS   H9Y 2100   6.537   6.203   7.456  0.6845  0.7347  0.2612
   16SAPS  C310 2101   6.634   6.100   7.610  0.3335 -0.1327 -0.1909
   16SAPS  H10X 2102   6.732   6.093   7.558  0.7441  0.1296  0.5403
   16SAPS  H10Y 2103   6.575   6.010   7.581  1.5063 -0.9221 -0.1465
   16SAPS  C311 2104   6.665   6.099   7.759 -0.1325 -0.5158 -0.8283
   16SAPS  H11X 2105   6.575   6.111   7.824  0.2710 -0.5140 -0.2650
   16SAPS  H11Y 2106   6.714   6.197   7.782 -3.4536  0.9309  0.4417
   16SAPS  C312 2107   6.759   5.987   7.798  0.4134  0.1861 -0.3125
   16SAPS  H12X 2108   6.855   6.005   7.745 -0.4134  1.6528 -1.3727
   16SAPS  H12Y 2109   6.730   5.886   7.762 -0.0383  0.7329 -1.5289
   16SAPS  C313 2110   6.786   5.986   7.950  0.5924  0.1089 -0.3575
   16SAPS  H13X 2111   6.778   6.092   7.981  1.1075 -0.1629  0.7372
   16SAPS  H13Y 2112   6.892   5.961   7.970  0.5940  0.8505  0.5878
   16SAPS  C314 2113   6.694   5.901   8.038  0.7416  0.6072  1.0139
   16SAPS  H14X 2114   6.681   5.797   8.003  0.7337  0.3541  1.7685
   16SAPS  H14Y 2115   6.592   5.945   8.039  0.6916  0.5791 -0.8486
   16SAPS  C315 2116   6.729   5.901   8.185  0.5589 -0.0512 -0.0299
   16SAPS  H15X 2117   6.727   6.008   8.216  0.4204 -0.2871  0.7715
   16SAPS  H15Y 2118   6.828   5.855   8.202  0.1408 -0.7641  0.4890
   16SAPS  C316 2119   6.630   5.821   8.265 -0.3394  0.1576  0.1479
   16SAPS  H16X 2120   6.644   5.715   8.235 -0.2068 -0.5847  2.7000
   16SAPS  H16Y 2121   6.533   5.865   8.233 -0.0747 -0.9249 -2.2486
   16SAPS  C317 2122   6.660   5.830   8.411 -1.0470  0.0611  0.1494
   16SAPS  H17X 2123   6.661   5.937   8.440 -0.7284 -0.1660  1.0066
   16SAPS  H17Y 2124   6.766   5.801   8.430 -0.1364  0.8668 -3.2822
   16SAPS  C318 2125   6.573   5.745   8.499 -0.2441 -0.6713 -0.3590
   16SAPS  H18X 2126   6.608   5.736   8.604  0.7838  0.8197 -0.5530
   16SAPS  H18Y 2127   6.574   5.640   8.463  0.7791 -0.5681 -0.6475
   16SAPS  H18Z 2128   6.469   5.785   8.505  1.2253  3.1669  1.4355
   17SAPC     N 2129   5.185   2.039  10.561 -0.4780  0.2322 -0.0978
   17SAPC   C12 2130   5.233   1.893  10.533 -0.8832  0.3102 -0.1017
   17SAPC  H12A 2131   5.193   1.833  10.613 -1.4439  0.3129 -0.3758
   17SAPC  H12B 2132   5.340   1.881  10.548 -1.0483  0.9916  1.8260
   17SAPC   C13 2133   5.040   2.057  10.542 -0.3488 -0.4084 -0.6178
   17SAPC  H13A 2134   5.018   2.161  10.561 -1.2705 -0.1922 -2.7516
   17SAPC  H13B 2135   5.013   2.038  10.440 -0.9785  1.1593 -0.7567
   17SAPC  H13C 2136   4.983   2.003  10.616 -0.2692  2.2574  1.4786
   17SAPC   C14 2137   5.231   2.065  10.698  0.7445  0.0327 -0.6996
   17SAPC  H14A 2138   5.204   1.985  10.765 -1.8452 -0.4071 -2.2011
   17SAPC  H14B 2139   5.338   2.076  10.706  0.5467  1.3786  0.2783
   17SAPC  H14C 2140   5.197   2.162  10.731 -0.3508 -0.5226 -0.2000
   17SAPC   C15 2141   5.255   2.129  10.463  0.3305  0.2999 -1.0480
   17SAPC  H15A 2142   5.360   2.128  10.492 -0.1366 -2.9573  0.8807
   17SAPC  H15B 2143   5.236   2.076  10.371  2.2732 -3.2996  0.4770
   17SAPC  H15C 2144   5.224   2.232  10.461 -0.8546 -0.0735 -2.7066
   17SAPC   C11 2145   5.191   1.828  10.400  0.1816 -0.0351  0.5953
   17SAPC  H11A 2146   5.255   1.740  10.380 -0.9729 -0.7414 -0.0299
   17SAPC  H11B 2147   5.210   1.902  10.319 -1.2693 -1.3142 -0.9753
   17SAPC     P 2148   5.005   1.670  10.478  0.3463  0.7736 -0.3543
   17SAPC   O13 2149   5.106   1.625  10.584  0.0078  0.2767 -0.2876
   17SAPC   O14 2150   4.872   1.696  10.533 -1.0426  0.0291  0.7498
   17SAPC   O12 2151   5.052   1.799  10.402 -0.3889 -0.1402  0.0228
   17SAPC   O11 2152   5.000   1.561  10.370  0.1370 -0.2197 -0.0473
   17SAPC    C1 2153   4.912   1.592  10.257  0.3603  0.3700  0.0949
   17SAPC    HA 2154   4.826   1.657  10.284 -1.1473 -0.7222 -1.9376
   17SAPC    HB 2155   4.968   1.645  10.177  0.8412  1.8529  1.4080
   17SAPC    C2 2156   4.865   1.461  10.195  0.2685  0.4210  0.8167
   17SAPC    HS 2157   4.950   1.391  10.182 -1.4900 -1.3720 -1.7415
   17SAPC   O21 2158   4.829   1.498  10.058 -1.0581  0.2172 -0.2685
   17SAPC   C21 2159   4.825   1.400   9.972  0.5409 -0.0602  0.4159
   17SAPC   O22 2160   4.852   1.282   9.988 -0.1160  0.2617  0.1508
   17SAPC   C22 2161   4.800   1.467   9.834  0.0586  0.0589  0.4934
   17SAPC   H2R 2162   4.707   1.527   9.837 -1.1043 -1.5859 -1.9560
   17SAPC   H2S 2163   4.890   1.530   9.819  1.9642 -2.4879  0.8555
   17SAPC    C3 2164   4.750   1.380  10.258  0.0814  0.4716  0.4252
   17SAPC    HX 2165   4.788   1.338  10.354 -0.0681  1.2229  0.8098
   17SAPC    HY 2166   4.719   1.293  10.196 -1.5080 -1.1695  3.4754
   17SAPC   O31 2167   4.637   1.466  10.293 -0.0725  0.9518  0.1813
   17SAPC   C31 2168   4.537   1.477  10.205 -0.4521 -0.0422 -0.5640
   17SAPC   O32 2169   4.540   1.423  10.094 -0.3960 -0.5717 -0.1289
   17SAPC   C32 2170   4.430   1.564  10.257  0.2510 -0.2950 -0.1686
   17SAPC   H2X 2171   4.374   1.525  10.344 -1.3362  1.6076 -0.2969
   17SAPC   H2Y 2172   4.354   1.574  10.176  0.7852  0.4150 -0.5866
   17SAPC   C23 2173   4.797   1.365   9.716  0.0273  0.4573 -0.4683
   17SAPC   H3R 2174   4.890   1.305   9.712 -0.9300 -1.1127  0.0408
   17SAPC   H3S 2175   4.785   1.422   9.622  1.3174  0.1471 -0.8195
   17SAPC   C24 2176   4.675   1.273   9.720  0.1026  0.5130 -0.5316
   17SAPC   H4R 2177   4.671   1.204   9.807  0.9368 -0.6309 -1.3905
   17SAPC   H4S 2178   4.694   1.208   9.633  1.7898 -0.7530  0.7533
   17SAPC   C25 2179   4.550   1.348   9.702  0.9177 -0.4979  0.7919
   17SAPC   H5R 2180   4.510   1.405   9.788 -0.7976 -1.3479  0.5741
   17SAPC   C26 2181   4.476   1.376   9.595 -0.2449  0.7304  0.4013
   17SAPC   H6R 2182   4.402   1.455   9.615  1.8300  2.9518 -0.3124
   17SAPC   C27 2183   4.497   1.346   9.445 -0.0281  0.3912  0.3372
   17SAPC   H7R 2184   4.601   1.306   9.437  0.2668  0.9243  1.4673
   17SAPC   H7S 2185   4.500   1.442   9.390 -2.7087 -0.0968 -0.7214
   17SAPC   C28 2186   4.400   1.254   9.384  0.0923 -0.4109  1.1662
   17SAPC   H8R 2187   4.324   1.211   9.451 -0.9065 -0.9890 -0.3403
   17SAPC   C29 2188   4.410   1.211   9.253 -0.6155  0.1640 -0.3246
   17SAPC   H9R 2189   4.334   1.143   9.212 -0.2245  0.6145 -1.8521
   17SAPC  C210 2190   4.517   1.252   9.158 -0.5942 -0.0222 -0.2615
   17SAPC  H10R 2191   4.602   1.306   9.204 -0.7080  0.6090 -0.7998
   17SAPC  H10S 2192   4.458   1.317   9.091 -1.2772 -0.0437  0.3056
   17SAPC  C211 2193   4.569   1.132   9.076 -0.7934  0.5403  0.3297
   17SAPC  H11R 2194   4.542   1.029   9.104  1.9571 -1.0056 -2.4178
   17SAPC  C212 2195   4.634   1.149   8.959  0.0203  0.0718  0.1797
   17SAPC  H12R 2196   4.667   1.055   8.912 -1.0820  0.2365 -0.9461
   17SAPC  C213 2197   4.670   1.276   8.883  0.4127  0.8386  0.5724
   17SAPC  H13R 2198   4.779   1.297   8.881  0.3384  1.0218 -2.0671
   17SAPC  H13S 2199   4.620   1.359   8.937  0.1199  2.5845 -2.3159
   17SAPC  C214 2200   4.605   1.273   8.749  0.6566 -0.4314 -0.2908
   17SAPC  H14R 2201   4.496   1.279   8.765  0.5376 -0.4791 -1.0588
   17SAPC  C215 2202   4.655   1.255   8.620  0.8322 -0.8163 -0.0894
   17SAPC  H15R 2203   4.587   1.275   8.536 -1.1663 -3.1241  0.9166
   17SAPC  C216 2204   4.799   1.231   8.589 -0.3980  0.4532  1.1047
   17SAPC  H16R 2205   4.813   1.124   8.561  0.4626  1.1715 -1.3383
   17SAPC  H16S 2206   4.871   1.255   8.670  0.0078  0.0458  0.8646
   17SAPC  C217 2207   4.844   1.295   8.459 -0.0414 -0.0918  0.0239
   17SAPC  H17R 2208   4.952   1.277   8.441  0.1672 -0.8228  1.8758
   17SAPC  H17S 2209   4.841   1.406   8.459  2.1431  0.0027  0.6054
   17SAPC  C218 2210   4.758   1.245   8.343  0.2425  0.2146  0.3395
   17SAPC  H18R 2211   4.653   1.280   8.329 -0.7006 -3.7826 -3.6945
   17SAPC  H18S 2212   4.746   1.135   8.356 -1.1927  0.2355 -0.6790
   17SAPC  C219 2213   4.827   1.257   8.206  0.3639  0.1183  0.2113
   17SAPC  H19R 2214   4.901   1.339   8.213  1.1893 -0.4297 -1.7835
   17SAPC  H19S 2215   4.748   1.279   8.131  0.4246  2.7574  0.8710
   17SAPC  C220 2216   4.912   1.140   8.159  0.3416  0.0941 -0.3564
   17SAPC  H20R 2217   4.970   1.156   8.065  0.3218 -0.1380 -0.4086
   17SAPC  H20S 2218   4.835   1.062   8.141  0.6451 -0.1347 -0.6849
   17SAPC  H20T 2219   4.969   1.130   8.253 -2.8498  0.4863  1.6906
   17SAPC   C33 2220   4.489   1.707  10.275 -0.3012 -0.0889 -0.3911
   17SAPC   H3X 2221   4.571   1.697  10.349 -1.7929  1.0069  1.4605
   17SAPC   H3Y 2222   4.412   1.779  10.311 -0.4944  1.6724 -4.0659
   17SAPC   C34 2223   4.553   1.778  10.153 -0.3005 -0.1164  0.1828
   17SAPC   H4X 2224   4.626   1.696  10.135 -2.1887 -2.0116  0.8564
   17SAPC   H4Y 2225   4.601   1.874  10.179  0.6504 -0.0480 -1.7479
   17SAPC   C35 2226   4.466   1.790  10.020  0.4556  0.2665 -0.1834
   17SAPC   H5X 2227   4.377   1.855  10.033 -1.3038 -1.9784 -0.7534
   17SAPC   H5Y 2228   4.431   1.687   9.996 -3.2179  1.9344 -2.4706
   17SAPC   C36 2229   4.558   1.828   9.906 -1.0575  0.3717  0.9102
   17SAPC   H6X 2230   4.646   1.760   9.906 -1.1455  0.2502 -0.3622
   17SAPC   H6Y 2231   4.593   1.932   9.920 -0.6958 -0.0982  4.0504
   17SAPC   C37 2232   4.491   1.794   9.766  0.6697  0.2641  0.2849
   17SAPC   H7X 2233   4.397   1.854   9.770  0.1724 -0.4281 -0.9241
   17SAPC   H7Y 2234   4.467   1.686   9.767 -0.7385  0.5076 -2.2435
   17SAPC   C38 2235   4.567   1.836   9.643 -0.0957  0.1910 -0.2834
   17SAPC   H8X 2236   4.629   1.924   9.667  0.3233 -0.0041 -0.6265
   17SAPC   H8Y 2237   4.491   1.864   9.566 -0.0659 -0.2252 -0.4734
   17SAPC   C39 2238   4.660   1.722   9.581 -0.2136  0.4268 -0.6534
   17SAPC   H9X 2239   4.600   1.634   9.551 -0.4256  0.6472 -0.8723
   17SAPC   H9Y 2240   4.733   1.679   9.654 -1.9819  0.2986  1.0753
   17SAPC  C310 2241   4.723   1.773   9.442 -0.3354  0.2114 -0.1874
   17SAPC  H10X 2242   4.783   1.861   9.473  3.6078 -1.7675 -1.8724
   17SAPC  H10Y 2243   4.639   1.806   9.377 -0.1126  1.1959  0.0251
   17SAPC  C311 2244   4.807   1.666   9.372  0.3308  0.0338 -0.4834
   17SAPC  H11X 2245   4.747   1.576   9.345 -0.1768 -0.0002  0.7122
   17SAPC  H11Y 2246   4.882   1.627   9.444  0.4784 -0.4460 -0.8979
   17SAPC  C312 2247   4.885   1.714   9.245 -0.4592  0.9105 -0.0554
   17SAPC  H12X 2248   4.923   1.817   9.264  1.0744  0.0631  1.7518
   17SAPC  H12Y 2249   4.817   1.731   9.159 -0.4024  1.1917 -0.0444
   17SAPC  C313 2250   4.985   1.612   9.181 -0.1500  0.6540 -0.3912
   17SAPC  H13X 2251   5.058   1.585   9.260 -0.4346 -0.0815 -0.3794
   17SAPC  H13Y 2252   5.049   1.657   9.102  0.5031 -2.1653 -1.5491
   17SAPC  C314 2253   4.913   1.496   9.120 -0.4644 -0.2062  0.0329
   17SAPC  H14X 2254   4.859   1.538   9.033 -1.4200  1.0203  1.1982
   17SAPC  H14Y 2255   4.835   1.460   9.190  0.1595 -1.1811  0.2280
   17SAPC  C315 2256   4.996   1.375   9.072  0.1643 -0.3417 -0.9360
   17SAPC  H15X 2257   4.927   1.289   9.063 -0.1754 -0.2217  0.4191
   17SAPC  H15Y 2258   5.066   1.351   9.155  0.4633 -0.4771 -1.2239
   17SAPC  C316 2259   5.088   1.400   8.948  0.2762 -0.5333  0.3127
   17SAPC  H16X 2260   5.176   1.465   8.965  0.2973 -0.4040 -0.2514
   17SAPC  H16Y 2261   5.026   1.460   8.877 -0.2397  0.1586  1.3474
   17SAPC  C317 2262   5.146   1.267   8.878  0.1627  0.4427 -0.4156
   17SAPC  H17X 2263   5.065   1.208   8.830 -0.0534 -0.6297  1.2168
   17SAPC  H17Y 2264   5.189   1.203   8.958  0.7458  0.3915 -0.7695
   17SAPC  C318 2265   5.264   1.298   8.785  1.0770 -0.3200 -0.5760
   17SAPC  H18X 2266   5.310   1.199   8.766 -0.4031 -1.9708  3.7878
   17SAPC  H18Y 2267   5.219   1.340   8.692  0.6596 -1.3461 -0.8509
   17SAPC  H18Z 2268   5.340   1.363   8.832  1.3047  0.2860 -1.7613
   18SAPC     N 2269   5.604   1.381  10.941 -0.2483  0.1411 -0.9071
   18SAPC   C12 2270   5.702   1.306  10.856  0.4074 -0.6143  0.3636
   18SAPC  H12A 2271   5.709   1.209  10.903  2.5154  0.3746  2.1693
   18SAPC  H12B 2272   5.795   1.361  10.859 -0.0346  0.1365  0.5884
   18SAPC   C13 2273   5.562   1.513  10.886  0.0398 -0.3849 -0.0070
   18SAPC  H13A 2274   5.640   1.586  10.889  0.4561 -0.8350  0.2958
   18SAPC  H13B 2275   5.526   1.508  10.784  0.5184  0.7207 -0.2382
   18SAPC  H13C 2276   5.473   1.551  10.934  0.4284  1.9147 -1.0599
   18SAPC   C14 2277   5.480   1.299  10.956 -0.2988 -0.4378  0.4648
   18SAPC  H14A 2278   5.466   1.235  10.870  3.5574 -1.4527  0.4958
   18SAPC  H14B 2279   5.483   1.237  11.044 -0.5041  0.6173  1.2140
   18SAPC  H14C 2280   5.386   1.351  10.965 -0.9683 -1.9454  2.5776
   18SAPC   C15 2281   5.658   1.402  11.074 -0.4813  0.0809 -0.6639
   18SAPC  H15A 2282   5.599   1.460  11.143 -0.0053 -0.7676  0.4854
   18SAPC  H15B 2283   5.678   1.308  11.125  0.2271  0.3610 -0.4147
   18SAPC  H15C 2284   5.752   1.452  11.055 -1.8355  2.5484 -1.0570
   18SAPC   C11 2285   5.664   1.276  10.706  0.4870  0.3767  0.9250
   18SAPC  H11A 2286   5.735   1.210  10.652  0.1121 -1.1499  2.2708
   18SAPC  H11B 2287   5.680   1.369  10.647  2.1338 -1.2987 -1.3731
   18SAPC     P 2288   5.439   1.246  10.570 -0.0632  0.4666  0.0649
   18SAPC   O13 2289   5.306   1.205  10.603  0.2645  0.0634 -0.2280
   18SAPC   O14 2290   5.460   1.373  10.504 -0.0703 -0.0772 -0.2501
   18SAPC   O12 2291   5.530   1.235  10.696  0.8506 -0.8908 -0.1613
   18SAPC   O11 2292   5.501   1.133  10.484 -0.3541  0.5790  0.3954
   18SAPC    C1 2293   5.593   1.156  10.375 -0.9134  0.0670  0.4763
   18SAPC    HA 2294   5.638   1.257  10.363  1.2338 -0.9702 -0.4770
   18SAPC    HB 2295   5.668   1.075  10.387  0.6140  1.4325  0.3837
   18SAPC    C2 2296   5.531   1.116  10.234  0.0370  0.8716 -0.1546
   18SAPC    HS 2297   5.609   1.135  10.157  1.2048 -1.0795  0.5137
   18SAPC   O21 2298   5.414   1.193  10.206  0.9351  0.4150  0.5583
   18SAPC   C21 2299   5.433   1.320  10.193  0.4855  0.2686 -0.0823
   18SAPC   O22 2300   5.540   1.383  10.180 -0.1137  0.3152 -0.1899
   18SAPC   C22 2301   5.288   1.381  10.192  0.0139 -0.4214  0.2354
   18SAPC   H2R 2302   5.216   1.297  10.187 -1.6735  1.1606 -3.9324
   18SAPC   H2S 2303   5.275   1.428  10.292  1.1427  1.6557 -0.5674
   18SAPC    C3 2304   5.502   0.964  10.219  0.0874 -0.3652  0.6226
   18SAPC    HX 2305   5.417   0.950  10.289 -0.9405 -2.4925 -0.9774
   18SAPC    HY 2306   5.591   0.906  10.254  1.6856  0.3439 -2.1347
   18SAPC   O31 2307   5.487   0.919  10.081 -0.2143  0.5948 -0.0821
   18SAPC   C31 2308   5.370   0.889  10.036  0.7548  0.4209  0.3053
   18SAPC   O32 2309   5.269   0.870  10.102  0.0079 -0.3579  0.2191
   18SAPC   C32 2310   5.374   0.878   9.887  0.5717  0.1935 -0.5408
   18SAPC   H2X 2311   5.475   0.835   9.874  0.4310 -0.4833  0.5735
   18SAPC   H2Y 2312   5.363   0.985   9.857  1.6472  0.5956  0.4502
   18SAPC   C23 2313   5.258   1.493  10.086  0.6749 -0.5181 -0.9941
   18SAPC   H3R 2314   5.338   1.564  10.115  0.7874 -0.7899 -0.6301
   18SAPC   H3S 2315   5.157   1.537  10.098  0.8842 -0.3690  0.3610
   18SAPC   C24 2316   5.282   1.456   9.942  0.5128 -0.4462 -0.2337
   18SAPC   H4R 2317   5.391   1.431   9.946  0.2104 -1.7376  0.0560
   18SAPC   H4S 2318   5.269   1.546   9.878  0.2809 -0.0287  0.4011
   18SAPC   C25 2319   5.197   1.336   9.902  0.0302  0.1900 -0.1252
   18SAPC   H5R 2320   5.163   1.268   9.981  0.4786  1.4203  1.1371
   18SAPC   C26 2321   5.168   1.301   9.772  0.1114  0.2403 -0.4833
   18SAPC   H6R 2322   5.096   1.220   9.754 -0.6491  1.5254 -3.5539
   18SAPC   C27 2323   5.203   1.376   9.642  0.0933 -0.7378 -0.5518
   18SAPC   H7R 2324   5.154   1.474   9.663 -2.8416 -2.8600  3.3569
   18SAPC   H7S 2325   5.150   1.321   9.562  1.5427  0.8446 -2.6560
   18SAPC   C28 2326   5.353   1.387   9.623 -0.6371 -0.5863 -0.2169
   18SAPC   H8R 2327   5.412   1.360   9.711 -1.3353  0.2657  0.5268
   18SAPC   C29 2328   5.422   1.422   9.516  0.5867 -0.2248 -0.1134
   18SAPC   H9R 2329   5.531   1.436   9.514  0.4075  1.1856 -2.5439
   18SAPC  C210 2330   5.363   1.470   9.389 -0.1179  0.0712  0.3081
   18SAPC  H10R 2331   5.415   1.566   9.365 -0.4823 -0.6366 -3.4795
   18SAPC  H10S 2332   5.257   1.493   9.414 -0.2035  3.0908 -2.5374
   18SAPC  C211 2333   5.373   1.380   9.265  0.1496 -1.0116  0.8162
   18SAPC  H11R 2334   5.335   1.278   9.282  0.6619 -1.1896  0.8878
   18SAPC  C212 2335   5.425   1.411   9.145 -0.4415 -0.2365 -0.1819
   18SAPC  H12R 2336   5.406   1.335   9.069  0.4149  0.6034 -1.2439
   18SAPC  C213 2337   5.486   1.535   9.090  0.3912  0.5294 -0.1516
   18SAPC  H13R 2338   5.537   1.513   8.994 -1.1094 -3.9101 -0.0353
   18SAPC  H13S 2339   5.568   1.565   9.158  0.2023 -0.1995  0.3946
   18SAPC  C214 2340   5.384   1.649   9.083 -1.3032  0.9099 -0.2669
   18SAPC  H14R 2341   5.303   1.653   9.158 -0.5915 -2.5173  0.7709
   18SAPC  C215 2342   5.401   1.761   9.006 -0.4486  0.0191  0.1709
   18SAPC  H15R 2343   5.325   1.841   9.006 -0.3847  0.0836 -0.6589
   18SAPC  C216 2344   5.517   1.788   8.922 -0.0340 -0.2549  0.3527
   18SAPC  H16R 2345   5.601   1.729   8.964  0.9094  1.2269  0.5901
   18SAPC  H16S 2346   5.529   1.898   8.937 -0.4000 -0.3225  1.1588
   18SAPC  C217 2347   5.491   1.760   8.771  0.3472 -0.3545 -0.2162
   18SAPC  H17R 2348   5.393   1.803   8.743  0.4236  0.0383  0.1017
   18SAPC  H17S 2349   5.481   1.650   8.764  1.0881 -0.5328  1.3502
   18SAPC  C218 2350   5.611   1.802   8.697 -0.3853  0.2707 -1.0039
   18SAPC  H18R 2351   5.697   1.739   8.731 -1.1322 -1.0796 -1.5595
   18SAPC  H18S 2352   5.630   1.909   8.720 -0.0447 -0.3750  1.9413
   18SAPC  C219 2353   5.600   1.796   8.545 -0.5857 -0.4385 -0.0476
   18SAPC  H19R 2354   5.689   1.844   8.499  0.7703 -0.2633  2.6306
   18SAPC  H19S 2355   5.512   1.855   8.509 -2.2663 -3.0739 -0.3943
   18SAPC  C220 2356   5.594   1.654   8.483 -0.0359 -0.2835  0.2213
   18SAPC  H20R 2357   5.686   1.592   8.478 -0.6215 -1.4733  2.8899
   18SAPC  H20S 2358   5.569   1.671   8.376 -0.1968 -0.8186  0.1683
   18SAPC  H20T 2359   5.521   1.588   8.536  0.1171 -1.7538 -1.3728
   18SAPC   C33 2360   5.251   0.805   9.814  0.6266 -0.2792 -0.3552
   18SAPC   H3X 2361   5.153   0.854   9.836  0.8358 -0.8336  1.9176
   18SAPC   H3Y 2362   5.254   0.701   9.851  1.5212 -0.4843 -0.9760
   18SAPC   C34 2363   5.278   0.804   9.657 -0.4776  0.3845 -0.1068
   18SAPC   H4X 2364   5.265   0.908   9.622 -0.3110  0.3402 -0.2968
   18SAPC   H4Y 2365   5.206   0.738   9.604  0.7196  0.7436 -2.2182
   18SAPC   C35 2366   5.414   0.739   9.609 -0.2515  0.1346 -0.0800
   18SAPC   H5X 2367   5.425   0.641   9.660 -3.8064 -1.1555 -1.6319
   18SAPC   H5Y 2368   5.503   0.805   9.622 -0.5432 -0.2111  4.3218
   18SAPC   C36 2369   5.418   0.700   9.464  0.2848  0.4915  0.3900
   18SAPC   H6X 2370   5.358   0.606   9.457 -1.8886  1.8731 -0.1968
   18SAPC   H6Y 2371   5.527   0.685   9.448  0.6964  0.9596  2.5520
   18SAPC   C37 2372   5.354   0.794   9.365 -0.0659 -0.0013  0.8991
   18SAPC   H7X 2373   5.404   0.893   9.368  2.2096 -1.0830  0.2139
   18SAPC   H7Y 2374   5.244   0.803   9.380 -0.6368 -1.8096 -1.6716
   18SAPC   C38 2375   5.352   0.733   9.224 -0.4993 -0.7229  0.2521
   18SAPC   H8X 2376   5.254   0.741   9.173  0.1640  1.0814 -0.8145
   18SAPC   H8Y 2377   5.384   0.627   9.231  1.6953 -0.0563  0.6713
   18SAPC   C39 2378   5.446   0.805   9.122  0.2889  0.0555  0.3673
   18SAPC   H9X 2379   5.455   0.756   9.023 -1.2547  3.0653 -1.3521
   18SAPC   H9Y 2380   5.550   0.793   9.157 -0.2153 -1.5317  1.3480
   18SAPC  C310 2381   5.408   0.950   9.084  0.3423 -0.3364  0.4722
   18SAPC  H10X 2382   5.383   1.008   9.175  2.2800  0.7135  0.3501
   18SAPC  H10Y 2383   5.319   0.954   9.016 -0.9340  0.9867  2.1641
   18SAPC  C311 2384   5.522   1.024   9.018  0.0930 -0.6357 -0.4364
   18SAPC  H11X 2385   5.595   1.051   9.097  1.2707 -0.0551 -1.6956
   18SAPC  H11Y 2386   5.485   1.109   8.956 -0.3954 -1.4891 -1.3322
   18SAPC  C312 2387   5.603   0.944   8.919 -0.2424  0.5774 -0.1830
   18SAPC  H12X 2388   5.537   0.886   8.851 -1.0444 -2.7569  3.3195
   18SAPC  H12Y 2389   5.665   0.866   8.967  2.5332  1.1571 -2.6742
   18SAPC  C313 2390   5.697   1.038   8.837 -0.9143 -0.1198  0.1205
   18SAPC  H13X 2391   5.797   0.997   8.811 -1.8799 -2.3921 -0.1197
   18SAPC  H13Y 2392   5.715   1.134   8.890 -0.6337 -0.4996  0.7182
   18SAPC  C314 2393   5.635   1.082   8.704  0.6430 -0.1658  0.6566
   18SAPC  H14X 2394   5.539   1.134   8.723  0.6087  0.0392 -0.0667
   18SAPC  H14Y 2395   5.607   0.991   8.647 -0.8708  0.5230  0.2815
   18SAPC  C315 2396   5.724   1.171   8.617 -0.6086 -0.4797 -0.3625
   18SAPC  H15X 2397   5.822   1.119   8.606  0.4938  0.2819  4.7845
   18SAPC  H15Y 2398   5.742   1.264   8.676  1.4122  0.0479 -1.7627
   18SAPC  C316 2399   5.675   1.221   8.475  0.3482  0.5252  0.4210
   18SAPC  H16X 2400   5.591   1.291   8.495  0.3098  0.1446  1.6633
   18SAPC  H16Y 2401   5.632   1.135   8.422  0.6364  1.6287 -1.6496
   18SAPC  C317 2402   5.780   1.293   8.393  0.1688  0.8520 -0.6046
   18SAPC  H17X 2403   5.846   1.214   8.353 -2.1091 -2.1984  1.3800
   18SAPC  H17Y 2404   5.819   1.367   8.466  2.0144 -1.2837  0.6392
   18SAPC  C318 2405   5.721   1.360   8.271 -0.2806  0.7823 -0.3291
   18SAPC  H18X 2406   5.795   1.404   8.201 -0.9293  1.8065 -0.3734
   18SAPC  H18Y 2407   5.656   1.446   8.298 -0.4732  0.1357  1.3128
   18SAPC  H18Z 2408   5.656   1.285   8.220 -1.0345 -0.5636  2.5438
   19SAPC     N 2409   4.158   3.004  10.813  0.0189  0.4156  0.0911
   19SAPC   C12 2410   4.220   3.058  10.691 -0.8704 -0.3319  0.0599
   19SAPC  H12A 2411   4.146   3.117  10.638 -0.2813  0.9781  0.6691
   19SAPC  H12B 2412   4.253   2.972  10.635  0.8437 -0.0527  0.6137
   19SAPC   C13 2413   4.121   3.116  10.906  0.2084  0.3779 -0.4593
   19SAPC  H13A 2414   4.206   3.171  10.943 -0.2766  0.2211  0.9193
   19SAPC  H13B 2415   4.046   3.183  10.865  0.2633  0.4958 -0.3685
   19SAPC  H13C 2416   4.066   3.098  10.997 -0.0803  2.6247 -0.1389
   19SAPC   C14 2417   4.030   2.930  10.778 -0.5000 -0.3602 -0.2878
   19SAPC  H14A 2418   3.986   2.885  10.865  2.2834 -0.7348  0.9823
   19SAPC  H14B 2419   3.952   2.998  10.747 -1.7223 -0.9176  1.5279
   19SAPC  H14C 2420   4.042   2.859  10.698  0.6009  0.6717 -1.0707
   19SAPC   C15 2421   4.242   2.910  10.898 -0.4006 -0.2328 -0.4828
   19SAPC  H15A 2422   4.178   2.868  10.974  0.7364 -0.6042  0.2699
   19SAPC  H15B 2423   4.281   2.828  10.840  0.0315  0.7288 -1.5786
   19SAPC  H15C 2424   4.318   2.970  10.945 -0.5923  0.0510 -0.5323
   19SAPC   C11 2425   4.344   3.140  10.710 -0.3247 -0.4238 -0.5828
   19SAPC  H11A 2426   4.333   3.211  10.795  1.8219 -2.4077  1.4087
   19SAPC  H11B 2427   4.381   3.206  10.629  0.0032 -0.5455 -0.5321
   19SAPC     P 2428   4.529   2.961  10.648 -0.0537 -0.1849  0.1475
   19SAPC   O13 2429   4.669   2.960  10.679 -0.0231  0.5770 -0.2531
   19SAPC   O14 2430   4.468   2.830  10.639  0.4877  0.5530  0.4654
   19SAPC   O12 2431   4.453   3.052  10.754 -0.0552  0.1543 -0.1392
   19SAPC   O11 2432   4.510   3.027  10.510  0.0781 -0.3047  0.2604
   19SAPC    C1 2433   4.615   3.084  10.430  0.2451  0.1469  0.0763
   19SAPC    HA 2434   4.692   3.137  10.491 -0.2612  1.5042 -0.4614
   19SAPC    HB 2435   4.652   2.994  10.376 -2.0973  0.2412 -1.7587
   19SAPC    C2 2436   4.554   3.174  10.324  0.0141 -0.2285 -0.2582
   19SAPC    HS 2437   4.624   3.188  10.239  0.2469  1.5249  0.1985
   19SAPC   O21 2438   4.511   3.291  10.384  0.0103  0.4855  0.3461
   19SAPC   C21 2439   4.542   3.407  10.318 -0.2721 -0.4861 -0.8771
   19SAPC   O22 2440   4.612   3.415  10.219  0.4793 -0.3822 -0.3107
   19SAPC   C22 2441   4.463   3.524  10.384 -0.0633 -0.2157 -0.5129
   19SAPC   H2R 2442   4.364   3.480  10.406 -0.4020  1.6039  1.7324
   19SAPC   H2S 2443   4.512   3.534  10.483 -2.3187  4.2057  0.2562
   19SAPC    C3 2444   4.432   3.101  10.255 -0.1203 -0.3418  0.4217
   19SAPC    HX 2445   4.361   3.070  10.335 -1.5643 -1.8553 -1.3966
   19SAPC    HY 2446   4.486   3.012  10.216  0.7270  0.3969 -0.1014
   19SAPC   O31 2447   4.369   3.185  10.157 -0.0524  0.2914 -0.0600
   19SAPC   C31 2448   4.317   3.127  10.052 -0.1598 -0.9928 -0.6515
   19SAPC   O32 2449   4.312   3.008  10.038  0.3841  0.3072  0.6140
   19SAPC   C32 2450   4.248   3.235   9.960 -0.1344  0.4178 -0.4701
   19SAPC   H2X 2451   4.292   3.331   9.995 -1.3833  1.0030 -0.4589
   19SAPC   H2Y 2452   4.140   3.233   9.988  0.2396  3.1473  1.3715
   19SAPC   C23 2453   4.469   3.643  10.289  0.1404 -0.1534 -0.2976
   19SAPC   H3R 2454   4.571   3.682  10.268 -0.1429  0.1236 -1.1528
   19SAPC   H3S 2455   4.421   3.727  10.343 -1.4597 -1.4191  0.3179
   19SAPC   C24 2456   4.381   3.617  10.165  0.3002 -0.3437  0.4497
   19SAPC   H4R 2457   4.277   3.596  10.197 -0.4935 -0.6225 -2.2002
   19SAPC   H4S 2458   4.413   3.522  10.116 -0.4661 -0.6183  0.4821
   19SAPC   C25 2459   4.376   3.743  10.081  0.3108 -0.3953 -0.7838
   19SAPC   H5R 2460   4.358   3.837  10.135 -1.7310 -2.4028  2.1572
   19SAPC   C26 2461   4.372   3.746   9.949 -0.7726 -0.3995 -0.9119
   19SAPC   H6R 2462   4.337   3.837   9.898  0.1076  0.0743 -0.6730
   19SAPC   C27 2463   4.374   3.626   9.856  0.0691 -0.3202 -1.0048
   19SAPC   H7R 2464   4.276   3.575   9.857  1.5806 -3.3672 -1.6226
   19SAPC   H7S 2465   4.453   3.557   9.892 -0.9709 -1.3865 -0.7337
   19SAPC   C28 2466   4.402   3.657   9.712  0.6441  0.2098 -0.9779
   19SAPC   H8R 2467   4.496   3.710   9.691  0.1132  2.0553  1.1090
   19SAPC   C29 2468   4.319   3.626   9.608  0.1507 -0.1769  0.2869
   19SAPC   H9R 2469   4.363   3.649   9.510 -2.3341  0.8294 -0.6308
   19SAPC  C210 2470   4.189   3.550   9.611  0.0631  0.6345  0.2535
   19SAPC  H10R 2471   4.186   3.480   9.697  0.1320 -1.4269 -1.3894
   19SAPC  H10S 2472   4.191   3.482   9.524  2.5800 -0.5954  1.1897
   19SAPC  C211 2473   4.066   3.641   9.607 -0.2328  0.3016  0.2931
   19SAPC  H11R 2474   4.092   3.745   9.633  1.3001 -0.1383  0.5641
   19SAPC  C212 2475   3.941   3.595   9.581 -0.1759  0.0890 -0.3200
   19SAPC  H12R 2476   3.858   3.666   9.576 -0.4327 -0.2740 -1.4478
   19SAPC  C213 2477   3.897   3.456   9.552  0.4757 -0.1635  0.6063
   19SAPC  H13R 2478   3.945   3.383   9.621  2.6260  0.7495  0.1291
   19SAPC  H13S 2479   3.919   3.433   9.446  4.2524  0.6499  1.1066
   19SAPC  C214 2480   3.750   3.426   9.583 -0.1466 -0.7849  0.0838
   19SAPC  H14R 2481   3.722   3.420   9.689 -0.8137  1.2411  0.0392
   19SAPC  C215 2482   3.653   3.390   9.493 -0.1340 -0.1896 -0.5940
   19SAPC  H15R 2483   3.548   3.369   9.516 -0.4721  0.6406 -1.3613
   19SAPC  C216 2484   3.684   3.399   9.344 -0.3801  0.3256  0.0238
   19SAPC  H16R 2485   3.622   3.320   9.296  0.8477 -1.2072  0.9054
   19SAPC  H16S 2486   3.787   3.363   9.321 -0.9111 -0.5755 -0.9881
   19SAPC  C217 2487   3.665   3.532   9.258  0.0160 -0.0637 -0.6620
   19SAPC  H17R 2488   3.558   3.560   9.268  0.0945 -0.3706  1.3456
   19SAPC  H17S 2489   3.685   3.507   9.152  0.2677  1.9331 -1.1164
   19SAPC  C218 2490   3.743   3.657   9.302 -0.4512 -0.2308  0.6986
   19SAPC  H18R 2491   3.728   3.665   9.412  0.0789  2.1759  0.6341
   19SAPC  H18S 2492   3.692   3.745   9.255 -0.5721 -0.7086 -0.0777
   19SAPC  C219 2493   3.888   3.668   9.262  0.2591 -0.0197 -0.5913
   19SAPC  H19R 2494   3.957   3.594   9.309 -0.0825  1.1362  1.7600
   19SAPC  H19S 2495   3.934   3.766   9.288 -0.1794  0.4396 -1.5221
   19SAPC  C220 2496   3.920   3.664   9.114  0.0895  0.2039  0.1379
   19SAPC  H20R 2497   4.028   3.672   9.091 -0.6856  0.3551 -3.8351
   19SAPC  H20S 2498   3.863   3.739   9.055 -0.1305 -0.9189 -1.1130
   19SAPC  H20T 2499   3.890   3.563   9.078  0.4332 -0.2188  1.0214
   19SAPC   C33 2500   4.264   3.212   9.813  0.7061  0.1515  0.3150
   19SAPC   H3X 2501   4.199   3.283   9.758 -1.4958 -0.8084  1.5799
   19SAPC   H3Y 2502   4.241   3.106   9.786  1.6649 -0.1316  0.6126
   19SAPC   C34 2503   4.415   3.235   9.774  1.0352 -0.0626 -0.0022
   19SAPC   H4X 2504   4.473   3.146   9.805 -0.3746 -1.4043 -1.1303
   19SAPC   H4Y 2505   4.463   3.321   9.825 -1.5013  1.7855 -0.5994
   19SAPC   C35 2506   4.427   3.235   9.616 -0.1986 -0.5682  0.0234
   19SAPC   H5X 2507   4.366   3.320   9.577 -0.6240 -1.1263 -0.5334
   19SAPC   H5Y 2508   4.400   3.141   9.563  0.3996  0.9158 -3.0318
   19SAPC   C36 2509   4.564   3.275   9.566  0.3622  0.3217 -0.3109
   19SAPC   H6X 2510   4.633   3.193   9.596  2.0841  1.5258 -0.8904
   19SAPC   H6Y 2511   4.600   3.370   9.612  2.2344  0.3328 -1.6777
   19SAPC   C37 2512   4.577   3.272   9.412  0.2341 -0.4538  0.8944
   19SAPC   H7X 2513   4.497   3.338   9.372 -1.6445 -3.4213 -0.4167
   19SAPC   H7Y 2514   4.553   3.166   9.388  0.0702  0.0379 -1.1857
   19SAPC   C38 2515   4.710   3.292   9.350 -0.3703 -0.1670 -0.0282
   19SAPC   H8X 2516   4.779   3.207   9.371 -3.4432 -2.6004  0.6273
   19SAPC   H8Y 2517   4.761   3.381   9.393 -0.0072 -0.4545  0.1432
   19SAPC   C39 2518   4.687   3.293   9.203 -0.0501  0.4380  0.1305
   19SAPC   H9X 2519   4.627   3.383   9.180  0.0604  0.3111 -0.6691
   19SAPC   H9Y 2520   4.620   3.204   9.197 -0.8474  0.9195  1.6726
   19SAPC  C310 2521   4.809   3.272   9.124 -0.6817 -0.1979 -0.3748
   19SAPC  H10X 2522   4.844   3.167   9.135  1.1482 -0.0255 -3.7422
   19SAPC  H10Y 2523   4.895   3.340   9.145 -1.0734  0.2501 -0.2070
   19SAPC  C311 2524   4.792   3.283   8.970 -0.0521 -0.2673 -0.3106
   19SAPC  H11X 2525   4.733   3.370   8.934 -0.1564  0.8946  2.5053
   19SAPC  H11Y 2526   4.738   3.194   8.932 -2.3449  0.3825  1.2966
   19SAPC  C312 2527   4.922   3.288   8.893  0.0727  0.6908 -0.0845
   19SAPC  H12X 2528   4.977   3.192   8.883  3.4955  2.2318  2.7779
   19SAPC  H12Y 2529   4.996   3.347   8.950  0.6033  1.1852 -1.2808
   19SAPC  C313 2530   4.918   3.360   8.759 -0.5652 -0.4992  0.0803
   19SAPC  H13X 2531   5.015   3.374   8.706 -0.1514  0.0461  0.9784
   19SAPC  H13Y 2532   4.891   3.466   8.779 -1.6224 -0.6074 -0.7638
   19SAPC  C314 2533   4.815   3.302   8.655 -0.4941 -0.3395 -1.1069
   19SAPC  H14X 2534   4.715   3.293   8.704 -1.7748  0.9216 -3.4192
   19SAPC  H14Y 2535   4.865   3.204   8.637  0.7625 -0.0655  0.7013
   19SAPC  C315 2536   4.791   3.391   8.544  0.2443  0.1394 -0.3450
   19SAPC  H15X 2537   4.886   3.448   8.539  0.1839  0.3658  0.8226
   19SAPC  H15Y 2538   4.706   3.459   8.565 -1.6877 -2.6007  1.0804
   19SAPC  C316 2539   4.753   3.328   8.407 -0.0574  0.0781 -0.3703
   19SAPC  H16X 2540   4.756   3.414   8.336  2.9896  2.1672  2.1502
   19SAPC  H16Y 2541   4.650   3.287   8.418  0.5328 -2.1552 -2.7352
   19SAPC  C317 2542   4.855   3.216   8.370 -0.3359  0.2160  0.7053
   19SAPC  H17X 2543   4.848   3.129   8.440  0.1023 -0.7172 -0.4012
   19SAPC  H17Y 2544   4.957   3.256   8.383  0.4319  0.0091 -4.0789
   19SAPC  C318 2545   4.830   3.166   8.228 -0.0203 -0.1981 -0.2510
   19SAPC  H18X 2546   4.899   3.083   8.202  1.3287  1.6171 -2.8234
   19SAPC  H18Y 2547   4.851   3.250   8.158  2.4805 -0.1500  0.5011
   19SAPC  H18Z 2548   4.727   3.135   8.202  0.2558 -0.5769 -0.9056
   20SAPC     N 2549   4.101   6.778  11.105  0.1736 -0.0216  0.4064
   20SAPC   C12 2550   4.043   6.704  10.995 -0.0339 -0.3141  0.2163
   20SAPC  H12A 2551   3.962   6.765  10.955 -0.7850 -0.3676  1.6302
   20SAPC  H12B 2552   4.001   6.615  11.039 -0.4791 -0.3506 -0.2708
   20SAPC   C13 2553   4.162   6.904  11.056 -0.0900  0.4961 -0.1249
   20SAPC  H13A 2554   4.198   6.960  11.141  1.4401 -0.1721 -0.3132
   20SAPC  H13B 2555   4.246   6.884  10.991  0.2499  1.7214 -0.0739
   20SAPC  H13C 2556   4.097   6.968  10.998 -0.4755  0.3005  0.0915
   20SAPC   C14 2557   4.002   6.808  11.212 -0.4988 -0.2734 -0.0565
   20SAPC  H14A 2558   3.927   6.875  11.170  1.2255  1.3914 -0.5539
   20SAPC  H14B 2559   3.956   6.719  11.251  0.1416 -0.6079 -0.0655
   20SAPC  H14C 2560   4.045   6.857  11.298 -2.6139 -1.5986  1.8187
   20SAPC   C15 2561   4.218   6.704  11.159  0.2862  0.9478  0.3921
   20SAPC  H15A 2562   4.258   6.756  11.244 -1.4706  0.3419  1.6042
   20SAPC  H15B 2563   4.202   6.602  11.189  1.5168  0.1724 -1.4735
   20SAPC  H15C 2564   4.288   6.700  11.076 -0.0978  1.9617  0.0067
   20SAPC   C11 2565   4.130   6.664  10.870 -0.3167 -0.4397 -0.8620
   20SAPC  H11A 2566   4.174   6.755  10.825 -0.2855 -0.3386 -0.6286
   20SAPC  H11B 2567   4.059   6.615  10.800  1.6074 -2.4048 -1.5022
   20SAPC     P 2568   4.209   6.418  10.922 -0.2378  0.2325 -0.1531
   20SAPC   O13 2569   4.337   6.353  10.959 -0.1467  0.3902  0.0586
   20SAPC   O14 2570   4.093   6.413  11.018 -0.3797  0.2458  0.0453
   20SAPC   O12 2571   4.239   6.578  10.904  0.0756  0.0435  0.2626
   20SAPC   O11 2572   4.160   6.379  10.783  0.6011 -0.1619 -0.2283
   20SAPC    C1 2573   4.250   6.383  10.677  0.7144  0.6488  0.1458
   20SAPC    HA 2574   4.356   6.360  10.700  2.1783  3.9639 -2.7812
   20SAPC    HB 2575   4.217   6.308  10.602 -0.1051 -0.2397  1.3921
   20SAPC    C2 2576   4.259   6.518  10.598 -0.0860  0.1157 -0.5802
   20SAPC    HS 2577   4.296   6.591  10.673 -0.9469  0.3956 -0.4202
   20SAPC   O21 2578   4.128   6.560  10.561  0.2958  0.0716 -0.1863
   20SAPC   C21 2579   4.129   6.689  10.525 -0.1125 -0.5761  0.6194
   20SAPC   O22 2580   4.227   6.769  10.532  0.2033  0.7562  0.0884
   20SAPC   C22 2581   3.989   6.724  10.479 -0.2235 -0.6564 -0.1045
   20SAPC   H2R 2582   3.940   6.629  10.450 -2.1325  0.1561  0.3889
   20SAPC   H2S 2583   3.943   6.765  10.572  0.8942 -0.6495  0.4650
   20SAPC    C3 2584   4.354   6.500  10.479 -0.0474 -0.1736  0.3497
   20SAPC    HX 2585   4.452   6.466  10.519 -1.2155 -4.3288 -0.1138
   20SAPC    HY 2586   4.369   6.598  10.427 -0.5314 -0.4270 -0.2796
   20SAPC   O31 2587   4.299   6.406  10.381  0.2471  0.0024 -0.8167
   20SAPC   C31 2588   4.286   6.447  10.256 -0.7132 -0.4640 -0.4297
   20SAPC   O32 2589   4.305   6.559  10.212 -0.6815 -0.1070 -0.6864
   20SAPC   C32 2590   4.242   6.326  10.173  0.9386 -0.3112 -0.1026
   20SAPC   H2X 2591   4.198   6.246  10.237 -1.1716  0.8625 -0.0397
   20SAPC   H2Y 2592   4.335   6.280  10.132  0.2103 -1.1102 -0.8785
   20SAPC   C23 2593   3.982   6.831  10.369  0.9695 -0.4248 -0.8007
   20SAPC   H3R 2594   4.002   6.933  10.408 -1.0555 -0.3976  0.2325
   20SAPC   H3S 2595   3.879   6.836  10.329  1.4690  0.2177 -2.0217
   20SAPC   C24 2596   4.071   6.811  10.254 -0.6545 -0.4964 -0.2834
   20SAPC   H4R 2597   4.171   6.798  10.301 -1.7464  1.7075  2.7770
   20SAPC   H4S 2598   4.071   6.901  10.189  1.7306  1.2585  2.0290
   20SAPC   C25 2599   4.024   6.701  10.164 -0.5633 -0.1657  0.3218
   20SAPC   H5R 2600   3.992   6.611  10.218  0.2987 -0.9867 -0.5248
   20SAPC   C26 2601   4.019   6.705  10.030 -0.6889 -0.1470  0.6868
   20SAPC   H6R 2602   3.985   6.613   9.981 -3.7689  0.8405  0.8356
   20SAPC   C27 2603   4.058   6.816   9.934 -0.7515  0.3561  0.5815
   20SAPC   H7R 2604   4.079   6.757   9.842 -0.8714  1.5042 -0.1819
   20SAPC   H7S 2605   4.144   6.873   9.975  0.5319 -3.2264  3.2022
   20SAPC   C28 2606   3.942   6.905   9.905 -0.1842  0.7391 -0.1326
   20SAPC   H8R 2607   3.891   6.944   9.994  1.3343  2.7132 -0.0880
   20SAPC   C29 2608   3.897   6.949   9.780 -0.2528 -0.2585  0.2875
   20SAPC   H9R 2609   3.819   7.027   9.774  0.2374  0.5194  3.2295
   20SAPC  C210 2610   3.954   6.904   9.646 -0.3678  0.2080  0.2607
   20SAPC  H10R 2611   4.060   6.936   9.648 -0.5265  0.7004  2.0784
   20SAPC  H10S 2612   3.893   6.959   9.571  0.5824  1.6940  0.5734
   20SAPC  C211 2613   3.957   6.758   9.611 -0.5025  0.2433 -0.0019
   20SAPC  H11R 2614   3.991   6.693   9.693  3.5073 -0.1570 -1.8591
   20SAPC  C212 2615   3.941   6.716   9.481 -0.5921  0.2473  0.2302
   20SAPC  H12R 2616   3.944   6.607   9.462 -2.0363  0.0324  1.0720
   20SAPC  C213 2617   3.920   6.793   9.359  1.1922  0.0030 -0.3719
   20SAPC  H13R 2618   3.855   6.880   9.387 -0.5840 -1.2692 -0.4883
   20SAPC  H13S 2619   3.861   6.727   9.293  0.9422 -0.1104 -0.0336
   20SAPC  C214 2620   4.042   6.844   9.292  0.4414  0.5640 -0.3831
   20SAPC  H14R 2621   4.104   6.902   9.362  0.2066 -0.6248  0.8211
   20SAPC  C215 2622   4.081   6.822   9.166  0.3796 -0.1698 -0.5658
   20SAPC  H15R 2623   4.174   6.869   9.130  0.7954 -1.3144 -0.9997
   20SAPC  C216 2624   3.999   6.751   9.060 -0.0754  0.2874 -0.1485
   20SAPC  H16R 2625   3.966   6.818   8.978  0.6573 -0.1569 -0.8088
   20SAPC  H16S 2626   3.904   6.711   9.101 -0.0397 -0.6693 -0.9800
   20SAPC  C217 2627   4.072   6.628   9.005  0.8037  0.1210 -0.7128
   20SAPC  H17R 2628   4.107   6.565   9.090  1.2590  1.0319 -0.2104
   20SAPC  H17S 2629   4.157   6.664   8.944  0.2204  1.4706 -0.7359
   20SAPC  C218 2630   3.976   6.551   8.920  0.2119  0.4967  0.9492
   20SAPC  H18R 2631   3.874   6.531   8.959 -1.2460 -0.1175 -2.9424
   20SAPC  H18S 2632   4.019   6.452   8.893 -1.9433  0.3123 -2.0550
   20SAPC  C219 2633   3.964   6.614   8.782  0.9599 -0.1147 -0.0929
   20SAPC  H19R 2634   4.067   6.623   8.741  1.0018 -0.7158 -0.1319
   20SAPC  H19S 2635   3.919   6.714   8.798  1.1346 -0.2211  1.1136
   20SAPC  C220 2636   3.869   6.537   8.689  0.9479  0.6872  0.5727
   20SAPC  H20R 2637   3.909   6.435   8.674  0.2109  0.6298 -1.1683
   20SAPC  H20S 2638   3.855   6.589   8.591 -1.4870 -2.0202 -0.5933
   20SAPC  H20T 2639   3.774   6.528   8.747  0.1966 -2.6112 -1.0535
   20SAPC   C33 2640   4.144   6.357  10.061 -0.7586 -0.5532 -0.7363
   20SAPC   H3X 2641   4.070   6.433  10.095  2.7628  1.2066  3.4508
   20SAPC   H3Y 2642   4.088   6.266  10.032  0.1815 -1.2205 -0.4704
   20SAPC   C34 2643   4.218   6.401   9.933 -0.9606 -0.2952  0.4070
   20SAPC   H4X 2644   4.299   6.327   9.918 -0.0573  1.1497 -2.0671
   20SAPC   H4Y 2645   4.260   6.503   9.944  1.8270 -1.3500 -0.0255
   20SAPC   C35 2646   4.141   6.404   9.795 -0.3664  0.4932  0.1665
   20SAPC   H5X 2647   4.081   6.498   9.790 -0.5841  0.3877  0.7067
   20SAPC   H5Y 2648   4.060   6.329   9.789  1.1050 -1.0310 -1.1111
   20SAPC   C36 2649   4.239   6.397   9.678  0.5353 -0.0558 -0.4938
   20SAPC   H6X 2650   4.296   6.304   9.700 -0.8172 -0.5838  0.9206
   20SAPC   H6Y 2651   4.307   6.484   9.691  0.5866 -0.0643 -0.7033
   20SAPC   C37 2652   4.163   6.393   9.544 -0.2145 -0.0597 -0.1204
   20SAPC   H7X 2653   4.103   6.486   9.537 -2.6362 -1.4806  0.8655
   20SAPC   H7Y 2654   4.086   6.313   9.554  0.1702 -0.2220  1.7082
   20SAPC   C38 2655   4.248   6.356   9.421 -0.3411 -0.4263 -0.3144
   20SAPC   H8X 2656   4.304   6.264   9.449  0.6469  0.3040  0.1333
   20SAPC   H8Y 2657   4.309   6.440   9.383  1.0271 -0.0871  2.5174
   20SAPC   C39 2658   4.156   6.312   9.302  0.1003 -0.7009 -0.4657
   20SAPC   H9X 2659   4.089   6.396   9.273  1.0366 -0.3495 -1.6589
   20SAPC   H9Y 2660   4.095   6.222   9.325 -2.4237  1.0303 -0.0942
   20SAPC  C310 2661   4.255   6.264   9.188 -0.2426 -0.0401  0.5416
   20SAPC  H10X 2662   4.321   6.192   9.240 -1.9190 -0.8813  1.5149
   20SAPC  H10Y 2663   4.322   6.346   9.153  0.1417 -1.2345 -1.6403
   20SAPC  C311 2664   4.180   6.214   9.067 -0.1522  0.4363 -0.3905
   20SAPC  H11X 2665   4.102   6.290   9.043 -0.3215  0.0343 -1.1550
   20SAPC  H11Y 2666   4.113   6.127   9.087 -0.1390  0.1251 -1.6362
   20SAPC  C312 2667   4.269   6.174   8.944  0.1174  0.7956  0.5218
   20SAPC  H12X 2668   4.212   6.103   8.880 -0.7228  1.0686  0.9631
   20SAPC  H12Y 2669   4.361   6.127   8.984  0.5572 -0.8151 -2.2595
   20SAPC  C313 2670   4.308   6.293   8.859  0.0245 -0.4181 -0.7013
   20SAPC  H13X 2671   4.344   6.363   8.937  1.4533 -0.3330 -1.4236
   20SAPC  H13Y 2672   4.216   6.340   8.818  0.3326  0.4932 -0.3537
   20SAPC  C314 2673   4.408   6.262   8.747 -0.8503  0.3889 -1.1887
   20SAPC  H14X 2674   4.370   6.172   8.694  1.1209 -0.8996 -0.4688
   20SAPC  H14Y 2675   4.509   6.244   8.788 -0.8929  1.2954 -0.6738
   20SAPC  C315 2676   4.430   6.382   8.656 -0.1478 -0.6001  0.1185
   20SAPC  H15X 2677   4.516   6.365   8.588  0.7531  1.2719  0.7582
   20SAPC  H15Y 2678   4.459   6.464   8.725 -0.6732 -0.0792 -0.2723
   20SAPC  C316 2679   4.303   6.425   8.577 -0.7698 -0.3622  0.7130
   20SAPC  H16X 2680   4.218   6.445   8.644 -0.7264  0.8184  0.4225
   20SAPC  H16Y 2681   4.283   6.334   8.517  0.4582 -0.4141  0.3625
   20SAPC  C317 2682   4.324   6.544   8.479  0.0164  0.3546  0.4965
   20SAPC  H17X 2683   4.350   6.631   8.543 -0.0166  1.9018 -1.5270
   20SAPC  H17Y 2684   4.223   6.549   8.431  0.1927  0.1785  0.1082
   20SAPC  C318 2685   4.419   6.525   8.363  0.6018 -0.0058  0.1023
   20SAPC  H18X 2686   4.400   6.603   8.287 -0.7682 -0.0982  0.3358
   20SAPC  H18Y 2687   4.408   6.428   8.310  1.2479 -1.8011  3.1006
   20SAPC  H18Z 2688   4.527   6.535   8.389  0.9294  0.9703 -1.5512
   21SAPC     N 2689   4.305   5.982  11.146 -0.5628 -0.2795 -0.6418
   21SAPC   C12 2690   4.358   6.052  11.024  0.0392 -0.0049  0.6167
   21SAPC  H12A 2691   4.465   6.057  11.014 -0.0226  1.2791  0.5367
   21SAPC  H12B 2692   4.335   6.156  11.040  0.5877  0.2202 -0.0345
   21SAPC   C13 2693   4.346   5.836  11.150  0.1020 -0.5580 -1.0484
   21SAPC  H13A 2694   4.331   5.801  11.251 -1.3321  0.7155 -0.7942
   21SAPC  H13B 2695   4.285   5.770  11.090 -1.9032 -0.3906  0.7209
   21SAPC  H13C 2696   4.451   5.821  11.131  0.3073  0.4180 -0.7023
   21SAPC   C14 2697   4.376   6.036  11.268  0.5711  0.1210  0.4812
   21SAPC  H14A 2698   4.481   6.012  11.258  1.2087  3.5191 -1.5351
   21SAPC  H14B 2699   4.370   6.144  11.269  1.2176  0.1765 -0.7979
   21SAPC  H14C 2700   4.343   6.005  11.366  2.6427  0.6541  1.3855
   21SAPC   C15 2701   4.155   5.986  11.170  0.2008 -0.2986 -0.4468
   21SAPC  H15A 2702   4.126   6.086  11.200 -1.5224  0.1921 -3.6197
   21SAPC  H15B 2703   4.100   5.961  11.081  0.5319 -0.3445 -0.6394
   21SAPC  H15C 2704   4.117   5.917  11.244 -0.9207 -0.4927 -1.2099
   21SAPC   C11 2705   4.296   6.019  10.885 -0.2270 -0.0554  0.9983
   21SAPC  H11A 2706   4.334   6.099  10.818  2.1755 -1.1557  0.9849
   21SAPC  H11B 2707   4.186   6.029  10.874 -0.0657  3.3436  1.7986
   21SAPC     P 2708   4.279   5.802  10.752  0.2588 -0.4934  0.1533
   21SAPC   O13 2709   4.364   5.674  10.760 -0.1162  0.1023  0.0515
   21SAPC   O14 2710   4.144   5.783  10.808 -0.1082  0.7371 -0.1308
   21SAPC   O12 2711   4.355   5.905  10.828  0.0920 -0.5385  0.0849
   21SAPC   O11 2712   4.272   5.857  10.606 -0.2582  0.3427  0.0499
   21SAPC    C1 2713   4.240   5.995  10.577  0.2101 -0.2255 -0.2703
   21SAPC    HA 2714   4.142   6.023  10.621  1.6001  2.7996  1.0344
   21SAPC    HB 2715   4.317   6.064  10.618 -2.8935  3.2788 -0.0426
   21SAPC    C2 2716   4.218   6.026  10.428 -1.0632 -0.0572  0.0863
   21SAPC    HS 2717   4.170   6.126  10.428  1.5621  1.2461 -0.5948
   21SAPC   O21 2718   4.130   5.927  10.357  0.4460  0.3500 -0.1206
   21SAPC   C21 2719   4.001   5.953  10.366  0.3412 -0.0706  1.0198
   21SAPC   O22 2720   3.946   6.040  10.433 -0.2589  0.2610 -0.6421
   21SAPC   C22 2721   3.920   5.873  10.267  0.1673 -0.0752 -0.3148
   21SAPC   H2R 2722   3.883   5.778  10.311  1.8448 -0.6801 -0.1574
   21SAPC   H2S 2723   3.838   5.942  10.237 -0.6752 -0.8325  0.2261
   21SAPC    C3 2724   4.351   6.034  10.357 -0.0088  0.3217  0.2758
   21SAPC    HX 2725   4.425   5.962  10.399 -0.5977  0.5768  1.7849
   21SAPC    HY 2726   4.405   6.129  10.380  0.0940  1.1609 -3.1492
   21SAPC   O31 2727   4.329   6.019  10.220  0.1948 -0.3252 -0.3843
   21SAPC   C31 2728   4.342   5.894  10.168  0.5149 -0.0748  0.3499
   21SAPC   O32 2729   4.364   5.795  10.232  0.1151  0.1544 -0.1910
   21SAPC   C32 2730   4.326   5.893  10.019  0.6296 -0.2960 -0.2837
   21SAPC   H2X 2731   4.234   5.836   9.992 -0.1083  1.1728 -0.8709
   21SAPC   H2Y 2732   4.418   5.846   9.979  1.0520  0.9182 -0.7377
   21SAPC   C23 2733   4.000   5.827  10.138 -0.2796 -0.0628  0.0050
   21SAPC   H3R 2734   4.078   5.756  10.172 -0.0935  0.0129 -0.2637
   21SAPC   H3S 2735   4.058   5.908  10.089  2.8960 -1.0976  1.9313
   21SAPC   C24 2736   3.907   5.773  10.022  0.4269  0.4029  0.0494
   21SAPC   H4R 2737   3.969   5.772   9.930  0.0384 -2.6806 -0.2129
   21SAPC   H4S 2738   3.821   5.841  10.001 -0.7469 -1.1756 -0.2988
   21SAPC   C25 2739   3.849   5.637  10.053  0.2014  0.0991 -0.1420
   21SAPC   H5R 2740   3.854   5.604  10.158  1.5860  0.8232  0.0148
   21SAPC   C26 2741   3.782   5.552   9.978  0.3720 -0.1768 -0.3458
   21SAPC   H6R 2742   3.748   5.455  10.018 -0.8303  0.4130  0.0860
   21SAPC   C27 2743   3.752   5.583   9.834 -0.2538 -0.3707  0.5685
   21SAPC   H7R 2744   3.765   5.691   9.811 -0.6527 -0.6436 -0.9806
   21SAPC   H7S 2745   3.645   5.567   9.811 -0.0080  1.0856 -1.7447
   21SAPC   C28 2746   3.844   5.507   9.740 -0.5110 -0.6175  0.1902
   21SAPC   H8R 2747   3.904   5.429   9.790 -0.7057 -1.1634 -0.4227
   21SAPC   C29 2748   3.854   5.516   9.603  0.1988  0.1920  0.2082
   21SAPC   H9R 2749   3.930   5.452   9.558  1.1214  0.4879  1.3234
   21SAPC  C210 2750   3.787   5.615   9.508  0.5328 -0.0817  0.1075
   21SAPC  H10R 2751   3.845   5.618   9.413 -2.7206 -1.3729 -2.0147
   21SAPC  H10S 2752   3.802   5.710   9.562 -1.6695 -0.2207  0.9989
   21SAPC  C211 2753   3.636   5.589   9.477  0.4533 -1.3367 -0.0148
   21SAPC  H11R 2754   3.569   5.535   9.546 -2.5202  2.3896  0.1850
   21SAPC  C212 2755   3.579   5.613   9.360 -0.8224 -0.4000  0.4817
   21SAPC  H12R 2756   3.470   5.605   9.348 -0.6853 -0.7878 -0.5224
   21SAPC  C213 2757   3.644   5.677   9.244 -0.2472  0.1434 -0.3535
   21SAPC  H13R 2758   3.656   5.607   9.158  1.8357  0.3898 -0.2704
   21SAPC  H13S 2759   3.749   5.708   9.263 -0.3947  0.1370  0.5114
   21SAPC  C214 2760   3.560   5.790   9.184 -0.0251  0.4446  0.3528
   21SAPC  H14R 2761   3.574   5.879   9.247  3.0564  0.3378 -0.0884
   21SAPC  C215 2762   3.468   5.786   9.089  0.9927 -0.1554  0.2679
   21SAPC  H15R 2763   3.411   5.879   9.074  1.6189  0.3865  1.1970
   21SAPC  C216 2764   3.428   5.675   8.995 -0.7429 -0.4252 -0.6265
   21SAPC  H16R 2765   3.331   5.640   9.036  0.7397 -4.1613 -0.1471
   21SAPC  H16S 2766   3.482   5.579   9.009  0.9481  0.3002 -2.0467
   21SAPC  C217 2767   3.419   5.719   8.851  0.0773 -0.1853 -0.5186
   21SAPC  H17R 2768   3.417   5.624   8.794  1.1644 -1.2705  1.1991
   21SAPC  H17S 2769   3.510   5.774   8.817  1.4463 -2.5216 -0.7989
   21SAPC  C218 2770   3.307   5.815   8.821  0.0328  0.5636  0.2020
   21SAPC  H18R 2771   3.295   5.823   8.711 -0.7338  1.4454  0.3536
   21SAPC  H18S 2772   3.335   5.916   8.858 -4.2547  1.7748  0.4134
   21SAPC  C219 2773   3.165   5.782   8.865 -0.3102 -0.3540 -0.1429
   21SAPC  H19R 2774   3.100   5.866   8.833  1.5670  0.8264 -0.9647
   21SAPC  H19S 2775   3.159   5.774   8.975  0.6592  3.2187  0.2458
   21SAPC  C220 2776   3.115   5.656   8.810 -0.0032  0.0757  0.8104
   21SAPC  H20R 2777   3.005   5.652   8.796  0.2371  1.7614 -1.8844
   21SAPC  H20S 2778   3.141   5.567   8.870 -0.1710 -1.2605 -1.0512
   21SAPC  H20T 2779   3.163   5.628   8.714  2.9501 -1.2442  2.5967
   21SAPC   C33 2780   4.316   6.033   9.948  0.3755  0.3049  0.3569
   21SAPC   H3X 2781   4.403   6.092   9.984 -0.5877  0.7242  2.0417
   21SAPC   H3Y 2782   4.233   6.095   9.986  1.6251  1.3401  1.4436
   21SAPC   C34 2783   4.315   6.020   9.794 -0.7701  0.3901  0.2603
   21SAPC   H4X 2784   4.417   5.982   9.769 -0.3708  1.6468 -0.0518
   21SAPC   H4Y 2785   4.311   6.124   9.755  1.7975  1.0090  1.5202
   21SAPC   C35 2786   4.206   5.947   9.725  0.0019  0.3219  0.3126
   21SAPC   H5X 2787   4.106   5.971   9.765 -0.1229 -0.7936  0.6897
   21SAPC   H5Y 2788   4.217   5.841   9.758 -5.0612 -0.1121  0.9932
   21SAPC   C36 2789   4.205   5.953   9.566  0.4728  0.7793  0.2603
   21SAPC   H6X 2790   4.304   5.928   9.525 -0.6441  3.0426 -4.0467
   21SAPC   H6Y 2791   4.181   6.060   9.546  0.7169  1.0826  1.5174
   21SAPC   C37 2792   4.097   5.867   9.490  0.5250  0.2141  0.3863
   21SAPC   H7X 2793   3.996   5.865   9.535 -0.3425 -0.7173 -1.5544
   21SAPC   H7Y 2794   4.125   5.761   9.508  0.8220 -0.1589 -2.1256
   21SAPC   C38 2795   4.098   5.907   9.342  0.0124 -0.3600  0.7343
   21SAPC   H8X 2796   4.175   5.980   9.308 -1.9578  0.7670 -1.4801
   21SAPC   H8Y 2797   4.004   5.962   9.321  0.0952  0.2707  1.9988
   21SAPC   C39 2798   4.081   5.783   9.253  0.6803 -0.1638  0.6202
   21SAPC   H9X 2799   3.982   5.746   9.289 -1.0402  2.9354 -0.7005
   21SAPC   H9Y 2800   4.153   5.701   9.271  0.1891 -0.5001  1.0985
   21SAPC  C310 2801   4.072   5.804   9.102 -0.1348 -0.0848 -1.2054
   21SAPC  H10X 2802   4.030   5.900   9.066 -1.4673  0.1170  0.7889
   21SAPC  H10Y 2803   4.004   5.726   9.062 -1.4825  0.7940 -0.6684
   21SAPC  C311 2804   4.208   5.781   9.029  0.2241  0.5058  0.3235
   21SAPC  H11X 2805   4.256   5.685   9.055 -0.1636  0.3124  0.3235
   21SAPC  H11Y 2806   4.278   5.856   9.073  1.3254 -0.8071  0.8445
   21SAPC  C312 2807   4.190   5.786   8.876 -0.6533 -0.5452 -0.3220
   21SAPC  H12X 2808   4.151   5.888   8.854 -0.4757 -0.5372 -0.6015
   21SAPC  H12Y 2809   4.113   5.711   8.847 -1.2290 -0.4233  0.8665
   21SAPC  C313 2810   4.328   5.786   8.800  0.4693 -0.0568 -0.4022
   21SAPC  H13X 2811   4.385   5.691   8.806  1.5337  0.7107  2.4655
   21SAPC  H13Y 2812   4.395   5.865   8.838 -1.1109  0.5808  1.1468
   21SAPC  C314 2813   4.303   5.826   8.648  0.3107  0.9496  0.8809
   21SAPC  H14X 2814   4.266   5.931   8.640  1.9414  1.3964 -1.3155
   21SAPC  H14Y 2815   4.232   5.750   8.609 -0.1775  1.8286  0.0561
   21SAPC  C315 2816   4.434   5.828   8.571 -0.5739 -0.0613 -0.1508
   21SAPC  H15X 2817   4.474   5.725   8.559 -1.4878 -0.5483  0.8404
   21SAPC  H15Y 2818   4.513   5.899   8.604 -0.3502 -0.3799 -0.0068
   21SAPC  C316 2819   4.411   5.881   8.422  0.4057 -0.0360 -0.2718
   21SAPC  H16X 2820   4.327   5.826   8.375 -1.7682  0.5468  2.7551
   21SAPC  H16Y 2821   4.508   5.857   8.373  0.6151 -0.6196  0.4152
   21SAPC  C317 2822   4.386   6.040   8.419 -0.6534  1.2345  0.2188
   21SAPC  H17X 2823   4.477   6.083   8.465  0.1604  0.7865 -0.9518
   21SAPC  H17Y 2824   4.304   6.069   8.488 -0.1643  2.2183  0.3872
   21SAPC  C318 2825   4.369   6.085   8.275 -0.1493  0.3421  1.3652
   21SAPC  H18X 2826   4.273   6.050   8.231  0.8074 -0.6335  0.0317
   21SAPC  H18Y 2827   4.453   6.045   8.215  0.1671  3.5242 -0.3910
   21SAPC  H18Z 2828   4.365   6.196   8.279 -1.5718  0.3399  0.4126
   22SAPC     N 2829   3.508   3.785  10.922  0.1773  0.6213 -0.0034
   22SAPC   C12 2830   3.423   3.862  10.819 -0.4047  0.3287 -0.2045
   22SAPC  H12A 2831   3.495   3.903  10.750 -0.8140 -0.5323 -1.1539
   22SAPC  H12B 2832   3.380   3.950  10.864  2.3903  1.8340 -0.4029
   22SAPC   C13 2833   3.589   3.683  10.855 -0.2095  0.7160  0.2143
   22SAPC  H13A 2834   3.647   3.716  10.770 -0.6992 -1.1406 -0.8689
   22SAPC  H13B 2835   3.657   3.634  10.923 -1.0539 -0.1432  0.4471
   22SAPC  H13C 2836   3.514   3.614  10.819  1.8056 -0.5242 -1.7122
   22SAPC   C14 2837   3.605   3.877  10.989  0.1432 -0.0871 -0.5003
   22SAPC  H14A 2838   3.672   3.922  10.917  1.4050  0.7348  1.1577
   22SAPC  H14B 2839   3.552   3.961  11.032  0.7473  0.9032 -1.6635
   22SAPC  H14C 2840   3.660   3.829  11.068  0.6630 -2.7436 -2.4046
   22SAPC   C15 2841   3.428   3.715  11.026 -0.3308  0.8839  0.4375
   22SAPC  H15A 2842   3.380   3.632  10.976 -1.2417  0.7462  1.5381
   22SAPC  H15B 2843   3.499   3.678  11.098  1.1561  1.5307 -0.6561
   22SAPC  H15C 2844   3.358   3.773  11.084  0.3629  1.9220  0.2649
   22SAPC   C11 2845   3.314   3.793  10.747 -0.4479 -0.0039 -0.7269
   22SAPC  H11A 2846   3.249   3.859  10.687 -0.5549 -1.1786 -1.9397
   22SAPC  H11B 2847   3.252   3.750  10.828  0.6597 -0.7765 -0.2628
   22SAPC     P 2848   3.289   3.584  10.591  0.1032 -0.6882  0.2799
   22SAPC   O13 2849   3.292   3.458  10.666  0.8918 -0.4437 -0.4214
   22SAPC   O14 2850   3.161   3.637  10.551  0.5482 -0.6369  0.5271
   22SAPC   O12 2851   3.378   3.693  10.657 -0.6163  0.3689 -0.1404
   22SAPC   O11 2852   3.375   3.559  10.460 -0.5956  0.6774 -0.0159
   22SAPC    C1 2853   3.376   3.664  10.361  0.0200  0.0868 -0.5846
   22SAPC    HA 2854   3.279   3.675  10.308 -1.0183 -2.8467  0.6174
   22SAPC    HB 2855   3.401   3.761  10.410  3.1701 -1.3221  0.7550
   22SAPC    C2 2856   3.475   3.636  10.243 -0.5367 -0.0514 -0.2348
   22SAPC    HS 2857   3.496   3.735  10.197 -1.4965  0.0472 -0.4732
   22SAPC   O21 2858   3.431   3.533  10.159 -0.3034  0.1990  0.4875
   22SAPC   C21 2859   3.362   3.571  10.056  0.0965  0.1172 -0.8886
   22SAPC   O22 2860   3.324   3.687  10.031 -0.1285  0.5079 -0.2124
   22SAPC   C22 2861   3.309   3.448   9.981  0.1813  0.0221 -0.1567
   22SAPC   H2R 2862   3.391   3.375   9.967  1.4847  1.2393  1.0041
   22SAPC   H2S 2863   3.233   3.399  10.046  1.1538 -0.3151  0.7552
   22SAPC    C3 2864   3.618   3.596  10.306 -0.6144 -0.5418  0.2648
   22SAPC    HX 2865   3.599   3.508  10.372 -0.1581 -0.0307  1.0984
   22SAPC    HY 2866   3.635   3.690  10.364 -3.6028  0.2978 -0.1202
   22SAPC   O31 2867   3.715   3.570  10.202 -0.6688 -0.5069 -0.3695
   22SAPC   C31 2868   3.764   3.444  10.190 -0.7871 -0.0315 -0.3208
   22SAPC   O32 2869   3.724   3.356  10.259 -0.0001  0.7282 -0.2249
   22SAPC   C32 2870   3.874   3.439  10.081 -0.5465  0.3339 -0.3982
   22SAPC   H2X 2871   3.976   3.450  10.123 -0.2956 -1.9039 -0.3912
   22SAPC   H2Y 2872   3.853   3.525  10.014 -0.0687 -0.1975 -1.2434
   22SAPC   C23 2873   3.229   3.473   9.843  0.0181 -0.0467  0.0466
   22SAPC   H3R 2874   3.251   3.576   9.808 -1.2104 -0.5585 -2.2930
   22SAPC   H3S 2875   3.119   3.466   9.848 -0.0487  1.4453  1.1345
   22SAPC   C24 2876   3.289   3.389   9.741  0.6250  0.1806 -0.2332
   22SAPC   H4R 2877   3.400   3.394   9.732  0.7681 -0.7435  1.0115
   22SAPC   H4S 2878   3.246   3.418   9.642  1.8126 -1.8726 -1.3879
   22SAPC   C25 2879   3.242   3.241   9.765  0.0479 -0.4299  0.4038
   22SAPC   H5R 2880   3.251   3.195   9.864  2.2871 -1.2781 -0.1563
   22SAPC   C26 2881   3.205   3.150   9.666 -0.4825  0.8059  0.8489
   22SAPC   H6R 2882   3.163   3.054   9.701 -1.1228  0.1809 -1.5794
   22SAPC   C27 2883   3.190   3.171   9.519 -0.0497 -0.6274 -0.2581
   22SAPC   H7R 2884   3.191   3.280   9.496 -0.6676 -0.3046  1.2091
   22SAPC   H7S 2885   3.089   3.138   9.488  0.1409 -1.1033 -0.3735
   22SAPC   C28 2886   3.302   3.093   9.446 -0.3398 -0.3412  0.4826
   22SAPC   H8R 2887   3.323   2.989   9.476 -0.2664 -0.5916 -0.4271
   22SAPC   C29 2888   3.368   3.134   9.341 -0.7614 -0.3641  0.9736
   22SAPC   H9R 2889   3.446   3.070   9.296 -0.6479  0.7533 -0.4776
   22SAPC  C210 2890   3.366   3.260   9.258  0.9608 -0.0096 -0.2826
   22SAPC  H10R 2891   3.457   3.276   9.197  1.4102  0.2651  0.4563
   22SAPC  H10S 2892   3.372   3.340   9.335 -0.6277  1.4047 -1.5763
   22SAPC  C211 2893   3.243   3.307   9.179 -0.6126  0.0718 -0.1126
   22SAPC  H11R 2894   3.218   3.412   9.200  1.1563  0.5373 -0.2454
   22SAPC  C212 2895   3.167   3.240   9.090  0.0160 -0.9507  0.2910
   22SAPC  H12R 2896   3.091   3.301   9.039  1.2424  1.2265  0.9887
   22SAPC  C213 2897   3.180   3.107   9.036 -0.4306 -0.5026  0.7507
   22SAPC  H13R 2898   3.104   3.042   9.084 -0.2384 -2.0036 -0.9279
   22SAPC  H13S 2899   3.284   3.070   9.053  0.0807  1.7045  2.8190
   22SAPC  C214 2900   3.155   3.108   8.891  0.9052 -0.1752  0.5637
   22SAPC  H14R 2901   3.051   3.136   8.870  0.5539 -0.7438  1.5024
   22SAPC  C215 2902   3.232   3.088   8.785  0.4561 -0.4894 -0.4985
   22SAPC  H15R 2903   3.189   3.104   8.685 -0.5637  0.4573  0.0844
   22SAPC  C216 2904   3.380   3.054   8.791 -0.2279 -0.2023  0.1829
   22SAPC  H16R 2905   3.416   3.018   8.692 -1.0138  0.1044 -0.2206
   22SAPC  H16S 2906   3.409   2.973   8.861  1.4241 -0.7840 -1.1315
   22SAPC  C217 2907   3.457   3.185   8.828  0.4762 -0.3902  0.3866
   22SAPC  H17R 2908   3.564   3.159   8.838 -0.1157 -2.1554  2.5685
   22SAPC  H17S 2909   3.418   3.225   8.924 -1.6299  1.4457 -1.1659
   22SAPC  C218 2910   3.443   3.301   8.725 -0.1898 -0.0871  0.3434
   22SAPC  H18R 2911   3.490   3.389   8.774  0.8945 -0.1193 -0.6175
   22SAPC  H18S 2912   3.336   3.323   8.701 -0.1431 -1.7677 -1.4763
   22SAPC  C219 2913   3.513   3.263   8.596  0.6058  0.5203 -0.5653
   22SAPC  H19R 2914   3.434   3.239   8.522 -1.3420  0.7065  1.3935
   22SAPC  H19S 2915   3.556   3.161   8.601 -0.3025  0.2177  1.8390
   22SAPC  C220 2916   3.604   3.374   8.536  0.6687 -0.1961  0.0517
   22SAPC  H20R 2917   3.658   3.344   8.444  1.2628  0.3268  0.2275
   22SAPC  H20S 2918   3.681   3.404   8.611 -0.5205 -0.5162  1.4331
   22SAPC  H20T 2919   3.543   3.459   8.500 -1.1230 -1.8214 -0.8248
   22SAPC   C33 2920   3.870   3.302  10.008 -0.2812 -0.5270  0.6988
   22SAPC   H3X 2921   3.886   3.217  10.078 -1.3756 -2.2846 -1.1089
   22SAPC   H3Y 2922   3.953   3.289   9.935  0.0004 -2.0984  1.2834
   22SAPC   C34 2923   3.739   3.274   9.939  0.9146 -0.2028 -0.1385
   22SAPC   H4X 2924   3.697   3.368   9.897  3.3304  1.2365  0.5924
   22SAPC   H4Y 2925   3.673   3.230  10.017  2.6533  0.2407  1.6013
   22SAPC   C35 2926   3.736   3.161   9.838 -0.3177  0.5046 -0.1892
   22SAPC   H5X 2927   3.783   3.070   9.882 -0.1026  1.1387  0.9115
   22SAPC   H5Y 2928   3.801   3.180   9.750  0.4012  2.1217  0.6656
   22SAPC   C36 2929   3.599   3.129   9.787 -0.0730 -0.1429  0.2021
   22SAPC   H6X 2930   3.567   3.201   9.709 -2.6619 -0.0724  1.2599
   22SAPC   H6Y 2931   3.532   3.132   9.876 -1.7166 -0.6603 -0.9993
   22SAPC   C37 2932   3.587   2.986   9.731 -0.1684  0.4213 -0.1187
   22SAPC   H7X 2933   3.479   2.969   9.709 -0.3196  1.1620  0.0436
   22SAPC   H7Y 2934   3.620   2.926   9.817 -1.3343  1.0233  0.7704
   22SAPC   C38 2935   3.663   2.979   9.597 -0.2044 -0.2977  0.2692
   22SAPC   H8X 2936   3.773   2.980   9.616 -0.4676  2.0154  1.7735
   22SAPC   H8Y 2937   3.642   3.073   9.542  0.0967  0.6930  1.8394
   22SAPC   C39 2938   3.619   2.847   9.512  0.1224  0.0633  0.1019
   22SAPC   H9X 2939   3.520   2.871   9.467 -0.1641  1.4473  1.4045
   22SAPC   H9Y 2940   3.599   2.759   9.576  0.1425 -0.9911 -1.3304
   22SAPC  C310 2941   3.720   2.823   9.405 -0.6480  0.1432  0.6294
   22SAPC  H10X 2942   3.721   2.714   9.380 -3.4751  0.5083 -1.1831
   22SAPC  H10Y 2943   3.810   2.865   9.456 -0.8979  0.5949  0.6906
   22SAPC  C311 2944   3.692   2.904   9.279 -0.3340  0.8241  1.0408
   22SAPC  H11X 2945   3.655   3.006   9.303  1.6978  1.6550  0.7011
   22SAPC  H11Y 2946   3.607   2.860   9.222 -0.0807  0.6936  0.7660
   22SAPC  C312 2947   3.816   2.917   9.189  0.0730 -0.1123  1.1772
   22SAPC  H12X 2948   3.840   2.817   9.148 -2.0741 -0.8853  1.7496
   22SAPC  H12Y 2949   3.902   2.953   9.250  2.0414 -1.7856 -0.5638
   22SAPC  C313 2950   3.799   3.012   9.069 -0.1845 -0.1010  0.2563
   22SAPC  H13X 2951   3.789   3.117   9.104 -0.9638 -0.0957  0.0058
   22SAPC  H13Y 2952   3.710   2.990   9.007 -0.5660 -0.7219  1.0182
   22SAPC  C314 2953   3.905   3.011   8.961  0.0358 -0.4843  0.2904
   22SAPC  H14X 2954   3.947   2.909   8.955 -0.2693 -0.6614  1.1219
   22SAPC  H14Y 2955   3.983   3.083   8.994 -2.5512  2.6118 -0.0422
   22SAPC  C315 2956   3.850   3.061   8.827  0.2376  0.4217 -0.1534
   22SAPC  H15X 2957   3.791   3.155   8.842  1.0594  0.7547  1.0392
   22SAPC  H15Y 2958   3.780   2.989   8.779  0.9398  0.4939 -1.3033
   22SAPC  C316 2959   3.964   3.085   8.726  0.0232 -0.1525  0.1665
   22SAPC  H16X 2960   4.033   2.999   8.716  0.1327 -0.1599  0.9925
   22SAPC  H16Y 2961   4.032   3.158   8.774  2.8288 -0.7945 -2.6556
   22SAPC  C317 2962   3.917   3.129   8.593  0.0275 -0.4922  0.2202
   22SAPC  H17X 2963   3.852   3.218   8.605  0.1181 -0.4887  0.6889
   22SAPC  H17Y 2964   3.851   3.053   8.547 -0.6760  0.2401  0.0043
   22SAPC  C318 2965   4.030   3.154   8.490  0.4063 -0.1626 -0.4435
   22SAPC  H18X 2966   4.000   3.150   8.384  3.0186  1.8300 -1.3342
   22SAPC  H18Y 2967   4.108   3.075   8.498  0.9325  0.3103 -0.8112
   22SAPC  H18Z 2968   4.071   3.256   8.510  0.9205 -0.3930 -0.3258
   23SAPC     N 2969   4.620   4.920  11.165  0.5947 -0.1022  0.3993
   23SAPC   C12 2970   4.607   4.838  11.042  0.6567 -0.8755  0.1436
   23SAPC  H12A 2971   4.503   4.809  11.035  0.2864  0.1696  1.0981
   23SAPC  H12B 2972   4.661   4.745  11.047  0.1147 -1.2378 -0.7541
   23SAPC   C13 2973   4.585   4.837  11.282 -0.2770 -0.8894 -0.0832
   23SAPC  H13A 2974   4.570   4.897  11.371 -1.6212 -0.9210 -0.2819
   23SAPC  H13B 2975   4.494   4.779  11.282 -1.3294  0.7134  0.7335
   23SAPC  H13C 2976   4.672   4.779  11.307 -0.4200 -1.2767 -0.4774
   23SAPC   C14 2977   4.763   4.953  11.183  0.4075  0.6507  0.5786
   23SAPC  H14A 2978   4.778   5.020  11.267  0.9799 -0.7342  1.5982
   23SAPC  H14B 2979   4.823   4.864  11.190 -0.6504 -0.0929  0.2411
   23SAPC  H14C 2980   4.805   5.009  11.101  2.3429 -0.1241  1.0049
   23SAPC   C15 2981   4.525   5.033  11.162 -0.4860 -0.5551 -0.4467
   23SAPC  H15A 2982   4.427   4.993  11.137 -1.9328  2.1691  0.6575
   23SAPC  H15B 2983   4.522   5.089  11.254  2.4302  1.1231 -1.3388
   23SAPC  H15C 2984   4.563   5.101  11.088  0.5470 -0.5742  0.0627
   23SAPC   C11 2985   4.637   4.906  10.903 -0.1106 -0.4428 -0.0765
   23SAPC  H11A 2986   4.611   4.831  10.826 -0.4710  1.2765 -1.6571
   23SAPC  H11B 2987   4.745   4.927  10.886  0.4071 -3.5254 -1.0085
   23SAPC     P 2988   4.444   5.053  10.798  0.0343  0.4687  0.2039
   23SAPC   O13 2989   4.351   4.935  10.808  0.0258  0.1713  0.0121
   23SAPC   O14 2990   4.389   5.189  10.816  0.1117 -0.2367  0.3873
   23SAPC   O12 2991   4.572   5.033  10.888 -0.0972  0.5450 -0.2596
   23SAPC   O11 2992   4.504   5.048  10.652  0.1602  0.4910 -0.2254
   23SAPC    C1 2993   4.574   5.169  10.616  0.2997  0.1696 -0.4729
   23SAPC    HA 2994   4.500   5.231  10.561 -1.4441 -1.6058 -0.1658
   23SAPC    HB 2995   4.615   5.231  10.699 -2.4549 -0.9776  1.8160
   23SAPC    C2 2996   4.697   5.142  10.520  0.2185 -0.3575  0.0099
   23SAPC    HS 2997   4.726   5.241  10.477 -0.5538  0.3846  1.1856
   23SAPC   O21 2998   4.667   5.043  10.421 -0.0486  0.6025 -0.3177
   23SAPC   C21 2999   4.592   5.076  10.320 -0.4641 -0.2309  0.4771
   23SAPC   O22 3000   4.556   5.191  10.293  0.3212  0.4008 -0.6178
   23SAPC   C22 3001   4.566   4.954  10.241 -0.6880  0.1625 -0.1355
   23SAPC   H2R 3002   4.652   4.895  10.202  0.3730  0.8504  1.1109
   23SAPC   H2S 3003   4.507   4.886  10.306 -1.2641  2.1218  1.4466
   23SAPC    C3 3004   4.822   5.094  10.592 -0.2867 -0.6595  0.6556
   23SAPC    HX 3005   4.803   4.992  10.634 -2.3253  0.1672  1.7702
   23SAPC    HY 3006   4.826   5.168  10.674 -1.4085  0.5976 -0.4143
   23SAPC   O31 3007   4.937   5.078  10.507  0.5527  0.3411 -0.2776
   23SAPC   C31 3008   5.035   5.167  10.533  0.2243 -0.1123 -0.2596
   23SAPC   O32 3009   5.029   5.265  10.607 -0.4183 -0.1170  0.1202
   23SAPC   C32 3010   5.151   5.124  10.448  0.0727  0.0373 -0.3860
   23SAPC   H2X 3011   5.112   5.104  10.346  1.8551 -0.7731 -0.9167
   23SAPC   H2Y 3012   5.199   5.035  10.494  0.5988 -0.1914 -1.3605
   23SAPC   C23 3013   4.463   4.976  10.125  0.1789 -0.4705  0.0564
   23SAPC   H3R 3014   4.504   5.038  10.042  1.7251  0.6964  1.6505
   23SAPC   H3S 3015   4.377   5.036  10.161  0.8043  0.2775  0.3182
   23SAPC   C24 3016   4.424   4.842  10.062  0.2369  0.3261 -0.0009
   23SAPC   H4R 3017   4.392   4.782  10.150 -0.0737  0.2262 -0.1852
   23SAPC   H4S 3018   4.507   4.803   9.998 -1.4379 -0.4644 -1.7412
   23SAPC   C25 3019   4.312   4.874   9.975 -0.4528 -0.4023 -0.1360
   23SAPC   H5R 3020   4.232   4.934  10.021  0.3713  1.1395 -0.6668
   23SAPC   C26 3021   4.297   4.831   9.849 -0.0120  0.1176  0.2586
   23SAPC   H6R 3022   4.200   4.852   9.801 -1.0492  0.0328  2.2795
   23SAPC   C27 3023   4.399   4.754   9.763  0.1867 -0.1786 -0.0110
   23SAPC   H7R 3024   4.330   4.701   9.693  0.7203  0.2080 -0.8442
   23SAPC   H7S 3025   4.454   4.676   9.820 -0.7435 -0.5495  0.3910
   23SAPC   C28 3026   4.491   4.842   9.689  0.5998 -0.5928  0.5365
   23SAPC   H8R 3027   4.578   4.868   9.750  1.2952 -3.1978  0.6841
   23SAPC   C29 3028   4.481   4.889   9.561  0.2435 -0.6601  0.0665
   23SAPC   H9R 3029   4.559   4.955   9.520  0.3435 -0.8628 -0.0636
   23SAPC  C210 3030   4.376   4.854   9.464  0.1658  0.5314  0.0775
   23SAPC  H10R 3031   4.376   4.931   9.384 -0.8739  1.1614  0.6604
   23SAPC  H10S 3032   4.276   4.877   9.506 -0.2750 -1.5117  0.1873
   23SAPC  C211 3033   4.379   4.717   9.400 -0.7876  0.9076 -0.0355
   23SAPC  H11R 3034   4.344   4.634   9.463 -2.6363  2.8402  1.5653
   23SAPC  C212 3035   4.434   4.676   9.284 -0.0317  0.2026 -0.5208
   23SAPC  H12R 3036   4.419   4.568   9.266 -1.7518  0.4653 -0.7978
   23SAPC  C213 3037   4.504   4.752   9.174 -0.6179  0.0259  0.9961
   23SAPC  H13R 3038   4.551   4.680   9.104 -1.8433  1.3868 -1.2775
   23SAPC  H13S 3039   4.584   4.812   9.222  0.0004 -1.6808  2.1452
   23SAPC  C214 3040   4.399   4.829   9.092  0.2217 -0.1613 -0.8085
   23SAPC  H14R 3041   4.300   4.852   9.134  0.3339  0.3876 -0.8366
   23SAPC  C215 3042   4.416   4.867   8.961 -0.3537 -0.4358 -0.2776
   23SAPC  H15R 3043   4.342   4.930   8.910 -1.7391 -1.3985  0.5037
   23SAPC  C216 3044   4.547   4.841   8.876 -0.3842 -0.7967 -0.2858
   23SAPC  H16R 3045   4.626   4.782   8.926 -1.1425  0.3264  2.3537
   23SAPC  H16S 3046   4.588   4.943   8.863 -1.4018 -0.0918  1.8113
   23SAPC  C217 3047   4.521   4.769   8.745 -0.3672  0.0582 -0.2668
   23SAPC  H17R 3048   4.459   4.823   8.670  1.4622 -0.0358 -1.8814
   23SAPC  H17S 3049   4.468   4.675   8.772  0.9676 -0.5796  0.1387
   23SAPC  C218 3050   4.660   4.723   8.682  0.5414  1.2093 -0.3733
   23SAPC  H18R 3051   4.646   4.648   8.602  0.4852  1.9686 -1.0781
   23SAPC  H18S 3052   4.739   4.689   8.753 -1.5926 -1.3788  0.8630
   23SAPC  C219 3053   4.722   4.846   8.607  0.0197 -0.0430 -0.2884
   23SAPC  H19R 3054   4.833   4.846   8.604  0.1256  0.4311  2.1375
   23SAPC  H19S 3055   4.686   4.934   8.665 -0.1710 -1.6603  2.1352
   23SAPC  C220 3056   4.673   4.851   8.461  0.0034 -0.3624 -0.0003
   23SAPC  H20R 3057   4.562   4.850   8.452 -0.0544  1.4439  0.3229
   23SAPC  H20S 3058   4.705   4.764   8.401 -2.3400 -1.6583  0.5840
   23SAPC  H20T 3059   4.702   4.945   8.409  0.1141 -0.0096  0.6891
   23SAPC   C33 3060   5.270   5.225  10.435 -0.2328  0.1105 -0.1678
   23SAPC   H3X 3061   5.338   5.238  10.522  1.4163 -2.3603 -1.0417
   23SAPC   H3Y 3062   5.234   5.326  10.409 -1.8420 -0.1487  0.9782
   23SAPC   C34 3063   5.352   5.187  10.310 -0.0882 -0.7532  0.2609
   23SAPC   H4X 3064   5.393   5.084  10.325 -1.7573 -1.3750  0.6551
   23SAPC   H4Y 3065   5.444   5.250  10.310  2.1017 -3.8050  1.7586
   23SAPC   C35 3066   5.280   5.216  10.179 -0.0109  0.4897  0.1307
   23SAPC   H5X 3067   5.202   5.290  10.205 -1.2991 -0.2305 -1.5612
   23SAPC   H5Y 3068   5.221   5.128  10.145  0.4267  0.3852 -0.3693
   23SAPC   C36 3069   5.366   5.251  10.055  0.3922  0.1406 -0.0176
   23SAPC   H6X 3070   5.414   5.348  10.078 -3.0493  1.7274  0.7564
   23SAPC   H6Y 3071   5.299   5.269   9.968  1.1056 -0.3887 -0.6872
   23SAPC   C37 3072   5.460   5.135  10.004  0.3510  0.1613  0.1683
   23SAPC   H7X 3073   5.404   5.040  10.015 -0.6482  0.9788  2.3643
   23SAPC   H7Y 3074   5.535   5.123  10.086  0.4275  2.1042  0.4047
   23SAPC   C38 3075   5.545   5.155   9.877  0.9880  0.3020  0.0169
   23SAPC   H8X 3076   5.605   5.063   9.866 -0.7305 -0.9656  0.8524
   23SAPC   H8Y 3077   5.603   5.249   9.872 -0.9119  1.4385 -1.2890
   23SAPC   C39 3078   5.452   5.172   9.752 -0.3025  0.2576 -0.1950
   23SAPC   H9X 3079   5.390   5.263   9.767 -0.2673 -0.1218  2.6397
   23SAPC   H9Y 3080   5.390   5.080   9.764  0.9954 -0.3041  2.6579
   23SAPC  C310 3081   5.522   5.183   9.620 -0.4113 -0.0847  0.6316
   23SAPC  H10X 3082   5.583   5.091   9.614  0.4184  0.4888  0.1715
   23SAPC  H10Y 3083   5.589   5.271   9.615  0.6741 -0.9422 -0.2306
   23SAPC  C311 3084   5.427   5.189   9.503  0.2386  0.3438  0.2276
   23SAPC  H11X 3085   5.374   5.286   9.507 -2.2185 -0.9944  1.5344
   23SAPC  H11Y 3086   5.363   5.099   9.513  1.5712 -0.8343 -1.5691
   23SAPC  C312 3087   5.488   5.166   9.368 -0.0939 -0.1667  0.2206
   23SAPC  H12X 3088   5.530   5.065   9.350  0.2939  0.3658 -2.1064
   23SAPC  H12Y 3089   5.564   5.247   9.354  0.1750 -0.4480  0.0518
   23SAPC  C313 3090   5.378   5.185   9.258 -0.7206  0.1498 -0.0807
   23SAPC  H13X 3091   5.330   5.284   9.276 -0.0997 -0.0908  3.1713
   23SAPC  H13Y 3092   5.309   5.100   9.274 -0.4934  0.3365  1.9962
   23SAPC  C314 3093   5.445   5.172   9.117 -0.6564  0.4210  0.1098
   23SAPC  H14X 3094   5.504   5.078   9.112 -0.8499  0.0766  3.2896
   23SAPC  H14Y 3095   5.524   5.244   9.084  2.9953 -3.9336 -1.1266
   23SAPC  C315 3096   5.338   5.173   9.007  0.1953  0.4021 -0.0003
   23SAPC  H15X 3097   5.298   5.275   8.986 -1.0896  0.0061  0.4444
   23SAPC  H15Y 3098   5.245   5.123   9.041 -0.1160  1.0350  0.1018
   23SAPC  C316 3099   5.390   5.116   8.875 -0.5886 -0.1190 -0.4188
   23SAPC  H16X 3100   5.442   5.018   8.886  0.3506  0.4387  0.1290
   23SAPC  H16Y 3101   5.467   5.191   8.849  0.9766  0.0324  4.1212
   23SAPC  C317 3102   5.278   5.110   8.760  0.5460 -0.2688  0.2610
   23SAPC  H17X 3103   5.220   5.205   8.752  1.2397  0.3863  2.5990
   23SAPC  H17Y 3104   5.213   5.027   8.794 -0.2472  0.2528  0.0344
   23SAPC  C318 3105   5.349   5.069   8.630  0.4906  0.1178 -0.4418
   23SAPC  H18X 3106   5.383   5.153   8.566  1.1540  0.0310 -0.2067
   23SAPC  H18Y 3107   5.282   5.008   8.566  0.7053 -2.3172  1.5612
   23SAPC  H18Z 3108   5.424   4.991   8.654 -0.2141 -0.0930  1.1421
   24SAPC     N 3109   0.914   5.943  11.049  0.4730 -0.4112 -0.5505
   24SAPC   C12 3110   1.034   5.858  11.064 -0.1712  0.7336  0.3134
   24SAPC  H12A 3111   1.058   5.830  11.166  3.2966  0.8917 -0.3767
   24SAPC  H12B 3112   1.123   5.907  11.026  0.2850  0.5300  1.1054
   24SAPC   C13 3113   0.949   6.069  11.119  0.4055  0.0184 -0.1053
   24SAPC  H13A 3114   1.015   6.126  11.054 -0.2949  1.1748  0.1708
   24SAPC  H13B 3115   0.865   6.136  11.132  1.7037  1.4440  1.1608
   24SAPC  H13C 3116   1.003   6.064  11.212  0.3517  1.3556  0.0162
   24SAPC   C14 3117   0.886   5.987  10.910  0.5344  0.4942  0.2793
   24SAPC  H14A 3118   0.830   6.079  10.903  3.0995  2.1118  0.3668
   24SAPC  H14B 3119   0.978   5.993  10.853 -0.8233  1.4063 -1.8793
   24SAPC  H14C 3120   0.826   5.912  10.861  0.5244 -0.3067  1.5011
   24SAPC   C15 3121   0.798   5.883  11.112  0.8730 -0.2759 -0.3021
   24SAPC  H15A 3122   0.707   5.942  11.110  1.5580  0.8301  1.2409
   24SAPC  H15B 3123   0.774   5.785  11.073  0.7734 -0.2108 -0.4085
   24SAPC  H15C 3124   0.826   5.860  11.214  1.5489 -0.5514 -0.5488
   24SAPC   C11 3125   1.037   5.718  10.999  0.2390  0.0191 -0.3156
   24SAPC  H11A 3126   1.145   5.690  10.996  0.6416  1.1602  1.8362
   24SAPC  H11B 3127   0.990   5.732  10.900  1.8180  2.0567 -0.8294
   24SAPC     P 3128   0.999   5.472  11.054  0.0472 -0.5867 -0.1440
   24SAPC   O13 3129   1.149   5.457  11.060 -0.1884  0.6837  0.5390
   24SAPC   O14 3130   0.914   5.397  11.147  0.0114  0.2592 -0.4022
   24SAPC   O12 3131   0.961   5.627  11.072  0.3726  0.2222 -0.1447
   24SAPC   O11 3132   0.957   5.439  10.907 -0.8039 -0.0748 -0.1699
   24SAPC    C1 3133   0.822   5.455  10.874  0.2328 -0.4240 -0.1477
   24SAPC    HA 3134   0.754   5.402  10.943  0.2902 -1.5470 -0.9255
   24SAPC    HB 3135   0.791   5.561  10.863  3.6306  0.5076 -1.5765
   24SAPC    C2 3136   0.783   5.386  10.740  0.6364  0.1175  0.0332
   24SAPC    HS 3137   0.810   5.279  10.753 -0.0201 -0.1765 -1.0062
   24SAPC   O21 3138   0.854   5.448  10.636  0.6687 -0.5848 -0.0554
   24SAPC   C21 3139   0.886   5.374  10.531  0.5979  0.6883 -0.0115
   24SAPC   O22 3140   0.880   5.254  10.525 -0.2562 -0.2541 -0.1082
   24SAPC   C22 3141   0.925   5.463  10.414  0.6750 -0.1725  0.3916
   24SAPC   H2R 3142   0.846   5.533  10.379 -0.4253 -2.5726 -2.0316
   24SAPC   H2S 3143   1.018   5.518  10.439 -0.6531  2.0546  0.6015
   24SAPC    C3 3144   0.633   5.389  10.712  0.2116 -0.5496  0.7744
   24SAPC    HX 3145   0.593   5.492  10.712  0.4686 -0.4221 -1.3501
   24SAPC    HY 3146   0.586   5.350  10.805  0.2207 -1.2792  0.4822
   24SAPC   O31 3147   0.586   5.322  10.588  0.5007  0.0574 -0.0138
   24SAPC   C31 3148   0.577   5.190  10.597 -0.1652 -0.0757  0.9681
   24SAPC   O32 3149   0.578   5.119  10.701 -0.2406 -0.2546  0.6482
   24SAPC   C32 3150   0.577   5.135  10.457 -0.0342  0.6420 -0.6113
   24SAPC   H2X 3151   0.674   5.168  10.413  0.7651  0.9765  1.3327
   24SAPC   H2Y 3152   0.489   5.183  10.409  0.3588  1.1329 -0.8434
   24SAPC   C23 3153   0.958   5.373  10.296  0.5126  1.3377 -0.0900
   24SAPC   H3R 3154   0.866   5.330  10.253  0.2540  1.4982  0.2935
   24SAPC   H3S 3155   1.030   5.292  10.320 -2.5918 -2.1051 -1.7984
   24SAPC   C24 3156   1.030   5.465  10.189 -0.1407 -0.5398 -0.3646
   24SAPC   H4R 3157   1.119   5.507  10.240 -1.1223  3.2559 -1.6554
   24SAPC   H4S 3158   0.959   5.548  10.170  2.1331  1.7366  0.8473
   24SAPC   C25 3159   1.079   5.397  10.062  0.0757 -0.0469 -0.0686
   24SAPC   H5R 3160   1.119   5.295  10.074 -0.9187 -0.3778  0.4855
   24SAPC   C26 3161   1.084   5.457   9.940 -0.1623  0.5338 -0.0802
   24SAPC   H6R 3162   1.126   5.410   9.849 -0.7950  1.8014 -1.0368
   24SAPC   C27 3163   1.041   5.605   9.917 -0.1523  0.2855 -0.8879
   24SAPC   H7R 3164   1.131   5.669   9.927 -0.1091 -0.0493  0.9831
   24SAPC   H7S 3165   0.968   5.641   9.992  0.0639 -1.0161 -0.0198
   24SAPC   C28 3166   0.988   5.632   9.777  0.1062 -0.1074  0.5201
   24SAPC   H8R 3167   0.880   5.653   9.776 -0.0349 -0.6554 -2.3567
   24SAPC   C29 3168   1.063   5.616   9.663 -0.1751 -0.1071  0.2215
   24SAPC   H9R 3169   1.007   5.633   9.570  0.3843  1.2911  0.1322
   24SAPC  C210 3170   1.206   5.580   9.647 -0.3603  0.6189  0.0121
   24SAPC  H10R 3171   1.251   5.563   9.747 -0.7712 -1.2368 -0.1125
   24SAPC  H10S 3172   1.260   5.675   9.628  2.4580 -1.1349 -1.0759
   24SAPC  C211 3173   1.247   5.469   9.551 -0.2540 -0.2650 -0.5757
   24SAPC  H11R 3174   1.215   5.370   9.585 -0.2104 -0.8765 -2.3168
   24SAPC  C212 3175   1.309   5.472   9.431 -0.6215 -0.2978  0.2869
   24SAPC  H12R 3176   1.330   5.377   9.380 -0.4812 -0.5490  0.8043
   24SAPC  C213 3177   1.348   5.601   9.358 -0.4611  0.0530  0.7208
   24SAPC  H13R 3178   1.459   5.606   9.358 -0.4922  1.0436 -0.2908
   24SAPC  H13S 3179   1.315   5.694   9.408 -3.7705  0.1281 -1.4919
   24SAPC  C214 3180   1.324   5.608   9.207  0.2856 -0.4785 -0.5495
   24SAPC  H14R 3181   1.416   5.593   9.147  0.8129 -0.4593  0.2497
   24SAPC  C215 3182   1.204   5.637   9.149  0.0388  0.9290 -0.1482
   24SAPC  H15R 3183   1.198   5.646   9.040  0.3848 -0.2780 -0.2695
   24SAPC  C216 3184   1.065   5.662   9.210 -0.4397 -0.1103  0.1040
   24SAPC  H16R 3185   1.030   5.766   9.196 -2.2112 -0.5487  1.0895
   24SAPC  H16S 3186   1.059   5.650   9.321  0.4955  0.1389  0.1851
   24SAPC  C217 3187   0.973   5.565   9.139 -0.7361  0.0204 -0.0259
   24SAPC  H17R 3188   0.873   5.573   9.187 -0.3421 -2.3780  1.2178
   24SAPC  H17S 3189   0.998   5.458   9.150 -0.0850  0.1175 -0.5472
   24SAPC  C218 3190   0.938   5.585   8.990  0.4918  0.1775 -0.8183
   24SAPC  H18R 3191   0.878   5.500   8.950 -0.5995  0.7472 -0.4018
   24SAPC  H18S 3192   1.034   5.581   8.934 -0.3108  0.1595 -2.2215
   24SAPC  C219 3193   0.869   5.721   8.962 -0.2635 -0.3083 -1.1608
   24SAPC  H19R 3194   0.934   5.776   8.890  0.3450 -1.0060 -1.1542
   24SAPC  H19S 3195   0.883   5.779   9.056  1.4749 -1.1015 -0.9104
   24SAPC  C220 3196   0.721   5.716   8.933 -0.2954 -0.6923  0.2678
   24SAPC  H20R 3197   0.695   5.823   8.914  1.2434 -0.2570  0.5625
   24SAPC  H20S 3198   0.653   5.674   9.011  0.3946 -0.4622  0.9991
   24SAPC  H20T 3199   0.707   5.680   8.829 -0.1440 -0.1694  0.0654
   24SAPC   C33 3200   0.553   4.987  10.473  0.4422  0.0760  0.5265
   24SAPC   H3X 3201   0.482   4.954  10.552  0.0858  0.1352  0.2327
   24SAPC   H3Y 3202   0.648   4.931  10.485  0.8195  1.0366  2.1068
   24SAPC   C34 3203   0.487   4.932  10.345 -0.1269 -0.2882 -0.0950
   24SAPC   H4X 3204   0.389   4.983  10.335 -1.3285 -2.3476  0.7926
   24SAPC   H4Y 3205   0.460   4.824  10.357 -1.9410  0.3802  2.2860
   24SAPC   C35 3206   0.573   4.956  10.218  0.3121  0.6301  0.2599
   24SAPC   H5X 3207   0.669   4.900  10.226 -0.2555 -0.2470  1.0825
   24SAPC   H5Y 3208   0.593   5.065  10.210 -0.3152  0.6755 -0.6883
   24SAPC   C36 3209   0.509   4.905  10.095  0.4292 -0.1447  0.1916
   24SAPC   H6X 3210   0.423   4.975  10.086 -0.9184 -1.4446  2.4074
   24SAPC   H6Y 3211   0.475   4.800  10.103  2.4745 -0.7542  1.3128
   24SAPC   C37 3212   0.594   4.915   9.968  0.0746 -0.2805  0.2375
   24SAPC   H7X 3213   0.696   4.877   9.988  0.4782  0.0298 -1.1891
   24SAPC   H7Y 3214   0.591   5.024   9.951  0.9733 -0.4937 -1.4305
   24SAPC   C38 3215   0.540   4.840   9.850 -0.0114  0.1595  0.2410
   24SAPC   H8X 3216   0.440   4.879   9.824 -0.9575 -2.0700  0.4490
   24SAPC   H8Y 3217   0.522   4.732   9.872  1.6835 -0.1357  0.3226
   24SAPC   C39 3218   0.624   4.843   9.721  0.2498  0.4340 -0.0752
   24SAPC   H9X 3219   0.729   4.809   9.735  0.2240  0.1074 -0.6661
   24SAPC   H9Y 3220   0.633   4.950   9.693  0.0350  0.8408  1.3439
   24SAPC  C310 3221   0.569   4.752   9.616  0.0212 -0.2906  0.7075
   24SAPC  H10X 3222   0.467   4.787   9.590  1.4553  1.3781 -2.9745
   24SAPC  H10Y 3223   0.562   4.649   9.658 -2.1280  0.0627  1.2763
   24SAPC  C311 3224   0.645   4.749   9.489  0.3393  0.2041  0.5776
   24SAPC  H11X 3225   0.753   4.727   9.505  0.7224  1.1700 -0.6260
   24SAPC  H11Y 3226   0.644   4.847   9.438  0.9530 -0.0629  0.0533
   24SAPC  C312 3227   0.581   4.656   9.390 -0.3912  0.1531  0.1944
   24SAPC  H12X 3228   0.476   4.678   9.361 -0.1827  0.1270 -0.6032
   24SAPC  H12Y 3229   0.588   4.549   9.418 -0.7051 -0.2576 -1.2715
   24SAPC  C313 3230   0.661   4.664   9.261  0.0505  0.5749 -0.3593
   24SAPC  H13X 3231   0.764   4.625   9.272  0.3230  0.9990 -1.3378
   24SAPC  H13Y 3232   0.669   4.773   9.242  1.5497  0.4912 -0.2171
   24SAPC  C314 3233   0.598   4.605   9.138 -0.5939 -0.5096  0.4430
   24SAPC  H14X 3234   0.496   4.647   9.126  0.4897  2.3590  0.9955
   24SAPC  H14Y 3235   0.592   4.496   9.161 -0.3133 -0.7162 -0.4191
   24SAPC  C315 3236   0.687   4.633   9.014  0.1710 -0.5657 -0.7372
   24SAPC  H15X 3237   0.778   4.576   9.043  1.3544  2.1469  1.0689
   24SAPC  H15Y 3238   0.706   4.742   9.010  1.8399 -0.8496 -0.8778
   24SAPC  C316 3239   0.628   4.575   8.886 -0.5373 -0.4486 -0.3789
   24SAPC  H16X 3240   0.630   4.465   8.903 -0.4468 -0.7762 -2.3007
   24SAPC  H16Y 3241   0.705   4.586   8.806  2.0272 -0.0602  2.0461
   24SAPC  C317 3242   0.498   4.631   8.852 -0.0603 -0.0260  0.2240
   24SAPC  H17X 3243   0.492   4.627   8.741 -0.6803  1.2451  0.2046
   24SAPC  H17Y 3244   0.489   4.737   8.883 -0.7817  0.2736 -0.9992
   24SAPC  C318 3245   0.371   4.560   8.897  0.4924  0.2999 -0.2061
   24SAPC  H18X 3246   0.362   4.553   9.007  0.4579 -1.2433 -0.2915
   24SAPC  H18Y 3247   0.359   4.466   8.838  2.5840  0.6851 -1.3116
   24SAPC  H18Z 3248   0.288   4.629   8.872  2.1841  2.6101  0.3638
   25SAPC     N 3249   5.203   3.624   6.007  0.6630  0.7984 -0.5584
   25SAPC   C12 3250   5.063   3.667   6.052  0.1756 -0.0850 -1.0708
   25SAPC  H12A 3251   5.060   3.770   6.019  5.0175  0.2538 -0.8193
   25SAPC  H12B 3252   5.061   3.655   6.160  1.5151 -1.5753 -1.1954
   25SAPC   C13 3253   5.307   3.702   6.068 -0.5851  0.0562 -0.3081
   25SAPC  H13A 3254   5.313   3.797   6.016  1.2088 -0.5561 -1.2776
   25SAPC  H13B 3255   5.290   3.729   6.171  0.9894 -3.5766  0.9753
   25SAPC  H13C 3256   5.402   3.651   6.063  0.1818  1.6272 -3.9359
   25SAPC   C14 3257   5.232   3.485   6.044  0.6652  0.1675 -0.2610
   25SAPC  H14A 3258   5.208   3.464   6.147  0.5546 -2.8087 -0.8359
   25SAPC  H14B 3259   5.163   3.435   5.977  2.3021 -1.3770 -0.8462
   25SAPC  H14C 3260   5.333   3.451   6.022 -0.1581 -1.0354 -2.4022
   25SAPC   C15 3261   5.211   3.635   5.856  0.1779 -0.5900  0.7382
   25SAPC  H15A 3262   5.308   3.604   5.821 -0.8147 -1.5166 -1.2413
   25SAPC  H15B 3263   5.133   3.579   5.808  0.6448  0.2106 -0.9945
   25SAPC  H15C 3264   5.187   3.734   5.818 -0.1033 -1.3972 -1.2369
   25SAPC   C11 3265   4.937   3.595   5.991  0.0687 -0.7374  0.3552
   25SAPC  H11A 3266   4.944   3.615   5.882  0.5910  0.9746  0.6812
   25SAPC  H11B 3267   4.845   3.647   6.025  2.1322  2.3418  1.4479
   25SAPC     P 3268   4.864   3.404   6.141 -0.0179  0.2655 -0.1834
   25SAPC   O13 3269   4.827   3.263   6.112 -0.1550 -0.5720 -0.0858
   25SAPC   O14 3270   4.951   3.427   6.253  0.2186 -0.4634 -0.1960
   25SAPC   O12 3271   4.941   3.452   6.010  0.1414 -0.2648 -0.3097
   25SAPC   O11 3272   4.723   3.491   6.151 -0.4080 -0.1931 -0.0520
   25SAPC    C1 3273   4.718   3.596   6.250  0.0636 -0.0857  0.0501
   25SAPC    HA 3274   4.823   3.630   6.268  0.1148 -0.1685 -0.0873
   25SAPC    HB 3275   4.668   3.685   6.205  1.8351  0.3437 -1.1623
   25SAPC    C2 3276   4.643   3.548   6.373  0.2674  0.0760  0.5462
   25SAPC    HS 3277   4.623   3.636   6.438 -3.8884 -1.4724  1.4708
   25SAPC   O21 3278   4.724   3.437   6.424  0.3990 -0.4263  0.1466
   25SAPC   C21 3279   4.824   3.482   6.502  0.7853  0.6199 -0.5884
   25SAPC   O22 3280   4.847   3.594   6.538  0.2336  0.5986 -0.3314
   25SAPC   C22 3281   4.905   3.361   6.553 -0.2453 -0.0451 -0.3711
   25SAPC   H2R 3282   4.833   3.276   6.547  0.4687 -0.5483 -2.0208
   25SAPC   H2S 3283   4.988   3.347   6.481  0.6015  2.5741  0.0707
   25SAPC    C3 3284   4.504   3.494   6.327  0.1052 -0.2351 -0.4468
   25SAPC    HX 3285   4.526   3.418   6.250  0.9234 -0.1967 -0.2594
   25SAPC    HY 3286   4.444   3.577   6.284  0.8861 -0.7530 -2.5931
   25SAPC   O31 3287   4.455   3.439   6.446 -0.4163 -0.5291 -0.3268
   25SAPC   C31 3288   4.357   3.351   6.432  0.3869 -0.1334  0.2029
   25SAPC   O32 3289   4.310   3.309   6.327 -0.3781  0.2914  0.4189
   25SAPC   C32 3290   4.315   3.300   6.570  0.1438  0.2699 -0.6149
   25SAPC   H2X 3291   4.389   3.221   6.594 -0.4213 -0.1040 -0.0565
   25SAPC   H2Y 3292   4.224   3.241   6.547  0.7558 -1.1629  0.5737
   25SAPC   C23 3293   4.944   3.366   6.702  0.4472  0.5575 -0.4204
   25SAPC   H3R 3294   5.011   3.452   6.723 -1.1317  1.0303  3.1663
   25SAPC   H3S 3295   5.001   3.273   6.720 -1.4220 -0.0510  2.8077
   25SAPC   C24 3296   4.835   3.376   6.809 -0.3038 -0.1244  0.5123
   25SAPC   H4R 3297   4.784   3.475   6.804 -0.0212  0.0112  0.3207
   25SAPC   H4S 3298   4.901   3.386   6.898 -1.3672 -0.4621  1.3410
   25SAPC   C25 3299   4.725   3.269   6.840  0.6843  0.3586 -0.1986
   25SAPC   H5R 3300   4.654   3.254   6.758  0.4210  1.8888 -0.2707
   25SAPC   C26 3301   4.710   3.204   6.956  0.2875 -1.0070  0.0291
   25SAPC   H6R 3302   4.630   3.129   6.961 -0.8428  0.1834 -0.0303
   25SAPC   C27 3303   4.801   3.203   7.077  0.1483  0.4989 -0.3177
   25SAPC   H7R 3304   4.906   3.219   7.046  0.3249 -1.4991 -0.7978
   25SAPC   H7S 3305   4.781   3.102   7.119 -0.8160  0.1493 -1.5935
   25SAPC   C28 3306   4.776   3.299   7.185  0.0235  0.3090  1.0983
   25SAPC   H8R 3307   4.769   3.403   7.150  0.8310  0.1389  0.4165
   25SAPC   C29 3308   4.770   3.278   7.320  0.4368 -0.2688 -0.1634
   25SAPC   H9R 3309   4.756   3.370   7.377 -0.5130 -2.1243  2.6810
   25SAPC  C210 3310   4.795   3.153   7.397 -0.2094 -0.2389  0.2062
   25SAPC  H10R 3311   4.863   3.088   7.338 -0.2846 -0.8372  0.7727
   25SAPC  H10S 3312   4.697   3.099   7.399 -0.0886 -0.4441  0.5630
   25SAPC  C211 3313   4.841   3.159   7.541  0.0319  0.9426 -0.0193
   25SAPC  H11R 3314   4.943   3.129   7.567 -0.1251  1.6898  1.5577
   25SAPC  C212 3315   4.762   3.193   7.647  0.4251  0.3386 -0.2018
   25SAPC  H12R 3316   4.807   3.199   7.746 -1.3112  0.8294  0.5832
   25SAPC  C213 3317   4.614   3.224   7.635  0.0456  0.1516  0.6715
   25SAPC  H13R 3318   4.556   3.154   7.700 -0.1152  1.6484  2.1867
   25SAPC  H13S 3319   4.571   3.212   7.534 -1.3069 -1.4786  1.3972
   25SAPC  C214 3320   4.588   3.370   7.662 -0.3934 -0.3812  0.3869
   25SAPC  H14R 3321   4.567   3.440   7.580  3.2636 -0.2590 -0.5200
   25SAPC  C215 3322   4.597   3.431   7.780 -0.2785 -0.2744  0.6795
   25SAPC  H15R 3323   4.583   3.541   7.784 -0.3129 -0.2891  1.0361
   25SAPC  C216 3324   4.649   3.387   7.917 -0.3088  0.3910  0.6085
   25SAPC  H16R 3325   4.741   3.444   7.942  0.6628 -0.3960 -1.0294
   25SAPC  H16S 3326   4.680   3.280   7.920  1.8246  1.0103  2.4344
   25SAPC  C217 3327   4.536   3.394   8.016  1.0992 -0.3848  0.1370
   25SAPC  H17R 3328   4.573   3.347   8.110  1.8418 -0.5590 -0.2405
   25SAPC  H17S 3329   4.446   3.337   7.983 -0.4619  0.8398  2.1857
   25SAPC  C218 3330   4.482   3.543   8.053 -0.2508 -0.7193 -0.2015
   25SAPC  H18R 3331   4.460   3.592   7.955 -2.7841 -1.5679 -0.0981
   25SAPC  H18S 3332   4.570   3.587   8.105  1.3977 -0.9141 -2.7236
   25SAPC  C219 3333   4.360   3.537   8.145 -0.5223 -0.9189  0.3823
   25SAPC  H19R 3334   4.397   3.491   8.239  1.7488  0.5569  0.2549
   25SAPC  H19S 3335   4.276   3.469   8.116 -0.5199 -1.0163  0.6049
   25SAPC  C220 3336   4.300   3.674   8.173  0.4354 -0.7673 -0.1752
   25SAPC  H20R 3337   4.379   3.731   8.226  0.9977 -0.2867 -1.5108
   25SAPC  H20S 3338   4.216   3.656   8.244 -1.1788  0.2046 -1.8112
   25SAPC  H20T 3339   4.264   3.732   8.085 -0.1319 -1.4726 -0.4137
   25SAPC   C33 3340   4.278   3.403   6.685  0.6244  0.1176 -0.4657
   25SAPC   H3X 3341   4.199   3.357   6.748 -0.2373 -2.1414 -3.1125
   25SAPC   H3Y 3342   4.227   3.492   6.642  1.0742  0.3992 -0.4180
   25SAPC   C34 3343   4.396   3.427   6.783 -0.0230 -0.4686 -0.5012
   25SAPC   H4X 3344   4.465   3.504   6.740  0.8125 -0.9051  0.0357
   25SAPC   H4Y 3345   4.453   3.332   6.789 -1.0188 -1.0478 -0.2979
   25SAPC   C35 3346   4.347   3.445   6.929  0.5479  0.2680 -0.3768
   25SAPC   H5X 3347   4.306   3.348   6.963  0.3150  0.4542 -0.1184
   25SAPC   H5Y 3348   4.266   3.522   6.928 -0.3193 -0.6395 -0.8003
   25SAPC   C36 3349   4.467   3.475   7.023 -0.0959 -0.4521 -0.1090
   25SAPC   H6X 3350   4.536   3.389   7.015  1.0813  0.4362  0.2498
   25SAPC   H6Y 3351   4.424   3.480   7.126  2.1951  1.5392  0.8015
   25SAPC   C37 3352   4.527   3.622   7.012  0.5702 -0.3361 -0.0342
   25SAPC   H7X 3353   4.445   3.697   7.009  0.5403 -0.3604  0.2386
   25SAPC   H7Y 3354   4.578   3.627   6.913  1.7133 -2.3538  0.4245
   25SAPC   C38 3355   4.624   3.669   7.120  0.3843 -0.1122 -0.1456
   25SAPC   H8X 3356   4.693   3.748   7.083 -0.3346  1.0338  0.9606
   25SAPC   H8Y 3357   4.694   3.585   7.141  0.3527  0.4867  2.5130
   25SAPC   C39 3358   4.560   3.706   7.251 -0.0292  0.1576 -0.1711
   25SAPC   H9X 3359   4.495   3.629   7.298  1.3583  0.7001  2.7531
   25SAPC   H9Y 3360   4.495   3.793   7.229 -1.2857 -0.7080  0.0104
   25SAPC  C310 3361   4.670   3.733   7.352  0.0294  0.3871 -0.3174
   25SAPC  H10X 3362   4.733   3.824   7.343  0.0345  0.2484 -1.7253
   25SAPC  H10Y 3363   4.736   3.645   7.362  0.3739  0.7504  0.6756
   25SAPC  C311 3364   4.619   3.765   7.504  0.4826  0.2208  0.4719
   25SAPC  H11X 3365   4.560   3.682   7.548  0.4497  0.2830  0.5461
   25SAPC  H11Y 3366   4.548   3.850   7.503 -0.4419 -0.5438  0.7262
   25SAPC  C312 3367   4.733   3.785   7.603 -0.0600 -0.4886  0.6739
   25SAPC  H12X 3368   4.803   3.857   7.556  0.3563 -1.1178  0.3241
   25SAPC  H12Y 3369   4.787   3.690   7.620 -1.1309 -0.8821  1.9515
   25SAPC  C313 3370   4.688   3.848   7.736 -0.6242 -0.0002 -0.9367
   25SAPC  H13X 3371   4.584   3.812   7.749 -0.3670 -0.5461 -0.3655
   25SAPC  H13Y 3372   4.676   3.956   7.712 -0.4081  0.4615  0.9279
   25SAPC  C314 3373   4.779   3.809   7.857  0.1837  0.7829  0.3842
   25SAPC  H14X 3374   4.883   3.847   7.844  0.6560 -0.9676 -1.0964
   25SAPC  H14Y 3375   4.773   3.698   7.862 -0.0019  0.7431 -0.5983
   25SAPC  C315 3376   4.707   3.856   7.983 -0.1729 -0.0995  0.1010
   25SAPC  H15X 3377   4.598   3.837   7.979 -0.3178  0.6020  0.5540
   25SAPC  H15Y 3378   4.723   3.966   7.991  2.3253 -0.3755 -0.4641
   25SAPC  C316 3379   4.761   3.788   8.112  0.2955 -0.0789  0.5225
   25SAPC  H16X 3380   4.868   3.816   8.129 -0.3120  1.7550  1.4905
   25SAPC  H16Y 3381   4.761   3.677   8.102  2.9776  0.0415 -1.3709
   25SAPC  C317 3382   4.674   3.824   8.232  0.0928 -1.2958  0.8462
   25SAPC  H17X 3383   4.572   3.805   8.194  0.6571 -1.1890 -0.7752
   25SAPC  H17Y 3384   4.680   3.933   8.256  1.0124 -1.3485  0.8912
   25SAPC  C318 3385   4.711   3.739   8.352  0.4828 -0.2801  0.1120
   25SAPC  H18X 3386   4.741   3.635   8.325  1.2723 -0.0194 -0.0200
   25SAPC  H18Y 3387   4.621   3.727   8.417  0.5442  0.6225  0.3734
   25SAPC  H18Z 3388   4.784   3.788   8.420 -0.9848  2.3061 -0.1313
   26SAPC     N 3389   2.825   5.139   6.028  0.2416  0.7916 -0.3961
   26SAPC   C12 3390   2.963   5.151   6.080 -0.0535 -0.3375 -1.0463
   26SAPC  H12A 3391   3.031   5.140   5.997  0.5160 -1.4880 -0.4328
   26SAPC  H12B 3392   2.995   5.066   6.138  1.0510  0.9181  0.2198
   26SAPC   C13 3393   2.805   5.000   5.975 -0.3356 -0.3462 -0.0453
   26SAPC  H13A 3394   2.824   4.928   6.053  1.4254  1.0541  0.8493
   26SAPC  H13B 3395   2.699   5.000   5.952 -1.1759  3.0494  3.3411
   26SAPC  H13C 3396   2.863   4.979   5.886  0.4775  5.0805 -0.9676
   26SAPC   C14 3397   2.738   5.154   6.143  0.5859  0.6332 -0.5032
   26SAPC  H14A 3398   2.766   5.087   6.223  0.4550 -0.0716 -1.0485
   26SAPC  H14B 3399   2.745   5.252   6.189 -1.7859  0.8706 -0.5787
   26SAPC  H14C 3400   2.637   5.132   6.111  0.5597  1.0009 -0.6772
   26SAPC   C15 3401   2.787   5.245   5.925 -0.5143 -0.2591 -0.1719
   26SAPC  H15A 3402   2.694   5.222   5.875  0.4777 -1.6853 -1.4048
   26SAPC  H15B 3403   2.778   5.338   5.979  1.0775  0.0726 -0.4739
   26SAPC  H15C 3404   2.867   5.258   5.854 -0.1239  1.3294  0.5327
   26SAPC   C11 3405   3.018   5.293   6.147 -0.0208  0.5793  0.1644
   26SAPC  H11A 3406   3.012   5.380   6.077 -2.1532 -0.1750 -0.6256
   26SAPC  H11B 3407   3.125   5.272   6.167 -0.5886 -1.0408  1.6627
   26SAPC     P 3408   2.951   5.447   6.347  0.2583 -0.1432  0.0947
   26SAPC   O13 3409   2.953   5.566   6.255 -0.8079  0.1186  0.0855
   26SAPC   O14 3410   2.828   5.433   6.427  0.8388  0.3379 -0.2852
   26SAPC   O12 3411   2.950   5.313   6.268 -0.7096 -0.1715 -0.1311
   26SAPC   O11 3412   3.078   5.436   6.442  0.2181  0.4689 -0.2422
   26SAPC    C1 3413   3.147   5.311   6.463  0.2558 -0.0124 -0.1899
   26SAPC    HA 3414   3.093   5.223   6.422 -0.0131  0.1007 -0.0837
   26SAPC    HB 3415   3.244   5.308   6.409 -0.1553 -0.9719 -0.8893
   26SAPC    C2 3416   3.167   5.295   6.616  0.5690 -0.2389 -0.0450
   26SAPC    HS 3417   3.229   5.204   6.630  2.5189  1.0958  0.1690
   26SAPC   O21 3418   3.043   5.279   6.685 -0.5511  0.3285  0.6597
   26SAPC   C21 3419   2.985   5.163   6.665 -0.4268  0.4328 -0.0636
   26SAPC   O22 3420   3.036   5.068   6.606  0.2100 -0.1410  0.1370
   26SAPC   C22 3421   2.860   5.155   6.755 -0.7172 -0.7342  0.6072
   26SAPC   H2R 3422   2.872   5.231   6.835 -0.5682  1.7522 -1.6926
   26SAPC   H2S 3423   2.769   5.192   6.702  0.4540 -1.0659 -1.7023
   26SAPC    C3 3424   3.253   5.413   6.679  0.0213 -0.2522  0.0745
   26SAPC    HX 3425   3.210   5.508   6.641  2.6779  0.7217 -0.6289
   26SAPC    HY 3426   3.353   5.401   6.632  0.2675 -1.0866  0.7916
   26SAPC   O31 3427   3.261   5.409   6.819 -0.5487  0.2006  0.5221
   26SAPC   C31 3428   3.172   5.475   6.890  0.6383 -0.1224  0.6040
   26SAPC   O32 3429   3.095   5.564   6.848  0.1328  0.5851 -0.5084
   26SAPC   C32 3430   3.182   5.421   7.036  0.6974 -0.4206  0.1392
   26SAPC   H2X 3431   3.281   5.375   7.056 -0.3752 -2.4979  0.8092
   26SAPC   H2Y 3432   3.109   5.338   7.042  1.6731 -1.5411 -2.5575
   26SAPC   C23 3433   2.822   5.016   6.796 -0.1691  0.1854 -0.1173
   26SAPC   H3R 3434   2.800   4.961   6.702 -0.7353  2.4545 -1.3409
   26SAPC   H3S 3435   2.721   5.016   6.841 -0.1048 -2.1388  0.1088
   26SAPC   C24 3436   2.922   4.935   6.876 -0.1205  0.4012 -0.0545
   26SAPC   H4R 3437   3.027   4.933   6.838 -0.9163 -0.6889 -2.2750
   26SAPC   H4S 3438   2.884   4.830   6.876 -0.3623  0.4905 -0.4097
   26SAPC   C25 3439   2.916   4.989   7.024  0.2243 -1.1801 -0.3979
   26SAPC   H5R 3440   2.821   5.024   7.066  0.4095  1.8470 -2.3797
   26SAPC   C26 3441   3.024   5.006   7.109 -0.0051 -0.6620 -0.2043
   26SAPC   H6R 3442   3.013   5.058   7.205  2.1039  3.3938 -2.0195
   26SAPC   C27 3443   3.169   4.969   7.093  0.5905  0.3292 -0.0360
   26SAPC   H7R 3444   3.156   4.859   7.086 -1.1701  0.6336 -2.1432
   26SAPC   H7S 3445   3.219   4.963   7.192 -1.7820 -0.2675  1.1676
   26SAPC   C28 3446   3.249   5.030   6.982 -0.6252  0.4910  0.1141
   26SAPC   H8R 3447   3.198   5.013   6.887 -0.5176 -1.2545  0.3544
   26SAPC   C29 3448   3.357   5.107   7.000  0.2794  0.4093 -0.2766
   26SAPC   H9R 3449   3.409   5.149   6.912  1.9760 -0.1554  0.4419
   26SAPC  C210 3450   3.411   5.145   7.137  0.0424 -0.2445 -0.1168
   26SAPC  H10R 3451   3.329   5.157   7.211 -1.7959 -2.8948 -1.6536
   26SAPC  H10S 3452   3.459   5.245   7.124  0.3543 -0.3365  0.3257
   26SAPC  C211 3453   3.525   5.054   7.190 -1.1998  0.2066 -0.3234
   26SAPC  H11R 3454   3.564   4.986   7.114  1.5119  0.2276  0.9937
   26SAPC  C212 3455   3.577   5.063   7.314  0.0658 -0.5597  0.0175
   26SAPC  H12R 3456   3.658   4.994   7.341  0.0381 -0.7010 -0.2586
   26SAPC  C213 3457   3.537   5.174   7.422 -0.1685 -0.0584  0.3848
   26SAPC  H13R 3458   3.459   5.140   7.494 -0.5524 -0.8415 -0.3870
   26SAPC  H13S 3459   3.493   5.261   7.369  0.5612  0.1659  0.1489
   26SAPC  C214 3460   3.661   5.220   7.496 -0.2450  0.2471 -0.0836
   26SAPC  H14R 3461   3.734   5.285   7.444 -1.6780  1.9045 -0.0695
   26SAPC  C215 3462   3.678   5.205   7.625  0.5102  0.4997  0.5631
   26SAPC  H15R 3463   3.764   5.253   7.675  0.9697 -0.2132  0.4659
   26SAPC  C216 3464   3.578   5.137   7.719  0.1804  0.3080  0.3511
   26SAPC  H16R 3465   3.542   5.038   7.684 -1.1241  0.4222  1.3192
   26SAPC  H16S 3466   3.483   5.194   7.724 -0.0013  0.2103 -1.7165
   26SAPC  C217 3467   3.629   5.134   7.866 -0.1502  0.5960  0.0550
   26SAPC  H17R 3468   3.718   5.069   7.874 -0.8415 -0.1048  2.2808
   26SAPC  H17S 3469   3.546   5.082   7.918 -1.8734  0.2448 -2.9211
   26SAPC  C218 3470   3.665   5.274   7.914  0.0147  0.6671  0.3703
   26SAPC  H18R 3471   3.619   5.352   7.850  1.7741  1.6063  0.2213
   26SAPC  H18S 3472   3.774   5.296   7.921 -0.2027  1.1708  2.3997
   26SAPC  C219 3473   3.602   5.286   8.058 -0.5390  0.4331  0.0916
   26SAPC  H19R 3474   3.628   5.206   8.131 -0.9351 -0.6883 -0.9604
   26SAPC  H19S 3475   3.492   5.291   8.043 -0.6163 -0.2955  0.3549
   26SAPC  C220 3476   3.637   5.416   8.128 -0.2095  0.5199  0.7526
   26SAPC  H20R 3477   3.632   5.498   8.054 -1.7195 -0.5255 -0.3520
   26SAPC  H20S 3478   3.741   5.413   8.166  0.2245  1.4523 -0.3345
   26SAPC  H20T 3479   3.562   5.438   8.207 -2.2196 -1.6682 -0.4684
   26SAPC   C33 3480   3.145   5.530   7.142  0.0122 -0.3520  0.2461
   26SAPC   H3X 3481   3.040   5.564   7.129 -0.2631 -2.0519 -2.4871
   26SAPC   H3Y 3482   3.210   5.618   7.124 -1.0552  0.3515 -0.1810
   26SAPC   C34 3483   3.150   5.480   7.291  0.0684  0.3173 -0.0091
   26SAPC   H4X 3484   3.084   5.391   7.302  0.5663 -0.4332 -2.6102
   26SAPC   H4Y 3485   3.107   5.562   7.352 -1.8102  0.8331 -1.9842
   26SAPC   C35 3486   3.288   5.441   7.351 -0.7292 -0.1620  0.2814
   26SAPC   H5X 3487   3.364   5.516   7.324  1.5176 -1.1910  3.5598
   26SAPC   H5Y 3488   3.314   5.348   7.295  1.8190  0.7276 -0.0623
   26SAPC   C36 3489   3.275   5.403   7.498 -0.1161 -1.0280 -0.5255
   26SAPC   H6X 3490   3.370   5.375   7.548 -0.1268  0.2428  0.2245
   26SAPC   H6Y 3491   3.209   5.314   7.500 -1.3874 -0.1590 -2.6275
   26SAPC   C37 3492   3.226   5.516   7.590  0.3883 -0.8662 -0.2312
   26SAPC   H7X 3493   3.116   5.532   7.580  0.2836 -0.3252  1.7428
   26SAPC   H7Y 3494   3.281   5.608   7.562 -1.3168 -0.0184 -0.8747
   26SAPC   C38 3495   3.253   5.489   7.741  0.1512  0.1943 -0.0196
   26SAPC   H8X 3496   3.362   5.473   7.754 -0.0682  0.2546  2.0560
   26SAPC   H8Y 3497   3.214   5.388   7.766 -0.6557 -0.5814 -4.0721
   26SAPC   C39 3498   3.202   5.595   7.842  0.0438  0.1468  0.3594
   26SAPC   H9X 3499   3.091   5.593   7.842  0.0603 -2.5897  0.1280
   26SAPC   H9Y 3500   3.247   5.692   7.809 -1.6811  1.6054  2.1821
   26SAPC  C310 3501   3.260   5.575   7.988  0.7861 -0.2470  0.9989
   26SAPC  H10X 3502   3.364   5.543   7.965  0.5178 -0.0694 -0.5847
   26SAPC  H10Y 3503   3.216   5.486   8.038  1.7505  0.0850  2.4683
   26SAPC  C311 3504   3.240   5.712   8.064 -0.2524 -0.1906 -0.0221
   26SAPC  H11X 3505   3.133   5.741   8.069 -0.7483 -1.9834  0.2995
   26SAPC  H11Y 3506   3.302   5.793   8.021 -1.2758  1.2378  1.1357
   26SAPC  C312 3507   3.280   5.688   8.212 -0.3663 -0.2642  0.6860
   26SAPC  H12X 3508   3.264   5.782   8.270 -2.1831 -1.0377  1.4714
   26SAPC  H12Y 3509   3.390   5.678   8.214 -0.3907 -1.0657 -1.5613
   26SAPC  C313 3510   3.208   5.570   8.273 -0.6278  0.5366 -0.4278
   26SAPC  H13X 3511   3.249   5.475   8.233 -0.7165 -0.3908  1.6326
   26SAPC  H13Y 3512   3.102   5.581   8.241 -0.9843  0.8663  0.8472
   26SAPC  C314 3513   3.204   5.551   8.427  0.2853  1.0020  0.7721
   26SAPC  H14X 3514   3.129   5.475   8.457 -1.2213  0.8966 -3.0105
   26SAPC  H14Y 3515   3.182   5.648   8.477 -0.9580  0.4408  1.3340
   26SAPC  C315 3516   3.342   5.502   8.488 -0.4666 -0.3734  0.3031
   26SAPC  H15X 3517   3.336   5.523   8.597  1.7077 -2.0710  0.8064
   26SAPC  H15Y 3518   3.420   5.557   8.431 -0.0135 -1.2363  0.0787
   26SAPC  C316 3519   3.366   5.350   8.464 -0.2516  0.0144 -0.2129
   26SAPC  H16X 3520   3.359   5.321   8.357  1.3218 -1.1808 -0.0248
   26SAPC  H16Y 3521   3.281   5.301   8.517 -0.1013 -0.5764 -0.5054
   26SAPC  C317 3522   3.497   5.296   8.527 -0.7612  0.4391  0.1612
   26SAPC  H17X 3523   3.519   5.337   8.628 -0.5439 -1.9805  1.1425
   26SAPC  H17Y 3524   3.570   5.327   8.449  0.1306 -0.3372  0.6795
   26SAPC  C318 3525   3.492   5.139   8.539  0.0599 -0.4069  0.4399
   26SAPC  H18X 3526   3.564   5.095   8.611  0.7286  3.6381  2.4176
   26SAPC  H18Y 3527   3.530   5.101   8.442  1.4388  0.2073  0.7171
   26SAPC  H18Z 3528   3.390   5.098   8.552 -0.0539  0.2957  1.9198
   27SAPC     N 3529   0.492   6.396   6.619 -0.8364 -0.5688 -0.4939
   27SAPC   C12 3530   0.511   6.248   6.578 -0.7996  0.2424  0.1013
   27SAPC  H12A 3531   0.584   6.255   6.499 -0.0783  0.4439  0.7709
   27SAPC  H12B 3532   0.419   6.198   6.554 -1.6894  1.1693  1.4749
   27SAPC   C13 3533   0.412   6.401   6.744  0.0041 -0.4165 -0.1595
   27SAPC  H13A 3534   0.305   6.401   6.731 -0.6275  0.5267  4.2073
   27SAPC  H13B 3535   0.434   6.315   6.805  2.3422 -0.7642 -1.4217
   27SAPC  H13C 3536   0.443   6.486   6.802  1.0271 -2.3762  2.2596
   27SAPC   C14 3537   0.625   6.469   6.649  0.3714 -0.0218  0.6126
   27SAPC  H14A 3538   0.682   6.401   6.711 -0.7567 -1.7014 -0.1865
   27SAPC  H14B 3539   0.677   6.480   6.555 -2.7526  2.1254 -0.9473
   27SAPC  H14C 3540   0.604   6.568   6.689 -1.2248  0.0281 -0.3381
   27SAPC   C15 3541   0.418   6.481   6.518 -0.3706  0.3365  0.1205
   27SAPC  H15A 3542   0.387   6.575   6.561  0.0741  0.7389 -0.4284
   27SAPC  H15B 3543   0.485   6.497   6.435 -2.1354  0.5179 -1.3076
   27SAPC  H15C 3544   0.337   6.423   6.478 -1.8511  0.2297  3.1469
   27SAPC   C11 3545   0.584   6.160   6.678 -0.6997 -0.1103  0.2919
   27SAPC  H11A 3546   0.588   6.052   6.649  2.8486  0.0985 -0.1435
   27SAPC  H11B 3547   0.527   6.151   6.773 -1.0848 -1.4099 -0.0414
   27SAPC     P 3548   0.833   6.158   6.606  0.0293 -0.2118  0.0604
   27SAPC   O13 3549   0.774   6.122   6.477 -0.1935 -1.1150 -0.7665
   27SAPC   O14 3550   0.936   6.262   6.595  0.2497  0.6451  0.0368
   27SAPC   O12 3551   0.718   6.210   6.702  0.5763  0.1383 -0.5774
   27SAPC   O11 3552   0.890   6.033   6.681  0.2214  0.4095  0.2683
   27SAPC    C1 3553   0.927   6.053   6.819 -0.3952  0.1029 -0.3391
   27SAPC    HA 3554   0.984   6.147   6.837 -0.8183  0.3981 -0.5179
   27SAPC    HB 3555   0.834   6.048   6.879 -0.7990 -0.3558 -0.9944
   27SAPC    C2 3556   1.009   5.929   6.866 -0.0572  0.0640  0.2314
   27SAPC    HS 3557   1.104   5.931   6.808  1.5754 -0.5146  2.8016
   27SAPC   O21 3558   0.928   5.811   6.846  0.5061  0.8108  0.6874
   27SAPC   C21 3559   0.998   5.702   6.815 -0.1763  0.0979 -0.3398
   27SAPC   O22 3560   1.116   5.698   6.802  0.4324 -0.0635 -0.1320
   27SAPC   C22 3561   0.905   5.586   6.789 -0.5729  0.4039 -0.0770
   27SAPC   H2R 3562   0.800   5.615   6.812 -0.5386  0.6882 -0.2714
   27SAPC   H2S 3563   0.898   5.573   6.679 -0.2215  0.2901 -0.0852
   27SAPC    C3 3564   1.046   5.952   7.013 -0.8901  0.0795  0.0754
   27SAPC    HX 3565   0.949   5.960   7.066 -1.3738 -2.0606 -0.4486
   27SAPC    HY 3566   1.096   6.051   7.021 -0.4407  0.0108 -1.7520
   27SAPC   O31 3567   1.118   5.841   7.069  0.2723  0.2704  0.2733
   27SAPC   C31 3568   1.251   5.841   7.030 -0.4671 -0.0287 -0.0344
   27SAPC   O32 3569   1.307   5.924   6.958 -0.0183 -0.0221 -0.0559
   27SAPC   C32 3570   1.335   5.733   7.099 -0.3700  0.3774  0.0575
   27SAPC   H2X 3571   1.272   5.651   7.140  1.2939 -0.2341  1.3987
   27SAPC   H2Y 3572   1.380   5.781   7.188 -1.0045 -1.3264  1.3201
   27SAPC   C23 3573   0.941   5.460   6.870  0.2147  0.2350 -0.1530
   27SAPC   H3R 3574   1.034   5.411   6.833 -1.3162 -1.4513 -1.9057
   27SAPC   H3S 3575   0.877   5.369   6.863  2.0026 -1.1599  1.0800
   27SAPC   C24 3576   0.960   5.496   7.020 -0.7039  0.4337 -0.0696
   27SAPC   H4R 3577   1.040   5.569   7.042  1.8441 -1.9290 -1.1535
   27SAPC   H4S 3578   0.992   5.405   7.075 -0.8899  0.4928  0.1358
   27SAPC   C25 3579   0.832   5.548   7.076 -0.4908 -0.9110 -0.3428
   27SAPC   H5R 3580   0.746   5.561   7.009 -0.2626  1.8231 -0.1694
   27SAPC   C26 3581   0.815   5.577   7.207  0.2019 -0.4370  0.5874
   27SAPC   H6R 3582   0.713   5.603   7.239  0.0225 -2.2586  1.5693
   27SAPC   C27 3583   0.914   5.564   7.325 -0.1153  0.1445 -0.4375
   27SAPC   H7R 3584   1.005   5.504   7.305  0.3158 -0.1128  2.2002
   27SAPC   H7S 3585   0.864   5.524   7.416  0.1869  0.4368 -0.1438
   27SAPC   C28 3586   0.951   5.707   7.358  0.3282  0.1468 -0.2791
   27SAPC   H8R 3587   0.983   5.762   7.268  2.0141  1.0110  0.8180
   27SAPC   C29 3588   0.943   5.778   7.479  0.4801  0.1255 -0.2872
   27SAPC   H9R 3589   0.981   5.881   7.472 -0.9057  0.5941 -0.9458
   27SAPC  C210 3590   0.908   5.725   7.614  0.3938 -0.0194 -0.6766
   27SAPC  H10R 3591   0.904   5.614   7.612 -0.1290 -0.0435  0.8015
   27SAPC  H10S 3592   0.807   5.758   7.649  0.5164  1.7587 -1.8863
   27SAPC  C211 3593   1.007   5.763   7.721 -0.5032  0.3570 -0.0354
   27SAPC  H11R 3594   1.106   5.795   7.684 -0.4659 -1.2140 -1.3557
   27SAPC  C212 3595   0.999   5.745   7.853  0.1259  0.5322 -0.4923
   27SAPC  H12R 3596   1.075   5.792   7.917  0.0121 -2.0783  1.6445
   27SAPC  C213 3597   0.882   5.676   7.924 -0.0453  0.0945  0.0496
   27SAPC  H13R 3598   0.798   5.651   7.856 -0.4313  0.5525  0.3534
   27SAPC  H13S 3599   0.838   5.756   7.987  0.3102  1.1009 -0.9737
   27SAPC  C214 3600   0.918   5.556   8.007  0.5663  0.1281  0.2711
   27SAPC  H14R 3601   0.992   5.492   7.955 -1.4261 -1.6641 -0.4226
   27SAPC  C215 3602   0.858   5.495   8.111 -0.0856 -0.0277 -0.8204
   27SAPC  H15R 3603   0.911   5.409   8.155  1.5134  0.3552 -1.9896
   27SAPC  C216 3604   0.736   5.543   8.179 -0.1174 -0.6520 -0.1286
   27SAPC  H16R 3605   0.693   5.456   8.234 -2.3905  0.3413 -0.2460
   27SAPC  H16S 3606   0.653   5.585   8.118  1.3564 -1.4265 -2.7056
   27SAPC  C217 3607   0.768   5.646   8.286  0.4039 -0.3209  0.1253
   27SAPC  H17R 3608   0.673   5.687   8.327  0.3403  0.2708 -0.6107
   27SAPC  H17S 3609   0.815   5.729   8.230  0.0539 -0.0217  0.2733
   27SAPC  C218 3610   0.870   5.604   8.393 -0.6590 -0.8624 -0.8605
   27SAPC  H18R 3611   0.976   5.631   8.373 -0.5428  0.0361  0.9249
   27SAPC  H18S 3612   0.864   5.494   8.409  3.8389 -0.9989  0.6376
   27SAPC  C219 3613   0.831   5.662   8.530 -0.4401 -0.0095 -1.1923
   27SAPC  H19R 3614   0.902   5.627   8.608  0.2044 -2.7230 -2.9429
   27SAPC  H19S 3615   0.738   5.611   8.562  0.9372 -2.0172 -0.2773
   27SAPC  C220 3616   0.821   5.820   8.532  0.0893 -0.7270  0.4528
   27SAPC  H20R 3617   0.765   5.858   8.444  1.5539  1.9508  0.6322
   27SAPC  H20S 3618   0.926   5.855   8.539 -0.6459  1.8850 -1.0990
   27SAPC  H20T 3619   0.765   5.852   8.623 -1.5581 -2.3783  0.0657
   27SAPC   C33 3620   1.457   5.671   7.022 -0.1201 -0.3012 -0.3451
   27SAPC   H3X 3621   1.522   5.756   6.992 -1.2871 -0.2850 -2.9404
   27SAPC   H3Y 3622   1.415   5.641   6.924  0.4018 -0.8190 -0.4072
   27SAPC   C34 3623   1.534   5.574   7.104 -0.3156  0.2748 -0.7854
   27SAPC   H4X 3624   1.582   5.615   7.195  0.4817 -0.3075 -0.9407
   27SAPC   H4Y 3625   1.621   5.532   7.050  0.4491  1.5089 -0.5383
   27SAPC   C35 3626   1.440   5.459   7.168 -0.2040 -0.3108  0.7614
   27SAPC   H5X 3627   1.485   5.358   7.156 -1.3099 -0.4857 -2.0866
   27SAPC   H5Y 3628   1.343   5.459   7.116 -0.5945 -2.3240  1.4704
   27SAPC   C36 3629   1.399   5.494   7.316  1.1450  0.0437 -0.1522
   27SAPC   H6X 3630   1.331   5.580   7.329  1.1214  0.3437 -2.1260
   27SAPC   H6Y 3631   1.488   5.534   7.369  1.8033 -2.2446  0.5454
   27SAPC   C37 3632   1.365   5.364   7.386 -0.5327 -0.7274  0.1311
   27SAPC   H7X 3633   1.455   5.298   7.381 -0.3344 -0.5036  0.6974
   27SAPC   H7Y 3634   1.288   5.316   7.322 -1.4671  0.7995  0.0793
   27SAPC   C38 3635   1.309   5.372   7.529  0.3567 -0.2915  0.0954
   27SAPC   H8X 3636   1.279   5.274   7.572 -0.2815 -0.4804 -0.7585
   27SAPC   H8Y 3637   1.220   5.439   7.529 -1.0297 -2.1029  0.8708
   27SAPC   C39 3638   1.404   5.438   7.628  0.6937  0.0088 -0.1209
   27SAPC   H9X 3639   1.428   5.541   7.593  0.7603 -1.0140 -3.2811
   27SAPC   H9Y 3640   1.499   5.380   7.630  1.1317  0.7403  1.7926
   27SAPC  C310 3641   1.345   5.438   7.765 -0.3718 -0.1290 -0.2195
   27SAPC  H10X 3642   1.240   5.477   7.764  0.4260  2.0742 -1.1397
   27SAPC  H10Y 3643   1.397   5.509   7.833  0.3545 -0.0690 -0.8340
   27SAPC  C311 3644   1.352   5.304   7.838  0.0869 -0.7951 -0.2519
   27SAPC  H11X 3645   1.441   5.245   7.807  0.8640 -0.4462  1.2562
   27SAPC  H11Y 3646   1.266   5.249   7.795 -0.1298 -0.4923 -0.2064
   27SAPC  C312 3647   1.339   5.315   7.994 -0.2276  1.1578 -0.2887
   27SAPC  H12X 3648   1.316   5.214   8.035  1.2580  0.5278 -0.9668
   27SAPC  H12Y 3649   1.256   5.378   8.034 -0.5747  0.1899  0.5435
   27SAPC  C313 3650   1.470   5.372   8.060 -0.8349  0.4346  0.4895
   27SAPC  H13X 3651   1.473   5.482   8.045  0.1939  0.2276 -0.9061
   27SAPC  H13Y 3652   1.564   5.331   8.016 -1.6659 -1.4589  0.4384
   27SAPC  C314 3653   1.471   5.341   8.216 -0.4522  0.4656  0.0861
   27SAPC  H14X 3654   1.551   5.407   8.256 -1.1705  0.8912  0.8286
   27SAPC  H14Y 3655   1.496   5.235   8.236  1.4209  1.0238  0.7773
   27SAPC  C315 3656   1.343   5.384   8.291  0.7781 -0.5964  0.0374
   27SAPC  H15X 3657   1.247   5.333   8.266 -1.1062  2.1092  1.5238
   27SAPC  H15Y 3658   1.308   5.487   8.268  2.1259  0.4819  2.5770
   27SAPC  C316 3659   1.338   5.360   8.441 -0.8391  0.2066 -0.3310
   27SAPC  H16X 3660   1.419   5.421   8.486 -0.3998  1.1324 -2.3331
   27SAPC  H16Y 3661   1.365   5.255   8.468  1.0882  0.5625 -0.7806
   27SAPC  C317 3662   1.211   5.408   8.504 -0.0602  0.2643  0.2738
   27SAPC  H17X 3663   1.124   5.357   8.457  0.1923  1.2329 -1.2617
   27SAPC  H17Y 3664   1.199   5.518   8.494 -2.4269  0.1406  1.3380
   27SAPC  C318 3665   1.201   5.364   8.649 -0.6510  0.4298  0.0053
   27SAPC  H18X 3666   1.097   5.366   8.688 -0.2929 -1.2879  1.1147
   27SAPC  H18Y 3667   1.256   5.444   8.704 -0.4922  0.0129  0.4528
   27SAPC  H18Z 3668   1.255   5.271   8.676 -3.4771 -1.3866 -0.3909
   28SAPC     N 3669   0.489   2.694   6.430  0.2003  0.4935 -0.0772
   28SAPC   C12 3670   0.516   2.569   6.511  0.3465  0.0367  0.7002
   28SAPC  H12A 3671   0.559   2.605   6.603  0.8981  0.4452  0.2818
   28SAPC  H12B 3672   0.590   2.509   6.460 -0.2007 -0.4142  0.4290
   28SAPC   C13 3673   0.612   2.781   6.419 -0.1862  0.5611  0.2523
   28SAPC  H13A 3674   0.582   2.855   6.347  1.6285 -0.2406 -1.3827
   28SAPC  H13B 3675   0.640   2.825   6.514  0.5799 -0.6745  0.6130
   28SAPC  H13C 3676   0.695   2.725   6.379 -2.2940 -2.1330 -0.4780
   28SAPC   C14 3677   0.455   2.661   6.284 -0.4156  0.5605  0.1537
   28SAPC  H14A 3678   0.422   2.749   6.232  3.5187  1.9147 -0.1964
   28SAPC  H14B 3679   0.534   2.613   6.227 -1.0082  2.8513 -2.6765
   28SAPC  H14C 3680   0.381   2.582   6.277  0.5926 -0.4307  0.4530
   28SAPC   C15 3681   0.365   2.770   6.475 -0.1666  0.6405  0.0777
   28SAPC  H15A 3682   0.390   2.811   6.571 -0.3794 -1.3075  0.9878
   28SAPC  H15B 3683   0.347   2.854   6.409 -0.8518 -0.1361 -0.7493
   28SAPC  H15C 3684   0.276   2.710   6.481  1.4502 -1.8379  0.0817
   28SAPC   C11 3685   0.401   2.477   6.548  0.7024 -0.3064 -0.3195
   28SAPC  H11A 3686   0.338   2.524   6.627  1.7207  2.6931 -1.2254
   28SAPC  H11B 3687   0.435   2.383   6.597 -2.0088 -1.9316 -1.4395
   28SAPC     P 3688   0.165   2.453   6.443 -0.1532 -0.0215 -0.0261
   28SAPC   O13 3689   0.129   2.594   6.463  0.2304  0.4540  0.3250
   28SAPC   O14 3690   0.084   2.391   6.332 -0.0052 -0.1437  0.3908
   28SAPC   O12 3691   0.323   2.442   6.431  0.0245  0.6688 -0.2831
   28SAPC   O11 3692   0.137   2.387   6.589  0.3587  0.2079  0.3941
   28SAPC    C1 3693   0.153   2.246   6.602  0.5069  0.4240 -0.2344
   28SAPC    HA 3694   0.082   2.193   6.534 -0.3306  1.5994 -0.3153
   28SAPC    HB 3695   0.251   2.203   6.575 -0.3549 -1.0108 -1.1585
   28SAPC    C2 3696   0.128   2.199   6.747 -0.5301  0.1866  0.0774
   28SAPC    HS 3697   0.123   2.089   6.740 -0.0585  0.1944 -0.4439
   28SAPC   O21 3698   0.012   2.256   6.807 -0.3880 -0.4141  0.3418
   28SAPC   C21 3699  -0.103   2.217   6.755  0.3122  0.4307 -0.5741
   28SAPC   O22 3700  -0.120   2.117   6.687 -0.1311 -0.0690  0.1989
   28SAPC   C22 3701  -0.213   2.317   6.788  0.2619  0.7096 -0.2426
   28SAPC   H2R 3702  -0.219   2.332   6.898  0.2934  0.5384 -0.2172
   28SAPC   H2S 3703  -0.188   2.411   6.735  1.0509  1.2723  1.0986
   28SAPC    C3 3704   0.245   2.214   6.839  0.2683 -1.0645 -0.7558
   28SAPC    HX 3705   0.288   2.316   6.833 -2.1391  0.1475  1.4294
   28SAPC    HY 3706   0.325   2.144   6.808 -1.5404 -2.6052 -2.0489
   28SAPC   O31 3707   0.210   2.165   6.967  0.7585  0.2025  0.3353
   28SAPC   C31 3708   0.178   2.250   7.055  0.5384  0.1903 -0.1818
   28SAPC   O32 3709   0.185   2.370   7.044  0.4587 -0.3274  0.2723
   28SAPC   C32 3710   0.165   2.170   7.189  0.2200 -0.1167  0.0441
   28SAPC   H2X 3711   0.266   2.150   7.230  0.2594 -2.2950 -1.0767
   28SAPC   H2Y 3712   0.112   2.078   7.156  1.0642  0.0754 -1.9578
   28SAPC   C23 3713  -0.351   2.265   6.730  0.1215  0.0040  0.2373
   28SAPC   H3R 3714  -0.369   2.166   6.778 -1.3465  0.2983  0.3103
   28SAPC   H3S 3715  -0.342   2.251   6.620  0.8969  2.1054  0.0145
   28SAPC   C24 3716  -0.478   2.349   6.750 -0.8969 -0.3642  0.1413
   28SAPC   H4R 3717  -0.564   2.286   6.720 -0.7028  0.5724 -2.4661
   28SAPC   H4S 3718  -0.490   2.361   6.860  2.8612 -2.7418  0.9274
   28SAPC   C25 3719  -0.481   2.474   6.654  0.1253  0.2276 -0.4594
   28SAPC   H5R 3720  -0.531   2.466   6.556 -0.8283  1.3007 -0.0781
   28SAPC   C26 3721  -0.431   2.590   6.693 -0.1416  0.1074  0.2747
   28SAPC   H6R 3722  -0.454   2.673   6.624 -0.5935  0.0391  0.3439
   28SAPC   C27 3723  -0.371   2.634   6.821 -0.4953 -0.0859 -0.1884
   28SAPC   H7R 3724  -0.319   2.545   6.861 -0.8311 -0.4776 -0.6210
   28SAPC   H7S 3725  -0.449   2.660   6.896 -0.3631  1.0877 -0.4416
   28SAPC   C28 3726  -0.268   2.741   6.797  0.4359 -0.8413  0.7637
   28SAPC   H8R 3727  -0.200   2.727   6.711  2.9425 -0.2107  2.5998
   28SAPC   C29 3728  -0.241   2.843   6.874  0.4637  0.5675  0.7403
   28SAPC   H9R 3729  -0.152   2.897   6.838  0.0933 -0.7312 -2.2384
   28SAPC  C210 3730  -0.301   2.888   7.008 -0.0188 -0.1517 -0.2843
   28SAPC  H10R 3731  -0.218   2.886   7.081 -0.9606 -2.0229  0.7860
   28SAPC  H10S 3732  -0.376   2.820   7.055 -2.7941  3.2471  0.3874
   28SAPC  C211 3733  -0.362   3.019   7.000 -0.2934 -0.4763  0.1363
   28SAPC  H11R 3734  -0.362   3.062   6.898  1.4210  0.5267  0.5333
   28SAPC  C212 3735  -0.427   3.082   7.096  0.2580 -0.5935 -0.6539
   28SAPC  H12R 3736  -0.458   3.185   7.075  4.1525  0.3983 -1.9532
   28SAPC  C213 3737  -0.440   3.033   7.241  0.1336 -0.2412  0.2958
   28SAPC  H13R 3738  -0.355   3.071   7.301  1.2075  0.3040 -1.5100
   28SAPC  H13S 3739  -0.436   2.922   7.249  1.1964 -0.2474 -0.2778
   28SAPC  C214 3740  -0.564   3.086   7.304 -0.5196 -0.5948  0.1907
   28SAPC  H14R 3741  -0.652   3.080   7.239 -0.3743  0.8454 -0.1710
   28SAPC  C215 3742  -0.587   3.128   7.431 -0.4895 -0.0347  0.0228
   28SAPC  H15R 3743  -0.691   3.156   7.456 -0.0850  0.8134  0.7834
   28SAPC  C216 3744  -0.496   3.132   7.543 -0.1396  0.6829  0.4208
   28SAPC  H16R 3745  -0.475   3.236   7.574  0.0961  0.3758  1.2965
   28SAPC  H16S 3746  -0.406   3.070   7.525 -1.2009 -0.7326 -0.1455
   28SAPC  C217 3747  -0.566   3.075   7.661  0.1644  0.0970 -0.6356
   28SAPC  H17R 3748  -0.485   3.059   7.736  0.8186 -2.2356 -1.8087
   28SAPC  H17S 3749  -0.608   2.975   7.638 -0.3154  0.6064 -2.0124
   28SAPC  C218 3750  -0.676   3.166   7.720  0.1413 -0.6823  0.6298
   28SAPC  H18R 3751  -0.763   3.192   7.655  1.2476 -3.0609 -1.9073
   28SAPC  H18S 3752  -0.629   3.264   7.745  0.0355  0.6661 -3.8742
   28SAPC  C219 3753  -0.722   3.110   7.858  0.7712 -0.2579 -0.1703
   28SAPC  H19R 3754  -0.645   3.144   7.930 -0.7041 -0.2035  1.4084
   28SAPC  H19S 3755  -0.725   3.000   7.843 -0.3703 -0.0191 -1.8168
   28SAPC  C220 3756  -0.857   3.156   7.915 -0.2673 -0.7935  0.5429
   28SAPC  H20R 3757  -0.883   3.100   8.008 -1.0762 -2.4529 -0.6642
   28SAPC  H20S 3758  -0.935   3.153   7.836  1.9605 -0.1354 -1.7653
   28SAPC  H20T 3759  -0.855   3.261   7.950  0.3257 -0.2276 -1.1630
   28SAPC   C33 3760   0.090   2.241   7.302  0.4102 -0.8540 -0.5736
   28SAPC   H3X 3761  -0.012   2.199   7.314 -0.6766  1.5921 -1.0374
   28SAPC   H3Y 3762   0.085   2.348   7.274 -1.0770 -0.6945  0.2637
   28SAPC   C34 3763   0.164   2.224   7.431 -0.0367 -0.0608  0.7936
   28SAPC   H4X 3764   0.264   2.271   7.424 -0.6803  1.1943 -0.3054
   28SAPC   H4Y 3765   0.187   2.117   7.445  0.5107  0.2297  2.2622
   28SAPC   C35 3766   0.098   2.283   7.560 -0.2368 -0.9682 -0.5338
   28SAPC   H5X 3767  -0.008   2.253   7.573  0.0300 -2.5766 -1.8828
   28SAPC   H5Y 3768   0.088   2.393   7.553  2.0632 -0.4865  2.6758
   28SAPC   C36 3769   0.167   2.255   7.690  0.3441  0.1221  0.4127
   28SAPC   H6X 3770   0.261   2.314   7.681  0.9974 -0.5900  2.1645
   28SAPC   H6Y 3771   0.181   2.145   7.705 -2.1830 -0.0390  2.0424
   28SAPC   C37 3772   0.085   2.306   7.810 -1.0462  0.0544 -0.7530
   28SAPC   H7X 3773   0.110   2.244   7.899 -1.3785 -1.1495 -1.4802
   28SAPC   H7Y 3774  -0.023   2.283   7.799 -2.6870  4.9776  3.4003
   28SAPC   C38 3775   0.090   2.456   7.835  0.2749  0.4563 -0.2303
   28SAPC   H8X 3776   0.009   2.489   7.903  0.7118 -2.7389  1.9275
   28SAPC   H8Y 3777   0.095   2.508   7.737  1.9255 -1.1763 -1.0534
   28SAPC   C39 3778   0.220   2.506   7.911  0.3237  0.3191 -0.6296
   28SAPC   H9X 3779   0.312   2.487   7.852 -0.4209  3.3196 -2.8848
   28SAPC   H9Y 3780   0.226   2.455   8.009  1.7671  2.4976  0.4624
   28SAPC  C310 3781   0.206   2.657   7.950 -0.3306  0.4163  0.6250
   28SAPC  H10X 3782   0.103   2.669   7.989 -1.2751  0.4877 -1.8380
   28SAPC  H10Y 3783   0.215   2.713   7.855  0.6409 -3.0401 -1.4142
   28SAPC  C311 3784   0.311   2.715   8.046  0.6029 -0.0470  0.0595
   28SAPC  H11X 3785   0.276   2.819   8.061  1.5217  0.2991 -0.1783
   28SAPC  H11Y 3786   0.414   2.711   8.004  0.4466  1.7164 -0.5365
   28SAPC  C312 3787   0.300   2.645   8.185 -0.4545 -0.1162 -0.1258
   28SAPC  H12X 3788   0.342   2.543   8.178 -1.1679 -0.5511  1.6172
   28SAPC  H12Y 3789   0.192   2.641   8.212 -0.2721  1.6205  0.9898
   28SAPC  C313 3790   0.383   2.727   8.285  0.7606  0.1971  0.2174
   28SAPC  H13X 3791   0.347   2.700   8.387 -0.6834 -0.9883 -0.5762
   28SAPC  H13Y 3792   0.358   2.835   8.272  1.4831  0.4763  1.1140
   28SAPC  C314 3793   0.537   2.708   8.295  0.0391 -0.3091 -0.0074
   28SAPC  H14X 3794   0.584   2.780   8.366 -1.0936  1.2510 -0.8189
   28SAPC  H14Y 3795   0.591   2.705   8.197  0.1777  0.5787  0.0422
   28SAPC  C315 3796   0.554   2.565   8.357  0.6732 -0.1150  0.3420
   28SAPC  H15X 3797   0.479   2.499   8.308  0.4877  1.4148 -1.4884
   28SAPC  H15Y 3798   0.533   2.577   8.465 -1.0073  2.7590 -0.2673
   28SAPC  C316 3799   0.689   2.500   8.337 -0.8000  0.3376  0.1521
   28SAPC  H16X 3800   0.719   2.455   8.240 -0.7973 -0.1740  0.3887
   28SAPC  H16Y 3801   0.690   2.412   8.404 -0.6587 -0.9571 -1.5097
   28SAPC  C317 3802   0.805   2.596   8.367  0.3774  0.6532 -0.4315
   28SAPC  H17X 3803   0.778   2.663   8.452  2.5930 -0.3109  1.0916
   28SAPC  H17Y 3804   0.818   2.651   8.271  2.5943  0.7522 -0.0854
   28SAPC  C318 3805   0.940   2.527   8.399  0.1315 -0.2951 -0.2516
   28SAPC  H18X 3806   0.991   2.496   8.306  1.4995 -0.0513  0.3947
   28SAPC  H18Y 3807   0.914   2.435   8.456  3.6663 -0.8325  0.6092
   28SAPC  H18Z 3808   1.005   2.594   8.460 -1.6420  1.8117 -0.6249
   29SAPC     N 3809   2.083   5.852   6.442  0.0077  0.2071  0.1620
   29SAPC   C12 3810   2.026   5.940   6.325  0.6223 -0.1038  0.3039
   29SAPC  H12A 3811   1.946   6.000   6.364  1.1508  2.3059 -2.1797
   29SAPC  H12B 3812   1.974   5.874   6.257  0.5584  0.3050 -0.0486
   29SAPC   C13 3813   1.971   5.770   6.498 -0.1247  0.1197 -0.1973
   29SAPC  H13A 3814   1.913   5.842   6.554  0.8885 -1.4106  2.9302
   29SAPC  H13B 3815   1.916   5.705   6.431 -2.1178  0.8485  0.6904
   29SAPC  H13C 3816   2.005   5.713   6.582  1.2922  1.2021 -0.0158
   29SAPC   C14 3817   2.185   5.757   6.388  0.1169  0.3059  0.5590
   29SAPC  H14A 3818   2.258   5.818   6.337 -0.6861  0.4393 -0.4361
   29SAPC  H14B 3819   2.235   5.696   6.462 -0.6046  0.5048  1.2158
   29SAPC  H14C 3820   2.142   5.696   6.309  1.5560  0.7685 -0.5975
   29SAPC   C15 3821   2.144   5.927   6.551 -0.1036  0.1937  1.3187
   29SAPC  H15A 3822   2.226   5.985   6.513 -0.4674 -0.3679 -0.3650
   29SAPC  H15B 3823   2.069   5.994   6.592 -1.3430 -0.1388 -0.3909
   29SAPC  H15C 3824   2.191   5.859   6.621 -0.4248 -1.1906  0.1925
   29SAPC   C11 3825   2.129   6.016   6.237 -0.2123  0.3412  0.5901
   29SAPC  H11A 3826   2.067   6.085   6.176 -3.0741 -0.1581  2.8318
   29SAPC  H11B 3827   2.178   5.942   6.171 -1.1800  3.1248 -3.4331
   29SAPC     P 3828   2.314   6.195   6.262  0.1490  0.3271 -0.0528
   29SAPC   O13 3829   2.413   6.119   6.177  0.1706 -0.1101 -0.4962
   29SAPC   O14 3830   2.230   6.292   6.186 -0.9286 -0.1550 -0.0914
   29SAPC   O12 3831   2.221   6.086   6.321  0.6169  0.7165 -0.6854
   29SAPC   O11 3832   2.383   6.257   6.384  0.4629  0.1255  0.1639
   29SAPC    C1 3833   2.313   6.340   6.478 -0.5187 -0.0429 -0.2510
   29SAPC    HA 3834   2.324   6.445   6.443 -3.2605 -0.0750 -1.3011
   29SAPC    HB 3835   2.211   6.303   6.504 -1.2174  1.8569 -0.1679
   29SAPC    C2 3836   2.388   6.331   6.620  0.2560 -0.0594 -0.4251
   29SAPC    HS 3837   2.498   6.337   6.607  0.3035  2.1737  0.7250
   29SAPC   O21 3838   2.350   6.211   6.687  0.4085  0.6541  0.2913
   29SAPC   C21 3839   2.446   6.139   6.744  0.4196 -0.4544  0.4617
   29SAPC   O22 3840   2.562   6.166   6.743  0.0836  0.1507 -0.3378
   29SAPC   C22 3841   2.388   6.027   6.827 -0.3938  0.9137 -0.7610
   29SAPC   H2R 3842   2.307   6.083   6.879 -0.1452 -0.1557  0.8129
   29SAPC   H2S 3843   2.348   5.942   6.768  0.3953 -0.5980  0.8701
   29SAPC    C3 3844   2.339   6.451   6.710  0.0330  0.3534  0.7288
   29SAPC    HX 3845   2.229   6.457   6.722 -0.5449 -1.3364 -2.8189
   29SAPC    HY 3846   2.372   6.538   6.649 -1.1552  0.0974 -0.3017
   29SAPC   O31 3847   2.399   6.443   6.839 -0.1901 -0.4591 -0.0821
   29SAPC   C31 3848   2.472   6.544   6.879 -0.0838 -0.1752 -0.5227
   29SAPC   O32 3849   2.514   6.636   6.809 -0.2991 -0.2019 -0.2075
   29SAPC   C32 3850   2.492   6.539   7.023 -0.4882  0.3798 -0.1214
   29SAPC   H2X 3851   2.414   6.473   7.067 -0.7712  1.0501  0.3928
   29SAPC   H2Y 3852   2.476   6.637   7.072  2.4668  0.7852  0.1392
   29SAPC   C23 3853   2.481   5.972   6.938 -0.0885  0.1925 -0.0555
   29SAPC   H3R 3854   2.567   5.943   6.874 -1.6259 -1.8811 -1.2417
   29SAPC   H3S 3855   2.435   5.877   6.972  0.4947  0.9915  3.1192
   29SAPC   C24 3856   2.506   6.072   7.048 -0.1036 -0.3775  0.0272
   29SAPC   H4R 3857   2.534   6.170   7.004  0.3495 -0.8057 -0.6509
   29SAPC   H4S 3858   2.593   6.026   7.100 -0.1052 -0.8424 -0.3744
   29SAPC   C25 3859   2.389   6.102   7.139  0.4935  0.1847 -0.0258
   29SAPC   H5R 3860   2.289   6.104   7.094  0.1137  3.0190  0.8411
   29SAPC   C26 3861   2.387   6.105   7.272  0.4064  0.8052 -0.4638
   29SAPC   H6R 3862   2.289   6.111   7.321  0.8787  3.6484  0.1716
   29SAPC   C27 3863   2.499   6.081   7.364 -0.2705  0.4559  0.3916
   29SAPC   H7R 3864   2.495   6.153   7.449 -1.3563  1.4142 -0.4536
   29SAPC   H7S 3865   2.596   6.108   7.317  0.7290 -0.2721  1.9436
   29SAPC   C28 3866   2.511   5.936   7.408 -0.5247 -0.0870  0.2306
   29SAPC   H8R 3867   2.507   5.863   7.326 -1.3746  0.8184 -0.5559
   29SAPC   C29 3868   2.517   5.896   7.533 -0.3629  0.7324  0.2486
   29SAPC   H9R 3869   2.525   5.787   7.546  1.6340  0.2407 -4.3411
   29SAPC  C210 3870   2.521   5.982   7.661 -0.2387  0.2049 -0.2625
   29SAPC  H10R 3871   2.464   6.076   7.644 -0.3616  0.7209  2.7369
   29SAPC  H10S 3872   2.624   6.018   7.678  0.1805 -0.0867 -2.0847
   29SAPC  C211 3873   2.469   5.912   7.785 -0.0442 -0.1423 -0.0836
   29SAPC  H11R 3874   2.361   5.893   7.776 -0.3743  1.7604 -0.4243
   29SAPC  C212 3875   2.529   5.878   7.906  0.2927  0.2309  0.7590
   29SAPC  H12R 3876   2.461   5.850   7.988 -2.2359 -0.2304 -1.4480
   29SAPC  C213 3877   2.679   5.896   7.935 -0.4773  0.3150  0.9306
   29SAPC  H13R 3878   2.693   5.997   7.979 -1.4824  2.4716 -3.3982
   29SAPC  H13S 3879   2.739   5.906   7.842  1.2919 -2.4838  1.6945
   29SAPC  C214 3880   2.739   5.789   8.024 -0.1278  0.3314 -0.0452
   29SAPC  H14R 3881   2.798   5.719   7.963 -1.6330 -0.6227 -0.4480
   29SAPC  C215 3882   2.716   5.770   8.154 -0.1654 -0.1269 -0.7175
   29SAPC  H15R 3883   2.761   5.683   8.204  0.5227  0.0323 -1.0601
   29SAPC  C216 3884   2.614   5.847   8.243 -0.4545  0.3553 -0.3204
   29SAPC  H16R 3885   2.565   5.934   8.194 -2.7448 -1.8985 -2.2274
   29SAPC  H16S 3886   2.676   5.885   8.327  0.5189 -1.9614  0.0420
   29SAPC  C217 3887   2.513   5.736   8.279  0.6234 -0.4810  0.9663
   29SAPC  H17R 3888   2.551   5.641   8.321  2.0494  0.2479  1.3483
   29SAPC  H17S 3889   2.450   5.714   8.190  2.6076 -0.0599 -0.5583
   29SAPC  C218 3890   2.420   5.803   8.382 -0.6828  0.9909  0.4468
   29SAPC  H18R 3891   2.391   5.902   8.340 -0.4417  1.0343  0.3785
   29SAPC  H18S 3892   2.476   5.827   8.475  1.3745 -2.8712  0.3087
   29SAPC  C219 3893   2.282   5.744   8.403 -0.4309  0.2046  0.3741
   29SAPC  H19R 3894   2.298   5.646   8.452 -4.3174 -0.5699  0.2579
   29SAPC  H19S 3895   2.245   5.724   8.300  1.7776 -0.7466 -0.2657
   29SAPC  C220 3896   2.179   5.827   8.480  0.1166 -0.0938  0.6540
   29SAPC  H20R 3897   2.078   5.781   8.482 -1.5372  3.3678  0.5501
   29SAPC  H20S 3898   2.180   5.933   8.445 -1.6117 -0.4513 -0.4989
   29SAPC  H20T 3899   2.216   5.833   8.585  1.7523 -0.6765  0.1259
   29SAPC   C33 3900   2.631   6.477   7.063 -0.0373 -0.0997 -0.6057
   29SAPC   H3X 3901   2.713   6.551   7.055 -1.2586  1.1642 -1.6945
   29SAPC   H3Y 3902   2.660   6.398   6.990 -0.8954  0.1734 -1.2603
   29SAPC   C34 3903   2.630   6.423   7.207 -0.1414 -0.8948 -0.0279
   29SAPC   H4X 3904   2.727   6.380   7.239  0.3296 -0.5077 -0.9003
   29SAPC   H4Y 3905   2.556   6.342   7.226 -1.2130  0.4506  1.7126
   29SAPC   C35 3906   2.593   6.536   7.315  0.0391  0.0782 -0.0276
   29SAPC   H5X 3907   2.503   6.589   7.278  0.7479  1.1455 -0.2448
   29SAPC   H5Y 3908   2.679   6.606   7.314 -0.0897  0.2387 -1.1394
   29SAPC   C36 3909   2.575   6.492   7.460 -0.0541  0.1845 -0.2976
   29SAPC   H6X 3910   2.676   6.463   7.497 -0.3393 -0.4480 -0.0040
   29SAPC   H6Y 3911   2.509   6.403   7.460 -0.5439  0.4866  2.2119
   29SAPC   C37 3912   2.498   6.599   7.547 -1.0010  0.1659  0.7577
   29SAPC   H7X 3913   2.401   6.624   7.498 -0.4019  0.5565 -0.2222
   29SAPC   H7Y 3914   2.568   6.684   7.559  1.8329 -2.1724  1.5052
   29SAPC   C38 3915   2.453   6.539   7.682  0.6181  0.1166  0.2089
   29SAPC   H8X 3916   2.409   6.441   7.653 -0.5642  0.5789  0.4241
   29SAPC   H8Y 3917   2.380   6.604   7.734  2.2186  0.5373  1.9851
   29SAPC   C39 3918   2.569   6.519   7.788 -0.6778  0.2175 -0.1203
   29SAPC   H9X 3919   2.618   6.619   7.798  0.6794 -0.3274 -1.1075
   29SAPC   H9Y 3920   2.648   6.453   7.747  1.5958  1.8952  1.4006
   29SAPC  C310 3921   2.514   6.448   7.919  0.5115  0.6592  0.2146
   29SAPC  H10X 3922   2.468   6.351   7.889 -0.6797  2.0403 -2.5681
   29SAPC  H10Y 3923   2.436   6.512   7.965  0.9668  0.0145  1.9357
   29SAPC  C311 3924   2.633   6.452   8.017  0.2191  0.9531 -0.7097
   29SAPC  H11X 3925   2.650   6.562   8.024 -1.0792  1.0455  1.4501
   29SAPC  H11Y 3926   2.729   6.408   7.986 -0.6347 -1.8605  0.5389
   29SAPC  C312 3927   2.618   6.401   8.159  0.6115  0.0038 -0.8657
   29SAPC  H12X 3928   2.519   6.435   8.195  1.0725 -0.3489  0.7620
   29SAPC  H12Y 3929   2.681   6.458   8.230  1.2398 -0.4276 -1.0696
   29SAPC  C313 3930   2.643   6.252   8.168 -0.0267  0.6314 -0.0118
   29SAPC  H13X 3931   2.744   6.225   8.130  0.1534 -3.1285  2.7855
   29SAPC  H13Y 3932   2.558   6.211   8.109  0.2615 -1.9081  1.2497
   29SAPC  C314 3933   2.659   6.208   8.317 -0.1798  0.0463  0.3746
   29SAPC  H14X 3934   2.755   6.246   8.357 -1.2630  2.3893  0.8424
   29SAPC  H14Y 3935   2.685   6.101   8.307 -1.3301 -0.2240  0.1160
   29SAPC  C315 3936   2.543   6.242   8.406 -0.0882 -0.1316 -0.4980
   29SAPC  H15X 3937   2.446   6.207   8.367 -1.6559  2.1630  1.1972
   29SAPC  H15Y 3938   2.533   6.350   8.430 -2.5155 -0.2076 -1.0936
   29SAPC  C316 3939   2.558   6.164   8.537  0.3221  0.6119  0.6578
   29SAPC  H16X 3940   2.658   6.185   8.582  0.3342 -0.2465  1.0388
   29SAPC  H16Y 3941   2.558   6.056   8.511  0.5665  0.1882  2.3485
   29SAPC  C317 3942   2.454   6.201   8.644  0.2178  0.1469 -0.3621
   29SAPC  H17X 3943   2.480   6.288   8.708 -0.8089 -1.6680  2.6600
   29SAPC  H17Y 3944   2.472   6.124   8.722 -2.3339  0.5957  0.7397
   29SAPC  C318 3945   2.312   6.209   8.606  0.4447 -0.0728 -0.3616
   29SAPC  H18X 3946   2.279   6.107   8.578 -1.0456  0.4847 -0.6954
   29SAPC  H18Y 3947   2.297   6.267   8.511  2.3289 -0.1725 -0.7410
   29SAPC  H18Z 3948   2.247   6.254   8.684  0.3155  3.0943 -2.1669
   30SAPC     N 3949   4.244   6.280   5.940  0.2573 -0.5412  0.0469
   30SAPC   C12 3950   4.211   6.331   6.084  0.2890 -0.0468 -0.5323
   30SAPC  H12A 3951   4.237   6.435   6.095 -1.4157  0.2974  0.4219
   30SAPC  H12B 3952   4.265   6.268   6.153 -1.6459 -0.8130  0.2986
   30SAPC   C13 3953   4.190   6.382   5.853  0.1197  0.1542  0.1651
   30SAPC  H13A 3954   4.082   6.380   5.852  0.0846  0.6188  1.4248
   30SAPC  H13B 3955   4.226   6.482   5.874 -0.4499  0.0135  1.9231
   30SAPC  H13C 3956   4.222   6.367   5.751 -1.3900  2.2178 -0.6481
   30SAPC   C14 3957   4.390   6.285   5.920  0.1820  0.6893 -0.5918
   30SAPC  H14A 3958   4.426   6.383   5.946 -1.4051  1.4720 -1.2660
   30SAPC  H14B 3959   4.453   6.211   5.968  0.8856  1.2100 -0.7031
   30SAPC  H14C 3960   4.417   6.263   5.817  0.7030 -2.5625  0.1687
   30SAPC   C15 3961   4.196   6.138   5.915  0.2438 -0.6633  0.8496
   30SAPC  H15A 3962   4.219   6.104   5.814 -0.0537  3.3647 -0.6600
   30SAPC  H15B 3963   4.251   6.069   5.978  1.1690  0.2331  1.0478
   30SAPC  H15C 3964   4.090   6.127   5.929  0.3457 -0.4607  1.7683
   30SAPC   C11 3965   4.066   6.319   6.142  0.4871 -0.7320  0.3138
   30SAPC  H11A 3966   3.998   6.387   6.087  2.5876  0.0628 -1.3523
   30SAPC  H11B 3967   4.065   6.352   6.248  0.2723  2.5725 -0.6545
   30SAPC     P 3968   4.084   6.085   6.242  0.4770  0.2523  0.2012
   30SAPC   O13 3969   4.077   5.944   6.197 -0.0285  0.4382 -0.3641
   30SAPC   O14 3970   4.220   6.131   6.268  0.0984  0.3227 -0.1482
   30SAPC   O12 3971   4.020   6.187   6.135  0.0263 -0.2210 -0.0192
   30SAPC   O11 3972   4.011   6.103   6.380  0.0172  0.0557  0.6040
   30SAPC    C1 3973   3.871   6.154   6.386 -0.2779 -0.0019  0.2467
   30SAPC    HA 3974   3.866   6.264   6.377 -3.0518 -0.2420 -1.8993
   30SAPC    HB 3975   3.810   6.126   6.297  1.0858  0.8285 -0.9551
   30SAPC    C2 3976   3.795   6.123   6.515  0.4084  0.1507  0.5843
   30SAPC    HS 3977   3.728   6.210   6.532  0.5895  0.6510 -1.1925
   30SAPC   O21 3978   3.892   6.114   6.616 -0.4887 -0.2892 -0.2457
   30SAPC   C21 3979   3.952   6.214   6.657 -0.1029  0.0382  0.2067
   30SAPC   O22 3980   3.943   6.333   6.615 -0.2094  0.3504  0.4916
   30SAPC   C22 3981   4.018   6.173   6.785 -0.6351  0.0583 -0.6476
   30SAPC   H2R 3982   4.050   6.067   6.774  0.1593  0.1549  0.6275
   30SAPC   H2S 3983   4.119   6.220   6.785  0.1524 -1.5565 -2.3873
   30SAPC    C3 3984   3.704   6.001   6.522 -0.2408  0.5558 -0.4043
   30SAPC    HX 3985   3.771   5.912   6.516 -0.9992  0.0846 -2.0391
   30SAPC    HY 3986   3.644   5.997   6.429 -1.6479  0.7038  0.4877
   30SAPC   O31 3987   3.629   5.992   6.642  0.6620  0.3622  0.6280
   30SAPC   C31 3988   3.525   6.068   6.652 -0.5576 -0.0483  0.2182
   30SAPC   O32 3989   3.493   6.162   6.580  0.5666 -0.0629  0.2929
   30SAPC   C32 3990   3.445   6.036   6.785 -0.3299  0.6541 -0.0669
   30SAPC   H2X 3991   3.506   5.963   6.842  0.3480  2.4145  1.5089
   30SAPC   H2Y 3992   3.346   5.991   6.763 -0.5391  0.4090  1.3218
   30SAPC   C23 3993   3.926   6.194   6.905 -0.3107  0.3733  0.0696
   30SAPC   H3R 3994   3.863   6.104   6.922  1.3007 -0.5976  1.0022
   30SAPC   H3S 3995   3.866   6.287   6.892  0.3528  0.7688 -0.1665
   30SAPC   C24 3996   4.016   6.219   7.034  0.5669 -0.5651  0.3931
   30SAPC   H4R 3997   4.079   6.309   7.019  2.9051 -2.0007  1.3212
   30SAPC   H4S 3998   4.078   6.128   7.049  0.4960 -0.4889  1.1917
   30SAPC   C25 3999   3.937   6.242   7.158  0.0273  0.3899 -0.8003
   30SAPC   H5R 4000   3.854   6.314   7.150 -0.3905 -0.1261 -1.1941
   30SAPC   C26 4001   3.962   6.198   7.283 -0.5690 -0.1791  0.1996
   30SAPC   H6R 4002   3.894   6.230   7.363 -0.9757  1.6704 -0.8567
   30SAPC   C27 4003   4.084   6.114   7.328 -0.0107  0.0497 -0.1014
   30SAPC   H7R 4004   4.140   6.086   7.236 -3.1844 -0.3643 -1.9923
   30SAPC   H7S 4005   4.048   6.011   7.349  0.5616  0.0043  0.6676
   30SAPC   C28 4006   4.173   6.173   7.438 -0.5584 -0.1733 -0.5542
   30SAPC   H8R 4007   4.214   6.270   7.410 -0.6015  0.4234  1.3422
   30SAPC   C29 4008   4.192   6.129   7.561 -0.4195  0.8095  0.4764
   30SAPC   H9R 4009   4.261   6.176   7.634 -0.0270  1.1156 -0.0873
   30SAPC  C210 4010   4.126   6.006   7.613  0.2922  0.5378 -0.4542
   30SAPC  H10R 4011   4.140   5.913   7.555  0.4077 -2.5317  4.1779
   30SAPC  H10S 4012   4.018   6.032   7.608  0.8325  2.9582 -0.1367
   30SAPC  C211 4013   4.167   5.981   7.757 -0.3030  0.3678 -0.2386
   30SAPC  H11R 4014   4.262   5.927   7.772  0.4546  2.1310  1.7086
   30SAPC  C212 4015   4.104   6.012   7.877 -0.2874  0.8391 -0.0637
   30SAPC  H12R 4016   4.140   5.990   7.978 -1.7682  2.3481  0.8339
   30SAPC  C213 4017   3.973   6.082   7.892  0.7183  0.8950 -0.5013
   30SAPC  H13R 4018   3.955   6.101   8.000  1.3506  1.5031 -0.4986
   30SAPC  H13S 4019   3.901   6.008   7.852  1.4691  0.6172 -1.3510
   30SAPC  C214 4020   3.958   6.218   7.822  0.3291 -0.4609 -0.0469
   30SAPC  H14R 4021   3.986   6.219   7.715  1.7520 -2.5257  0.2683
   30SAPC  C215 4022   3.932   6.333   7.885  0.2209 -0.3204  0.4734
   30SAPC  H15R 4023   3.946   6.420   7.820 -2.7435  0.3076  0.5819
   30SAPC  C216 4024   3.903   6.357   8.038 -0.1210 -0.1823  0.0489
   30SAPC  H16R 4025   3.876   6.264   8.093 -0.3255  0.0358  0.3256
   30SAPC  H16S 4026   3.817   6.427   8.042  0.1920  0.2030  0.0641
   30SAPC  C217 4027   4.018   6.427   8.119  0.1913 -0.0034  0.1053
   30SAPC  H17R 4028   4.022   6.533   8.085  0.2598  0.3957  1.3169
   30SAPC  H17S 4029   4.115   6.376   8.102  0.6608  1.0235 -0.3458
   30SAPC  C218 4030   4.004   6.410   8.272 -0.5812  0.2869  0.0052
   30SAPC  H18R 4031   3.896   6.422   8.293 -0.3646  0.2794  1.1649
   30SAPC  H18S 4032   4.061   6.485   8.332 -0.7621  1.9682 -1.8552
   30SAPC  C219 4033   4.040   6.266   8.316  0.0978  0.2580  0.5412
   30SAPC  H19R 4034   4.150   6.255   8.309  0.2609  2.0362  0.2864
   30SAPC  H19S 4035   4.004   6.192   8.242 -0.0968 -0.4943  1.3771
   30SAPC  C220 4036   3.997   6.233   8.463 -0.2230 -0.2667  0.2555
   30SAPC  H20R 4037   3.886   6.233   8.460 -0.2110 -0.0714 -0.2136
   30SAPC  H20S 4038   4.030   6.318   8.526 -0.4994  0.1084 -0.1029
   30SAPC  H20T 4039   4.037   6.134   8.493  0.1716 -0.3694 -0.5898
   30SAPC   C33 4040   3.432   6.162   6.871 -0.1240 -0.1562  0.4942
   30SAPC   H3X 4041   3.363   6.117   6.945  1.1368 -0.1145  1.7038
   30SAPC   H3Y 4042   3.371   6.237   6.816 -1.8754 -1.6007  0.4071
   30SAPC   C34 4043   3.568   6.213   6.913 -0.0213  0.1325  0.6003
   30SAPC   H4X 4044   3.636   6.224   6.826  0.6489 -0.3816  1.0453
   30SAPC   H4Y 4045   3.612   6.133   6.978  1.6188 -0.8246 -1.6254
   30SAPC   C35 4046   3.567   6.349   6.981 -0.0267  0.7734  0.6717
   30SAPC   H5X 4047   3.526   6.429   6.916 -0.2203  0.0989 -0.0414
   30SAPC   H5Y 4048   3.671   6.378   7.005  1.7225 -2.0522 -2.9073
   30SAPC   C36 4049   3.480   6.361   7.107  0.2245 -0.7075 -0.0635
   30SAPC   H6X 4050   3.370   6.368   7.092  0.1082 -0.2245  0.9711
   30SAPC   H6Y 4051   3.519   6.452   7.158  0.6074 -2.0490  2.0947
   30SAPC   C37 4052   3.511   6.242   7.202  0.0079 -0.3573  0.3155
   30SAPC   H7X 4053   3.619   6.227   7.223  0.3623  1.8919  0.2032
   30SAPC   H7Y 4054   3.467   6.150   7.159  0.7012  0.5944 -2.5226
   30SAPC   C38 4055   3.436   6.254   7.332 -0.0047 -0.1462  0.1212
   30SAPC   H8X 4056   3.462   6.157   7.380 -2.4602 -2.0457 -2.2341
   30SAPC   H8Y 4057   3.329   6.282   7.326  1.0330  4.3002  0.4520
   30SAPC   C39 4058   3.487   6.354   7.433  0.1490  0.5637  0.2821
   30SAPC   H9X 4059   3.472   6.462   7.413  1.4966  0.6390 -0.3970
   30SAPC   H9Y 4060   3.597   6.343   7.426  0.2301 -0.0217  2.2122
   30SAPC  C310 4061   3.446   6.317   7.574  0.7060  0.8309 -0.4335
   30SAPC  H10X 4062   3.484   6.218   7.606  0.3173  1.6153  2.5760
   30SAPC  H10Y 4063   3.335   6.304   7.578  0.8070  0.3627  1.0761
   30SAPC  C311 4064   3.477   6.418   7.685  0.5239  1.1309 -0.0922
   30SAPC  H11X 4065   3.397   6.494   7.671  0.2574  0.7459 -0.6356
   30SAPC  H11Y 4066   3.580   6.455   7.664  0.5132  1.0181 -0.3353
   30SAPC  C312 4067   3.470   6.354   7.831 -0.2421  0.4095  1.0283
   30SAPC  H12X 4068   3.538   6.266   7.832 -1.7969 -0.8917 -1.4725
   30SAPC  H12Y 4069   3.368   6.309   7.832  1.0361 -2.8148 -1.3286
   30SAPC  C313 4070   3.498   6.447   7.948 -0.3065 -0.1022 -0.6818
   30SAPC  H13X 4071   3.443   6.544   7.955 -1.0449 -0.6346  1.2762
   30SAPC  H13Y 4072   3.605   6.476   7.946 -0.7903  1.7706 -1.6991
   30SAPC  C314 4073   3.476   6.359   8.076 -0.3415 -0.0454  0.1876
   30SAPC  H14X 4074   3.538   6.268   8.058  0.1407  0.1268  0.9746
   30SAPC  H14Y 4075   3.371   6.325   8.081  0.4504 -2.4082  1.4881
   30SAPC  C315 4076   3.509   6.431   8.207 -0.3305 -0.2692  0.8357
   30SAPC  H15X 4077   3.445   6.517   8.233 -0.4634  0.3905 -1.5721
   30SAPC  H15Y 4078   3.611   6.474   8.195 -0.8745  1.3071  1.7072
   30SAPC  C316 4079   3.513   6.333   8.324 -0.0064 -0.6686  0.1515
   30SAPC  H16X 4080   3.585   6.256   8.289 -0.3689 -2.2639  2.7243
   30SAPC  H16Y 4081   3.415   6.284   8.338 -0.7237  0.9003  0.7579
   30SAPC  C317 4082   3.576   6.392   8.447  0.0657  0.1855  0.3167
   30SAPC  H17X 4083   3.505   6.465   8.491  0.0001  0.3016  0.0137
   30SAPC  H17Y 4084   3.674   6.444   8.438 -1.7785  3.9687  0.8664
   30SAPC  C318 4085   3.597   6.285   8.551 -0.1671 -0.3042 -0.0980
   30SAPC  H18X 4086   3.683   6.218   8.527  1.0329  1.3121 -0.4622
   30SAPC  H18Y 4087   3.513   6.215   8.568 -2.5861  2.4627 -0.2420
   30SAPC  H18Z 4088   3.623   6.340   8.645 -2.3661  0.7660 -0.1019
   31SAPC     N 4089   4.580   0.891   6.179 -0.0675  0.3246 -0.8898
   31SAPC   C12 4090   4.578   0.796   6.295 -0.4107  0.0152 -0.4379
   31SAPC  H12A 4091   4.631   0.706   6.266  1.5074  0.3686  1.7825
   31SAPC  H12B 4092   4.474   0.770   6.306 -0.4060  0.7508  1.4625
   31SAPC   C13 4093   4.519   0.825   6.053  0.7783  0.2873 -0.3483
   31SAPC  H13A 4094   4.574   0.734   6.037  1.7832  0.5566  1.3643
   31SAPC  H13B 4095   4.412   0.809   6.049  0.7937  0.1181 -0.0872
   31SAPC  H13C 4096   4.543   0.889   5.970 -0.1118  1.5663  0.3622
   31SAPC   C14 4097   4.519   1.025   6.217 -0.5449 -0.5654  0.4180
   31SAPC  H14A 4098   4.535   1.090   6.133  0.7735 -2.7727 -1.0814
   31SAPC  H14B 4099   4.414   1.007   6.236 -0.5828 -1.1998 -0.3478
   31SAPC  H14C 4100   4.583   1.061   6.296  1.1964  0.6777 -1.5277
   31SAPC   C15 4101   4.719   0.915   6.132 -0.6462  0.2264 -0.4951
   31SAPC  H15A 4102   4.774   0.832   6.090 -0.9986  0.2471 -1.0018
   31SAPC  H15B 4103   4.717   1.001   6.067 -0.7193  0.1076 -0.6499
   31SAPC  H15C 4104   4.777   0.950   6.216  0.4237  0.1053 -1.1741
   31SAPC   C11 4105   4.642   0.846   6.430 -0.2844 -0.2555 -0.3366
   31SAPC  H11A 4106   4.612   0.777   6.512 -0.0252 -0.1182 -0.1238
   31SAPC  H11B 4107   4.595   0.941   6.465  0.8447 -0.0005  0.5074
   31SAPC     P 4108   4.870   0.733   6.438  0.1939  0.1535  0.4750
   31SAPC   O13 4109   4.809   0.623   6.361 -0.0209  0.0590 -0.3604
   31SAPC   O14 4110   5.016   0.764   6.417 -0.1629 -0.2552 -0.2810
   31SAPC   O12 4111   4.782   0.865   6.417  0.1168  0.4265  0.7908
   31SAPC   O11 4112   4.837   0.700   6.594  0.9102  0.7812 -0.3032
   31SAPC    C1 4113   4.850   0.795   6.698  0.0257  0.6122 -0.5775
   31SAPC    HA 4114   4.853   0.895   6.650 -1.8687  1.1848  0.4320
   31SAPC    HB 4115   4.757   0.801   6.758  0.5201 -0.3859  0.3025
   31SAPC    C2 4116   4.970   0.767   6.804 -0.0154 -0.0713  0.2923
   31SAPC    HS 4117   5.069   0.775   6.756  1.5720 -0.2206  3.4222
   31SAPC   O21 4118   4.955   0.644   6.874 -0.3551  0.1468  0.0099
   31SAPC   C21 4119   5.011   0.544   6.815 -0.6058  0.1734  0.2211
   31SAPC   O22 4120   5.078   0.538   6.711  0.3609 -0.5990  0.3870
   31SAPC   C22 4121   4.994   0.423   6.909  0.2233 -0.7224  0.2361
   31SAPC   H2R 4122   4.897   0.413   6.961 -0.4444 -0.5062 -0.9498
   31SAPC   H2S 4123   4.968   0.342   6.837 -2.8529  0.6178 -0.2166
   31SAPC    C3 4124   4.962   0.891   6.895  0.4598 -0.8359 -0.0763
   31SAPC    HX 4125   4.871   0.885   6.958  0.3058 -2.0039 -0.3957
   31SAPC    HY 4126   4.941   0.971   6.821 -0.7480 -1.2423 -0.1807
   31SAPC   O31 4127   5.090   0.922   6.957 -0.1840 -0.8230  0.5542
   31SAPC   C31 4128   5.105   0.884   7.079 -0.2194 -0.2395  0.9313
   31SAPC   O32 4129   5.022   0.835   7.155 -0.5232 -0.2151 -0.1985
   31SAPC   C32 4130   5.257   0.902   7.115 -0.1793 -0.1102  0.5936
   31SAPC   H2X 4131   5.267   1.010   7.095 -1.2694 -0.4017 -1.6396
   31SAPC   H2Y 4132   5.329   0.846   7.052 -1.2273 -0.0479 -0.6748
   31SAPC   C23 4133   5.121   0.392   6.987  0.3039  0.1156 -0.5286
   31SAPC   H3R 4134   5.145   0.483   7.046  0.7762 -0.6141  0.4094
   31SAPC   H3S 4135   5.210   0.378   6.922  1.0366 -1.6311  0.8140
   31SAPC   C24 4136   5.107   0.263   7.079  0.1274  0.2851 -0.0354
   31SAPC   H4R 4137   5.201   0.232   7.128  0.6068  0.7626 -0.6433
   31SAPC   H4S 4138   5.085   0.184   7.004 -1.4035  0.1870  0.5076
   31SAPC   C25 4139   4.994   0.291   7.185  0.2791 -0.2566  0.6384
   31SAPC   H5R 4140   4.897   0.317   7.140  0.2059  1.3401  1.6717
   31SAPC   C26 4141   4.996   0.294   7.319 -0.5425  0.0439 -0.3234
   31SAPC   H6R 4142   4.902   0.317   7.373 -0.7739 -0.4557 -0.5120
   31SAPC   C27 4143   5.123   0.276   7.399 -0.6257 -0.1837 -0.0675
   31SAPC   H7R 4144   5.129   0.356   7.477  0.8269 -0.7594  0.4252
   31SAPC   H7S 4145   5.211   0.304   7.338  0.4927  1.2164  2.1003
   31SAPC   C28 4146   5.139   0.150   7.476 -0.3417 -0.5587 -0.1224
   31SAPC   H8R 4147   5.137   0.059   7.415 -0.6548  0.6464 -1.9655
   31SAPC   C29 4148   5.168   0.129   7.599  0.1741 -0.1695  0.3703
   31SAPC   H9R 4149   5.154   0.026   7.633 -0.6467 -0.4431 -0.7462
   31SAPC  C210 4150   5.192   0.237   7.697 -0.4349  0.2629  0.6115
   31SAPC  H10R 4151   5.112   0.313   7.693 -0.1151  0.5283 -2.3434
   31SAPC  H10S 4152   5.276   0.301   7.662 -2.3879  2.1618 -0.7606
   31SAPC  C211 4153   5.210   0.192   7.833  0.3552 -0.2540 -0.0980
   31SAPC  H11R 4154   5.308   0.145   7.849  0.5708  0.3749  0.4024
   31SAPC  C212 4155   5.123   0.196   7.932  0.2603 -0.3377 -0.4322
   31SAPC  H12R 4156   5.166   0.153   8.024  0.6270  2.2902  0.6754
   31SAPC  C213 4157   4.977   0.237   7.921 -0.0188  0.0229  0.1595
   31SAPC  H13R 4158   4.943   0.218   7.817 -1.3162  1.1318  0.3725
   31SAPC  H13S 4159   4.974   0.347   7.933  0.3536 -0.0912  1.3916
   31SAPC  C214 4160   4.878   0.176   8.016  0.0787 -0.3091 -0.0070
   31SAPC  H14R 4161   4.903   0.073   8.045  0.6352 -0.5227 -1.1953
   31SAPC  C215 4162   4.765   0.233   8.059  0.3770 -0.4337  0.1233
   31SAPC  H15R 4163   4.700   0.179   8.129  0.1549  1.3597  1.3502
   31SAPC  C216 4164   4.719   0.371   8.014 -0.0291 -0.3677  0.0316
   31SAPC  H16R 4165   4.729   0.390   7.905 -1.0882  3.1485  0.4892
   31SAPC  H16S 4166   4.776   0.447   8.071 -0.7463 -2.3731  3.5707
   31SAPC  C217 4167   4.568   0.400   8.039 -0.2574  0.2064 -0.3744
   31SAPC  H17R 4168   4.508   0.343   7.966  1.4234 -0.3078 -1.3858
   31SAPC  H17S 4169   4.553   0.507   8.013  0.7661  0.3227 -0.5139
   31SAPC  C218 4170   4.504   0.373   8.171  0.0555  0.1843  1.2188
   31SAPC  H18R 4171   4.526   0.274   8.215  1.8035 -0.8331 -1.7819
   31SAPC  H18S 4172   4.394   0.373   8.151  0.4488  1.4485 -1.1460
   31SAPC  C219 4173   4.538   0.483   8.269 -0.4764 -0.0769 -1.0483
   31SAPC  H19R 4174   4.553   0.581   8.219 -1.0800  1.5677  1.8497
   31SAPC  H19S 4175   4.637   0.451   8.308  0.1917  2.2291 -0.7514
   31SAPC  C220 4176   4.445   0.498   8.388 -0.1035 -0.1443  0.0512
   31SAPC  H20R 4177   4.454   0.407   8.450  1.2997 -3.8406 -5.2592
   31SAPC  H20S 4178   4.340   0.496   8.352 -1.0218 -1.3262  2.7437
   31SAPC  H20T 4179   4.475   0.577   8.460 -0.2379  0.1688 -0.2327
   31SAPC   C33 4180   5.291   0.873   7.258  0.1502  0.9130 -0.0759
   31SAPC   H3X 4181   5.215   0.904   7.333  0.8491  0.9622  0.6090
   31SAPC   H3Y 4182   5.385   0.928   7.280  0.3810  0.3668  0.3138
   31SAPC   C34 4183   5.320   0.733   7.280 -0.0374  0.1520  0.1196
   31SAPC   H4X 4184   5.400   0.693   7.213  0.3816  0.9990  0.1152
   31SAPC   H4Y 4185   5.235   0.664   7.262  1.8324 -2.1323 -0.2911
   31SAPC   C35 4186   5.366   0.718   7.426  0.0523 -0.3645  0.0914
   31SAPC   H5X 4187   5.311   0.784   7.495 -2.8745 -2.4671 -0.1424
   31SAPC   H5Y 4188   5.472   0.746   7.442 -0.3044 -0.5205  2.8639
   31SAPC   C36 4189   5.338   0.576   7.477  0.2244 -0.1833 -0.5653
   31SAPC   H6X 4190   5.352   0.501   7.396 -1.0751 -0.4469 -0.5646
   31SAPC   H6Y 4191   5.231   0.581   7.508  0.4030  0.0165  0.0319
   31SAPC   C37 4192   5.428   0.522   7.589 -0.7238 -0.3887  0.4219
   31SAPC   H7X 4193   5.535   0.551   7.576 -0.5838 -0.0609  2.2151
   31SAPC   H7Y 4194   5.422   0.412   7.596 -0.4234 -0.5239 -1.1756
   31SAPC   C38 4195   5.372   0.574   7.729 -0.5619  0.5016 -0.2625
   31SAPC   H8X 4196   5.276   0.519   7.742  0.0393 -0.3241  0.7481
   31SAPC   H8Y 4197   5.344   0.682   7.729  0.2484  0.7268 -2.2206
   31SAPC   C39 4198   5.471   0.533   7.843 -0.5798 -0.3221 -0.0893
   31SAPC   H9X 4199   5.573   0.576   7.837 -0.9301  0.5494  0.2287
   31SAPC   H9Y 4200   5.469   0.422   7.846 -0.6224 -0.2869  1.1731
   31SAPC  C310 4201   5.432   0.559   7.986 -0.5285 -0.0307  0.2543
   31SAPC  H10X 4202   5.402   0.663   8.009 -1.9033 -0.4154  0.2817
   31SAPC  H10Y 4203   5.515   0.533   8.054  0.1525 -1.7772 -1.2081
   31SAPC  C311 4204   5.320   0.471   8.037  0.5053  0.3755 -0.2120
   31SAPC  H11X 4205   5.354   0.365   8.034  0.3729  0.3321 -0.1957
   31SAPC  H11Y 4206   5.234   0.479   7.967  0.8425 -1.2649 -0.8526
   31SAPC  C312 4207   5.271   0.504   8.179 -0.5168  0.4652  0.2280
   31SAPC  H12X 4208   5.341   0.467   8.257 -1.2968 -0.7176  0.3684
   31SAPC  H12Y 4209   5.169   0.461   8.180 -0.1272 -0.7558 -3.7220
   31SAPC  C313 4210   5.240   0.652   8.199 -0.5745 -0.0272  0.0488
   31SAPC  H13X 4211   5.180   0.686   8.111 -0.0827  0.5768 -0.0550
   31SAPC  H13Y 4212   5.338   0.703   8.207 -1.3943  1.3644  1.3911
   31SAPC  C314 4213   5.168   0.702   8.331 -0.3271 -0.7981 -0.3489
   31SAPC  H14X 4214   5.231   0.677   8.419 -1.1724  2.6428  1.3368
   31SAPC  H14Y 4215   5.072   0.648   8.343 -0.7581 -0.5182 -2.2620
   31SAPC  C315 4216   5.143   0.858   8.331  0.1931 -0.2697 -0.5753
   31SAPC  H15X 4217   5.045   0.894   8.370  0.1010  0.1730 -1.1889
   31SAPC  H15Y 4218   5.161   0.878   8.223  1.6617  1.4435 -0.0511
   31SAPC  C316 4219   5.247   0.926   8.416  0.1812  0.0913 -0.1444
   31SAPC  H16X 4220   5.346   0.909   8.369  0.5298  0.5434  0.4286
   31SAPC  H16Y 4221   5.264   0.886   8.519 -2.1847 -1.3317 -0.2705
   31SAPC  C317 4222   5.213   1.070   8.420 -0.0607  0.1702 -0.6278
   31SAPC  H17X 4223   5.122   1.088   8.480  0.7977 -2.6903  1.6247
   31SAPC  H17Y 4224   5.197   1.105   8.315 -1.1624  1.4960 -0.0272
   31SAPC  C318 4225   5.325   1.162   8.471 -0.2277 -0.0276 -0.3631
   31SAPC  H18X 4226   5.400   1.164   8.390  2.1634  0.2499  1.8028
   31SAPC  H18Y 4227   5.371   1.131   8.568  2.7435  0.3040 -1.6316
   31SAPC  H18Z 4228   5.282   1.263   8.490 -0.5551 -0.1287 -0.5679
   32SAPC     N 4229   0.542   1.076   5.877 -0.1391 -0.9599  0.9108
   32SAPC   C12 4230   0.450   0.986   5.962 -0.5684  0.0246 -1.1414
   32SAPC  H12A 4231   0.443   0.890   5.912 -1.8373 -0.6166  0.2272
   32SAPC  H12B 4232   0.354   1.031   5.980 -0.2380  0.1524  0.3140
   32SAPC   C13 4233   0.679   1.030   5.873  0.2356  0.3200  0.3086
   32SAPC  H13A 4234   0.715   1.029   5.975  1.7206  0.5663 -0.1973
   32SAPC  H13B 4235   0.693   0.928   5.842 -0.2176  0.4311 -0.2572
   32SAPC  H13C 4236   0.746   1.094   5.817 -1.4309 -0.5225 -2.7696
   32SAPC   C14 4237   0.474   1.079   5.744  0.4749 -0.0763 -0.4060
   32SAPC  H14A 4238   0.372   1.110   5.758  1.2289  1.9917  0.7508
   32SAPC  H14B 4239   0.523   1.152   5.681 -2.6043  1.8288 -0.7012
   32SAPC  H14C 4240   0.473   0.980   5.701  1.0418 -0.4557  0.4462
   32SAPC   C15 4241   0.537   1.215   5.931  0.1662  0.4540 -0.0921
   32SAPC  H15A 4242   0.587   1.285   5.866  0.8777 -0.2353 -0.2951
   32SAPC  H15B 4243   0.434   1.246   5.945  0.6460  1.3412  1.6603
   32SAPC  H15C 4244   0.594   1.221   6.023 -1.2354  1.1336  0.7580
   32SAPC   C11 4245   0.509   0.941   6.097 -0.2014  0.5661  0.8002
   32SAPC  H11A 4246   0.602   0.881   6.084 -0.8444 -0.0681 -1.0586
   32SAPC  H11B 4247   0.448   0.865   6.151  3.5162 -2.1950  1.2843
   32SAPC     P 4248   0.411   1.127   6.255  0.2252 -0.0688 -0.1102
   32SAPC   O13 4249   0.463   1.213   6.364 -0.4481  0.1774  0.3280
   32SAPC   O14 4250   0.334   1.205   6.152 -0.6750  0.4968 -0.6566
   32SAPC   O12 4251   0.532   1.055   6.178  0.1850  0.2525  0.1901
   32SAPC   O11 4252   0.324   1.014   6.324  0.6319  0.2520  0.8396
   32SAPC    C1 4253   0.182   1.035   6.352 -0.0599  0.0007  0.5574
   32SAPC    HA 4254   0.143   1.089   6.263  1.6395  0.4307  0.0374
   32SAPC    HB 4255   0.130   0.939   6.375 -0.3868 -0.2618 -1.1984
   32SAPC    C2 4256   0.156   1.123   6.479 -0.1213 -0.1909  0.2359
   32SAPC    HS 4257   0.193   1.226   6.463  2.8809 -1.4945 -1.6905
   32SAPC   O21 4258   0.211   1.066   6.598  0.1727 -0.5616  1.0120
   32SAPC   C21 4259   0.250   1.157   6.695 -0.1267 -0.3473 -0.1983
   32SAPC   O22 4260   0.237   1.278   6.689 -0.0009  0.3814  0.2834
   32SAPC   C22 4261   0.318   1.086   6.809  0.4178 -0.2980  1.0900
   32SAPC   H2R 4262   0.421   1.060   6.777 -0.5542 -1.0839 -1.5031
   32SAPC   H2S 4263   0.318   1.160   6.892 -0.0001  1.2363 -0.2619
   32SAPC    C3 4264   0.001   1.142   6.482 -0.7410 -0.6084  0.1560
   32SAPC    HX 4265  -0.048   1.044   6.462  0.7113 -1.5855  1.2682
   32SAPC    HY 4266  -0.029   1.214   6.403  3.0053  0.7193 -0.1856
   32SAPC   O31 4267  -0.041   1.182   6.618  0.2651 -0.0389 -0.9789
   32SAPC   C31 4268  -0.125   1.284   6.639  0.2655  0.0683  0.7100
   32SAPC   O32 4269  -0.175   1.361   6.555  0.0422 -0.1582  0.5036
   32SAPC   C32 4270  -0.146   1.291   6.792  0.0577 -0.4907 -0.0000
   32SAPC   H2X 4271  -0.050   1.320   6.839 -0.0997 -0.1814  0.1359
   32SAPC   H2Y 4272  -0.182   1.190   6.822  0.1713 -0.3251  0.7082
   32SAPC   C23 4273   0.237   0.961   6.852  0.0636  0.1599  0.2375
   32SAPC   H3R 4274   0.304   0.873   6.843  0.3159  0.2193  1.4666
   32SAPC   H3S 4275   0.153   0.942   6.782  0.0243  0.3690  0.2282
   32SAPC   C24 4276   0.173   0.974   6.990 -0.0116 -0.5493  0.5926
   32SAPC   H4R 4277   0.104   0.892   7.018 -0.9038 -0.4071 -1.1238
   32SAPC   H4S 4278   0.109   1.065   6.999  0.3217 -0.4012  1.5343
   32SAPC   C25 4279   0.278   0.988   7.090  0.6577  0.4417 -0.4995
   32SAPC   H5R 4280   0.342   0.899   7.088 -0.0719 -0.0876 -0.9352
   32SAPC   C26 4281   0.315   1.091   7.168  0.0327 -0.1738  0.2130
   32SAPC   H6R 4282   0.393   1.075   7.244  0.8328  1.8266 -0.1509
   32SAPC   C27 4283   0.239   1.223   7.176 -0.1087 -0.1259  0.5618
   32SAPC   H7R 4284   0.237   1.284   7.083 -1.4172  1.1882  1.4243
   32SAPC   H7S 4285   0.314   1.282   7.233  2.3468 -2.1335 -0.5238
   32SAPC   C28 4286   0.097   1.222   7.237 -0.2251 -0.2544  0.0662
   32SAPC   H8R 4287   0.011   1.203   7.170  1.7871 -0.4444 -2.5390
   32SAPC   C29 4288   0.068   1.245   7.370  0.4270  0.3489 -0.3787
   32SAPC   H9R 4289  -0.038   1.248   7.400  0.6516  0.5553  0.4153
   32SAPC  C210 4290   0.155   1.284   7.487 -0.7638  0.0194 -0.3539
   32SAPC  H10R 4291   0.077   1.311   7.562 -1.5055 -1.0006 -0.7450
   32SAPC  H10S 4292   0.198   1.378   7.446  2.4591 -1.6414 -0.8991
   32SAPC  C211 4293   0.249   1.179   7.530 -0.0917 -1.0350 -0.5671
   32SAPC  H11R 4294   0.268   1.099   7.456  0.6731 -0.0062 -1.5012
   32SAPC  C212 4295   0.295   1.158   7.658  0.1909  0.7929  0.0356
   32SAPC  H12R 4296   0.365   1.076   7.676 -0.9405 -0.1039  0.4104
   32SAPC  C213 4297   0.277   1.255   7.774 -0.4619 -0.5470 -0.7393
   32SAPC  H13R 4298   0.184   1.315   7.779  1.0435  1.6749  1.3812
   32SAPC  H13S 4299   0.357   1.332   7.781 -0.2212 -0.5985 -2.6212
   32SAPC  C214 4300   0.280   1.179   7.906  0.5762 -0.7828 -0.1242
   32SAPC  H14R 4301   0.180   1.142   7.933 -0.3099  1.6881  0.0580
   32SAPC  C215 4302   0.388   1.161   7.984 -0.0649  0.7658  0.4953
   32SAPC  H15R 4303   0.375   1.094   8.070 -1.1021 -1.8931 -1.6634
   32SAPC  C216 4304   0.524   1.218   7.967 -0.1222 -0.4619  0.1220
   32SAPC  H16R 4305   0.571   1.263   8.057  0.0269 -2.5333  1.0952
   32SAPC  H16S 4306   0.545   1.291   7.885 -1.6959 -0.4478 -0.2971
   32SAPC  C217 4307   0.629   1.105   7.949  0.4458 -0.1854 -0.2932
   32SAPC  H17R 4308   0.598   1.033   7.870 -0.0136 -1.4332  0.9886
   32SAPC  H17S 4309   0.623   1.038   8.037  2.1085  0.6882  0.5095
   32SAPC  C218 4310   0.771   1.155   7.918  1.0874 -0.0653 -0.4168
   32SAPC  H18R 4311   0.781   1.195   7.814 -3.2847  0.6907 -0.6490
   32SAPC  H18S 4312   0.835   1.064   7.911  0.3983 -0.4646 -1.7184
   32SAPC  C219 4313   0.827   1.242   8.035 -0.1784  0.0984 -0.0016
   32SAPC  H19R 4314   0.799   1.182   8.124 -0.2609 -1.7692 -1.2358
   32SAPC  H19S 4315   0.775   1.340   8.030 -1.9482 -0.8645 -1.5314
   32SAPC  C220 4316   0.978   1.253   8.038 -0.4789 -0.1891  0.7089
   32SAPC  H20R 4317   1.015   1.273   8.141 -1.5106 -0.6862  1.1792
   32SAPC  H20S 4318   1.014   1.339   7.977  2.2737 -1.2196  0.8205
   32SAPC  H20T 4319   1.031   1.168   7.990  2.7037  2.8317 -1.4288
   32SAPC   C33 4320  -0.241   1.404   6.822  0.8716  0.4925 -0.2411
   32SAPC   H3X 4321  -0.335   1.378   6.769 -0.4175  2.1682  1.1639
   32SAPC   H3Y 4322  -0.202   1.501   6.785 -0.0245  1.0990  0.3845
   32SAPC   C34 4323  -0.290   1.410   6.973  0.2867  0.6558 -0.1783
   32SAPC   H4X 4324  -0.321   1.305   6.993 -1.7609  1.0266 -1.2816
   32SAPC   H4Y 4325  -0.370   1.485   6.992 -1.7928 -1.1077 -1.8445
   32SAPC   C35 4326  -0.179   1.446   7.067 -0.5347  0.3973 -0.1609
   32SAPC   H5X 4327  -0.156   1.553   7.052 -1.4884  0.6078 -0.1408
   32SAPC   H5Y 4328  -0.093   1.383   7.035 -0.3559  0.0669  0.9666
   32SAPC   C36 4329  -0.209   1.423   7.217 -0.8999  0.1420 -0.1942
   32SAPC   H6X 4330  -0.108   1.421   7.264  0.0963  0.4253 -2.2454
   32SAPC   H6Y 4331  -0.257   1.325   7.233  0.9162 -0.5177  1.4785
   32SAPC   C37 4332  -0.297   1.533   7.257  0.2007 -0.3425  0.1386
   32SAPC   H7X 4333  -0.392   1.548   7.202 -0.3572 -2.9900  0.3179
   32SAPC   H7Y 4334  -0.236   1.623   7.235 -0.6305  0.0838 -0.4398
   32SAPC   C38 4335  -0.344   1.515   7.398 -0.0533 -0.4346 -0.0958
   32SAPC   H8X 4336  -0.393   1.417   7.412  0.1351 -0.5082  0.0466
   32SAPC   H8Y 4337  -0.414   1.599   7.418  1.0260  0.1864  1.1947
   32SAPC   C39 4338  -0.232   1.501   7.501 -0.2753  0.3763  0.5590
   32SAPC   H9X 4339  -0.163   1.587   7.505  0.7742 -0.3574 -1.0689
   32SAPC   H9Y 4340  -0.170   1.419   7.457  2.6178  3.4268 -1.2387
   32SAPC  C310 4341  -0.278   1.474   7.648  0.0867  0.4017 -0.7064
   32SAPC  H10X 4342  -0.336   1.380   7.643 -0.1138  0.5058 -0.3753
   32SAPC  H10Y 4343  -0.342   1.558   7.683  1.1700  1.2580 -0.7555
   32SAPC  C311 4344  -0.154   1.445   7.736  0.2434 -0.3643  0.1366
   32SAPC  H11X 4345  -0.105   1.544   7.729 -2.2610  0.9044  0.0296
   32SAPC  H11Y 4346  -0.091   1.357   7.711  2.2908  0.9277  0.6214
   32SAPC  C312 4347  -0.191   1.425   7.883  0.3605  0.4514  0.3250
   32SAPC  H12X 4348  -0.097   1.439   7.940  1.3068 -2.2823 -0.4975
   32SAPC  H12Y 4349  -0.239   1.327   7.906  1.5605 -0.1294  0.3689
   32SAPC  C313 4350  -0.287   1.541   7.933  0.6919  0.1276 -0.1811
   32SAPC  H13X 4351  -0.390   1.528   7.894  0.3488  2.7719 -0.2259
   32SAPC  H13Y 4352  -0.244   1.634   7.889  0.0633  0.2483 -0.5464
   32SAPC  C314 4353  -0.292   1.547   8.084 -0.4076  0.6364 -0.6140
   32SAPC  H14X 4354  -0.197   1.593   8.121  0.8766 -0.7217 -2.1253
   32SAPC  H14Y 4355  -0.304   1.445   8.124  2.5811 -0.3880 -2.1554
   32SAPC  C315 4356  -0.411   1.628   8.146 -0.3539 -0.4199  0.0834
   32SAPC  H15X 4357  -0.391   1.733   8.115 -0.5942  0.4204  2.6379
   32SAPC  H15Y 4358  -0.399   1.614   8.255 -0.7551 -0.2207  0.1547
   32SAPC  C316 4359  -0.559   1.598   8.110 -0.1639 -0.5605 -0.1986
   32SAPC  H16X 4360  -0.575   1.628   8.005 -0.2789 -2.7720 -0.8342
   32SAPC  H16Y 4361  -0.624   1.672   8.163  0.8062  1.2199 -1.4601
   32SAPC  C317 4362  -0.616   1.452   8.130  0.4584  0.0675  0.5575
   32SAPC  H17X 4363  -0.603   1.425   8.237  0.4795  0.0583  0.5529
   32SAPC  H17Y 4364  -0.553   1.385   8.068  2.6382  0.4749  2.2769
   32SAPC  C318 4365  -0.767   1.434   8.093 -0.1279  0.1547 -0.3246
   32SAPC  H18X 4366  -0.802   1.338   8.136 -0.5942  0.1619 -0.6815
   32SAPC  H18Y 4367  -0.796   1.442   7.986  1.1753 -0.1634 -0.7051
   32SAPC  H18Z 4368  -0.821   1.514   8.148 -1.0815 -0.3876 -0.4526
   33POPC     N 4369   3.733   1.706  10.848  0.2867  0.0006 -0.3687
   33POPC   C12 4370   3.839   1.668  10.743  0.1880 -0.0358 -0.0136
   33POPC  H12A 4371   3.787   1.663  10.649 -0.2631  2.1504  0.0930
   33POPC  H12B 4372   3.884   1.572  10.765  3.1697  1.1517 -0.6562
   33POPC   C13 4373   3.801   1.745  10.977  0.1359 -0.4380 -0.2787
   33POPC  H13A 4374   3.730   1.762  11.057 -0.8963 -1.9051 -0.8643
   33POPC  H13B 4375   3.872   1.669  11.005  0.7078  0.8363  1.9179
   33POPC  H13C 4376   3.844   1.843  10.958 -1.3137  0.1666 -0.5011
   33POPC   C14 4377   3.649   1.820  10.800  0.4943 -0.2002 -0.4425
   33POPC  H14A 4378   3.590   1.786  10.716  0.1076 -0.7074  0.0267
   33POPC  H14B 4379   3.570   1.854  10.866  0.0665 -0.0374 -1.0341
   33POPC  H14C 4380   3.711   1.904  10.774  0.5981 -0.2759 -0.4396
   33POPC   C15 4381   3.648   1.596  10.878  0.6830  0.2485 -0.7915
   33POPC  H15A 4382   3.613   1.553  10.785  1.6013  0.8373 -1.4154
   33POPC  H15B 4383   3.574   1.607  10.955  1.6578  0.2972  0.1405
   33POPC  H15C 4384   3.702   1.514  10.922  0.8206  0.8754  0.2243
   33POPC   C11 4385   3.952   1.766  10.721 -0.1128 -0.1423  0.4019
   33POPC  H11A 4386   4.028   1.718  10.655 -1.3081 -1.1890 -0.2396
   33POPC  H11B 4387   3.998   1.782  10.821  2.7607  0.2853 -0.9289
   33POPC     P 4388   3.871   1.899  10.505  0.3539  0.0152  0.2306
   33POPC   O13 4389   3.999   1.899  10.433  0.0283 -0.0676  0.3021
   33POPC   O14 4390   3.780   2.008  10.472 -0.2818  0.1144 -0.2276
   33POPC   O12 4391   3.899   1.884  10.660  0.3365  0.7450  0.6087
   33POPC   O11 4392   3.795   1.761  10.488 -0.3110  0.0307  0.2040
   33POPC    C1 4393   3.687   1.741  10.400 -0.2137 -0.8766 -0.0584
   33POPC    HA 4394   3.601   1.696  10.454  0.0239 -0.5066  0.6425
   33POPC    HB 4395   3.648   1.834  10.354 -2.1802 -2.0673 -0.8273
   33POPC    C2 4396   3.734   1.648  10.280 -0.3286  0.3486  0.2443
   33POPC    HS 4397   3.767   1.567  10.348  3.0143  1.2235 -0.2691
   33POPC   O21 4398   3.844   1.710  10.210 -0.3002 -0.4279 -0.4163
   33POPC   C21 4399   3.929   1.622  10.167  0.2331 -0.4313 -0.7840
   33POPC   O22 4400   3.931   1.504  10.204 -0.7258 -0.2905  0.1793
   33POPC   C22 4401   4.031   1.689  10.066 -0.4429 -0.0614 -0.7349
   33POPC   H2R 4402   4.130   1.673  10.113 -1.5400 -0.8570  1.4382
   33POPC   H2S 4403   4.001   1.795  10.052  0.3836  0.0905 -1.3376
   33POPC    C3 4404   3.615   1.598  10.191 -0.0486 -0.0875  0.5185
   33POPC    HX 4405   3.594   1.688  10.129  2.0055 -1.9980 -3.1501
   33POPC    HY 4406   3.526   1.578  10.254 -0.5600  0.0017 -0.1649
   33POPC   O31 4407   3.650   1.494  10.105 -0.1491  0.8668 -0.0492
   33POPC   C31 4408   3.650   1.368  10.147 -0.1525 -0.4183  1.2824
   33POPC   O32 4409   3.626   1.337  10.261 -0.0249  0.4399 -0.1308
   33POPC   C32 4410   3.657   1.284  10.025 -0.4330  0.4239  0.1400
   33POPC   H2X 4411   3.569   1.295   9.958  0.6514 -1.0234 -1.5597
   33POPC   H2Y 4412   3.656   1.181  10.066 -0.0943  0.1912 -0.4269
   33POPC   C23 4413   4.025   1.622   9.930 -0.3548 -0.0510 -0.3286
   33POPC   H3R 4414   3.919   1.608   9.899 -0.8719 -0.7697  1.7107
   33POPC   H3S 4415   4.070   1.522   9.948 -0.5622 -0.2588 -0.9650
   33POPC   C24 4416   4.106   1.692   9.830  0.2629  0.4871  0.3932
   33POPC   H4R 4417   4.216   1.679   9.840  0.2003  0.5956  1.2067
   33POPC   H4S 4418   4.082   1.800   9.828  1.3397  0.7264 -0.1008
   33POPC   C25 4419   4.082   1.628   9.685  0.2847 -0.1593  0.4093
   33POPC   H5R 4420   3.978   1.658   9.659  0.8903  2.3845  0.7301
   33POPC   H5S 4421   4.092   1.520   9.709  0.7765  0.3949  2.8444
   33POPC   C26 4422   4.173   1.682   9.579 -0.3268 -0.4642 -0.5994
   33POPC   H6R 4423   4.278   1.694   9.615 -0.6178 -0.5129  0.2798
   33POPC   H6S 4424   4.142   1.785   9.552  1.3570  0.9212  2.4166
   33POPC   C27 4425   4.177   1.604   9.452  0.7573 -0.2924  0.1922
   33POPC   H7R 4426   4.080   1.633   9.407  0.6535 -0.7416  0.1231
   33POPC   H7S 4427   4.182   1.495   9.477  3.4372  0.0663  1.4466
   33POPC   C28 4428   4.288   1.645   9.353  0.0155 -0.4125  0.0032
   33POPC   H8R 4429   4.380   1.622   9.412 -0.8923  0.8194  1.9247
   33POPC   H8S 4430   4.292   1.754   9.331  0.0052 -1.1160 -3.8508
   33POPC   C29 4431   4.294   1.574   9.218  0.2694  0.4861  0.0542
   33POPC   H91 4432   4.295   1.464   9.220  2.4099  0.4593 -0.9853
   33POPC  C210 4433   4.299   1.623   9.096  0.8835  0.0178  0.6649
   33POPC  H101 4434   4.301   1.551   9.012 -0.5476 -1.3815  1.8075
   33POPC  C211 4435   4.291   1.771   9.058 -0.4895 -0.1549 -0.1926
   33POPC  H11R 4436   4.342   1.835   9.134 -0.3886  0.4186 -0.7413
   33POPC  H11S 4437   4.189   1.813   9.048  0.0541  1.5534  1.1948
   33POPC  C212 4438   4.345   1.802   8.921 -0.8917 -0.6749 -0.3663
   33POPC  H12R 4439   4.326   1.911   8.910 -0.5923 -0.4921  0.8231
   33POPC  H12S 4440   4.284   1.739   8.854 -2.8581  0.3164  0.4392
   33POPC  C213 4441   4.498   1.769   8.911 -0.4640  0.4688  0.2025
   33POPC  H13R 4442   4.503   1.658   8.917 -0.2161  0.5535  1.6597
   33POPC  H13S 4443   4.560   1.798   8.998 -2.0885 -1.8464  2.1937
   33POPC  C214 4444   4.560   1.818   8.775  0.2331 -0.1288 -0.3890
   33POPC  H14R 4445   4.563   1.929   8.779 -1.1801 -0.1245  1.0519
   33POPC  H14S 4446   4.490   1.785   8.695 -1.4410  0.3342  0.8562
   33POPC  C215 4447   4.695   1.757   8.744  0.7229  0.2075 -0.1527
   33POPC  H15R 4448   4.709   1.765   8.634 -1.1260 -0.8055 -0.4868
   33POPC  H15S 4449   4.700   1.649   8.769 -2.5205  0.1469  0.4211
   33POPC  C216 4450   4.805   1.835   8.805  1.2133 -0.3944 -0.0066
   33POPC  H16R 4451   4.781   1.860   8.911  3.2345  0.3819  0.2792
   33POPC  H16S 4452   4.801   1.932   8.751 -1.7089 -2.0068 -2.8780
   33POPC  C217 4453   4.945   1.780   8.789 -0.2123 -0.3798  0.1753
   33POPC  H17R 4454   4.964   1.768   8.680  0.9700  1.2226  0.1908
   33POPC  H17S 4455   4.956   1.683   8.841  0.8125 -0.2981  0.1215
   33POPC  C218 4456   5.051   1.878   8.859 -0.7651  0.3074  0.0386
   33POPC  H18R 4457   5.035   1.891   8.969  3.0002 -1.8964  0.9446
   33POPC  H18S 4458   5.048   1.972   8.800  1.0224 -0.7537 -1.8027
   33POPC  H18T 4459   5.152   1.835   8.843  0.1549  2.4231 -0.0302
   33POPC   C33 4460   3.787   1.296   9.944 -0.1323 -0.4014  0.3906
   33POPC   H3X 4461   3.868   1.227   9.979 -0.0334 -0.5743 -0.1635
   33POPC   H3Y 4462   3.830   1.398   9.945  0.2052 -0.5385  0.1975
   33POPC   C34 4463   3.753   1.255   9.798 -0.1468  0.4783  0.6679
   33POPC   H4X 4464   3.674   1.326   9.764 -2.2053 -0.7460  2.7053
   33POPC   H4Y 4465   3.730   1.147   9.805  1.9519  0.0413  1.0966
   33POPC   C35 4466   3.872   1.273   9.696 -0.0047 -0.9229  0.0432
   33POPC   H5X 4467   3.952   1.198   9.716  0.8878  1.2238  5.2570
   33POPC   H5Y 4468   3.902   1.378   9.715  1.9254 -1.7441  1.7496
   33POPC   C36 4469   3.816   1.257   9.559  0.2930 -0.3228 -0.5904
   33POPC   H6X 4470   3.713   1.297   9.553 -0.5589 -2.0187  2.1349
   33POPC   H6Y 4471   3.818   1.147   9.544 -0.0222 -0.4881  0.5327
   33POPC   C37 4472   3.902   1.322   9.448  0.0280  0.1501 -0.1294
   33POPC   H7X 4473   4.010   1.304   9.468  0.0704  0.9304  0.3896
   33POPC   H7Y 4474   3.873   1.429   9.447 -0.2380  0.0741 -0.5035
   33POPC   C38 4475   3.861   1.262   9.309  0.5828 -0.8769 -0.0825
   33POPC   H8X 4476   3.760   1.304   9.290  0.7341 -0.9369 -1.0178
   33POPC   H8Y 4477   3.868   1.153   9.329 -1.1060 -0.9766  0.0247
   33POPC   C39 4478   3.952   1.297   9.192  0.3399  0.6235 -0.1192
   33POPC   H9X 4479   4.049   1.244   9.185 -0.8229 -1.7108  1.0116
   33POPC   H9Y 4480   3.984   1.403   9.186  0.1792  0.6344 -0.7929
   33POPC  C310 4481   3.885   1.273   9.056  0.2748  0.2571 -0.1785
   33POPC  H10X 4482   3.787   1.324   9.065  0.2299  0.6066 -2.4898
   33POPC  H10Y 4483   3.866   1.167   9.029 -1.1780  0.7802 -1.2435
   33POPC  C311 4484   3.962   1.336   8.939 -0.3695 -0.1418  0.1796
   33POPC  H11X 4485   3.987   1.443   8.957 -0.8246 -0.1935  1.1559
   33POPC  H11Y 4486   3.903   1.324   8.846  0.1026  1.4670 -0.3331
   33POPC  C312 4487   4.106   1.286   8.929  0.2412  0.1973  0.6248
   33POPC  H12X 4488   4.113   1.184   8.972  0.9344 -0.2706 -0.5515
   33POPC  H12Y 4489   4.175   1.341   8.997 -0.8796 -0.1642  2.0568
   33POPC  C313 4490   4.168   1.274   8.789  0.1113  0.1791 -0.5925
   33POPC  H13X 4491   4.092   1.228   8.722 -0.3170  0.9473 -0.6417
   33POPC  H13Y 4492   4.261   1.214   8.791 -1.6385 -2.5800  1.3173
   33POPC  C314 4493   4.198   1.411   8.723  0.0390  0.4559 -0.3402
   33POPC  H14X 4494   4.254   1.465   8.803 -0.0427 -0.5846  0.4386
   33POPC  H14Y 4495   4.102   1.466   8.714 -0.2494  0.2075  1.1195
   33POPC  C315 4496   4.276   1.405   8.591  0.3403 -0.0875 -0.4607
   33POPC  H15X 4497   4.210   1.364   8.512 -0.2454 -1.1553  0.5723
   33POPC  H15Y 4498   4.351   1.325   8.605  0.8748  0.8570  2.4214
   33POPC  C316 4499   4.337   1.536   8.535  0.0299 -0.0759 -0.1626
   33POPC  H16X 4500   4.408   1.581   8.608  1.9426 -1.7747 -0.9100
   33POPC  H16Y 4501   4.255   1.609   8.520 -0.7278 -0.9770 -0.4408
   33POPC  H16Z 4502   4.387   1.521   8.437 -0.3498 -1.2207 -0.1919
   34POPC     N 4503   2.971   1.997  11.023 -0.3029 -0.1485  0.4820
   34POPC   C12 4504   3.103   1.948  10.968  0.5590  0.6452  0.0235
   34POPC  H12A 4505   3.089   1.842  10.952 -1.9870  0.5629  2.3801
   34POPC  H12B 4506   3.168   1.942  11.054 -1.3223  0.9264  1.4981
   34POPC   C13 4507   2.918   1.896  11.125  0.2090 -0.1721  0.2675
   34POPC  H13A 4508   2.984   1.897  11.211  0.9350 -0.4468 -0.2804
   34POPC  H13B 4509   2.819   1.921  11.162 -0.1973 -2.4964  0.8423
   34POPC  H13C 4510   2.922   1.796  11.084  0.2546 -0.4337  0.9055
   34POPC   C14 4511   2.986   2.134  11.092  0.0635 -0.4008 -0.1120
   34POPC  H14A 4512   3.030   2.203  11.022 -0.0007  0.6872  0.9097
   34POPC  H14B 4513   2.893   2.175  11.130  0.8451 -0.8378  2.3967
   34POPC  H14C 4514   3.048   2.126  11.181  0.3154  0.2185 -0.2354
   34POPC   C15 4515   2.873   2.005  10.916 -1.0973  0.4721 -0.6152
   34POPC  H15A 4516   2.793   2.074  10.938 -0.6159  0.7129  0.4308
   34POPC  H15B 4517   2.841   1.903  10.902 -0.3077  0.0473  0.6407
   34POPC  H15C 4518   2.918   2.033  10.822 -0.4416 -1.7380 -0.9884
   34POPC   C11 4519   3.181   2.021  10.861 -0.4755 -0.1073  0.2538
   34POPC  H11A 4520   3.270   1.963  10.828  0.0307  1.0670 -0.4686
   34POPC  H11B 4521   3.209   2.119  10.904  3.1302 -1.5160  1.2668
   34POPC     P 4522   3.159   2.119  10.617 -0.0315  0.0615 -0.3194
   34POPC   O13 4523   3.286   2.066  10.569  0.3092 -0.0622 -0.1862
   34POPC   O14 4524   3.153   2.259  10.664  0.0559  0.2191  0.3802
   34POPC   O12 4525   3.108   2.034  10.733  0.4017  0.4496  0.3945
   34POPC   O11 4526   3.050   2.091  10.505  0.0680  0.4302  0.2664
   34POPC    C1 4527   2.980   1.970  10.480 -0.0923  1.1941 -0.0491
   34POPC    HA 4528   2.903   1.951  10.557 -1.9496 -1.2850 -2.3902
   34POPC    HB 4529   3.057   1.889  10.487 -1.7353 -0.3361  0.6380
   34POPC    C2 4530   2.903   1.962  10.338 -0.3214  0.3758  0.3501
   34POPC    HS 4531   2.833   1.879  10.361  0.6699 -0.0793  1.7431
   34POPC   O21 4532   2.996   1.930  10.228  0.0211  0.1701  0.5464
   34POPC   C21 4533   3.047   1.813  10.232  0.1006  0.5857 -0.2769
   34POPC   O22 4534   3.028   1.724  10.316 -0.1913 -0.5396 -0.2989
   34POPC   C22 4535   3.134   1.782  10.111 -1.1211  0.7533 -0.6507
   34POPC   H2R 4536   3.181   1.684  10.134 -1.9130  0.6652  0.6605
   34POPC   H2S 4537   3.207   1.864  10.099 -0.0430 -0.1871 -0.6302
   34POPC    C3 4538   2.823   2.096  10.323 -0.7501  0.5457  0.2356
   34POPC    HX 4539   2.906   2.170  10.324  0.1201 -0.4225  0.0912
   34POPC    HY 4540   2.746   2.115  10.401 -0.6593 -2.0202  0.9942
   34POPC   O31 4541   2.768   2.080  10.190 -0.5673  0.5117  0.0225
   34POPC   C31 4542   2.738   2.201  10.139 -0.4220 -0.0941  0.1937
   34POPC   O32 4543   2.756   2.304  10.200  0.0086 -0.5906 -0.1028
   34POPC   C32 4544   2.700   2.180   9.988 -0.6237 -0.4362 -0.0923
   34POPC   H2X 4545   2.600   2.228   9.981 -1.2559 -1.3638  2.0249
   34POPC   H2Y 4546   2.700   2.071   9.964  2.1510 -0.6912  0.8814
   34POPC   C23 4547   3.055   1.772   9.975  0.1654  0.6412 -0.0636
   34POPC   H3R 4548   2.982   1.856   9.975  0.7651  1.3337  5.5902
   34POPC   H3S 4549   2.987   1.683   9.973  3.8529 -2.2747 -0.5722
   34POPC   C24 4550   3.144   1.780   9.849 -0.4766 -0.0102 -0.2800
   34POPC   H4R 4551   3.235   1.715   9.842  0.9166  1.6138  2.0364
   34POPC   H4S 4552   3.185   1.883   9.844  0.0147 -0.2961 -3.0906
   34POPC   C25 4553   3.071   1.747   9.716 -0.5444  0.1345  0.7510
   34POPC   H5R 4554   2.994   1.825   9.702  0.7734  1.5240  1.1481
   34POPC   H5S 4555   3.016   1.652   9.731 -0.2554 -0.2291 -0.4208
   34POPC   C26 4556   3.165   1.723   9.599 -0.6463 -0.3388  0.0267
   34POPC   H6R 4557   3.102   1.685   9.516 -0.1181 -0.3972 -0.3480
   34POPC   H6S 4558   3.251   1.656   9.622 -1.1370 -0.6426  1.0143
   34POPC   C27 4559   3.230   1.849   9.546 -0.1267  0.8537 -0.5624
   34POPC   H7R 4560   3.324   1.861   9.603  0.2296  0.5857 -1.0834
   34POPC   H7S 4561   3.162   1.935   9.562  2.1573  2.1943  2.4368
   34POPC   C28 4562   3.280   1.830   9.399 -0.5391  0.5779 -0.2145
   34POPC   H8R 4563   3.302   1.722   9.385  0.2441  0.8161 -0.8759
   34POPC   H8S 4564   3.380   1.875   9.383  0.2818  0.5421  4.2287
   34POPC   C29 4565   3.187   1.873   9.295  0.6866  0.2748 -0.2875
   34POPC   H91 4566   3.108   1.801   9.270 -0.1986  1.5172 -1.1308
   34POPC  C210 4567   3.170   1.990   9.231  0.0774  0.0058 -0.4354
   34POPC  H101 4568   3.092   2.007   9.156 -0.3096 -0.5582 -0.1635
   34POPC  C211 4569   3.253   2.112   9.252  0.3014 -0.5413  1.0717
   34POPC  H11R 4570   3.337   2.097   9.323  0.5931 -2.2751  0.3599
   34POPC  H11S 4571   3.196   2.204   9.278  2.2825  0.3935  2.2357
   34POPC  C212 4572   3.309   2.160   9.110  0.4001 -0.0461  0.5120
   34POPC  H12R 4573   3.301   2.271   9.106 -0.1227 -0.1396 -1.7652
   34POPC  H12S 4574   3.250   2.122   9.024 -0.5607  1.0824  0.6638
   34POPC  C213 4575   3.458   2.119   9.081 -0.3957  0.0255  0.1539
   34POPC  H13R 4576   3.481   2.015   9.111  1.8527  0.1196 -1.1729
   34POPC  H13S 4577   3.519   2.173   9.157 -1.3327  0.0598  0.8991
   34POPC  C214 4578   3.510   2.167   8.945 -0.5108 -0.5561 -0.2478
   34POPC  H14R 4579   3.618   2.141   8.935  0.0691  0.7391  2.4105
   34POPC  H14S 4580   3.503   2.277   8.930  0.4738 -0.3016  1.0715
   34POPC  C215 4581   3.452   2.076   8.835 -0.1634  0.0945  0.4284
   34POPC  H15R 4582   3.343   2.094   8.831 -0.0800  0.5575  0.2910
   34POPC  H15S 4583   3.465   1.969   8.862 -0.1427  0.1573  0.6659
   34POPC  C216 4584   3.502   2.100   8.689  0.3901  0.0310  0.7074
   34POPC  H16R 4585   3.453   2.023   8.625 -1.3356  1.8994 -0.2659
   34POPC  H16S 4586   3.610   2.074   8.696  1.2359  3.3807  0.6656
   34POPC  C217 4587   3.494   2.239   8.624 -0.4667  1.0018  0.2169
   34POPC  H17R 4588   3.540   2.229   8.524  1.3539 -1.8270  1.2676
   34POPC  H17S 4589   3.553   2.306   8.690 -0.8765  2.7642 -1.1799
   34POPC  C218 4590   3.350   2.291   8.611  0.0865 -0.3725 -0.7185
   34POPC  H18R 4591   3.293   2.280   8.706 -0.4974  1.6152 -0.8146
   34POPC  H18S 4592   3.284   2.229   8.545 -0.5606  0.0147 -0.4401
   34POPC  H18T 4593   3.361   2.393   8.570  2.5063  0.0423  0.8761
   34POPC   C33 4594   2.797   2.266   9.904 -0.4818  0.4464  0.1670
   34POPC   H3X 4595   2.793   2.374   9.930  1.3543  0.7427 -0.6801
   34POPC   H3Y 4596   2.752   2.255   9.803 -0.9853  1.0947  0.3193
   34POPC   C34 4597   2.945   2.220   9.910 -0.2823 -0.4664 -0.4363
   34POPC   H4X 4598   2.952   2.111   9.890  0.5650 -0.6286  0.6572
   34POPC   H4Y 4599   2.983   2.235  10.014 -1.3860 -2.2645  0.2637
   34POPC   C35 4600   3.042   2.306   9.827 -0.2808 -0.3331  0.1146
   34POPC   H5X 4601   3.052   2.401   9.883  0.1553 -1.2808  1.6588
   34POPC   H5Y 4602   2.986   2.332   9.734  0.7541 -0.4822 -0.5594
   34POPC   C36 4603   3.181   2.246   9.810 -0.1982  0.4669  0.2106
   34POPC   H6X 4604   3.180   2.156   9.745  0.8404  0.6493 -0.0650
   34POPC   H6Y 4605   3.218   2.214   9.910  2.0942 -1.7302 -1.2692
   34POPC   C37 4606   3.270   2.355   9.748 -0.6168 -0.1999 -1.1818
   34POPC   H7X 4607   3.376   2.328   9.769 -0.8161  0.0889  0.2434
   34POPC   H7Y 4608   3.238   2.442   9.809 -0.3003 -1.0413  0.2055
   34POPC   C38 4609   3.253   2.382   9.600 -0.2239 -0.8308  0.0742
   34POPC   H8X 4610   3.150   2.415   9.579  0.2521  0.9854  0.5677
   34POPC   H8Y 4611   3.258   2.282   9.550 -0.8938 -1.1026  0.5524
   34POPC   C39 4612   3.351   2.481   9.546  0.2264 -0.7327  0.0449
   34POPC   H9X 4613   3.449   2.458   9.594 -0.1290  0.1265  1.1862
   34POPC   H9Y 4614   3.324   2.587   9.563  2.0938 -0.1760 -0.3146
   34POPC  C310 4615   3.372   2.447   9.397  0.1008  0.1198 -0.9866
   34POPC  H10X 4616   3.271   2.461   9.352  0.5077 -0.0665 -1.9492
   34POPC  H10Y 4617   3.401   2.340   9.389 -1.9553 -0.5703  0.4154
   34POPC  C311 4618   3.464   2.545   9.324 -0.0053 -0.0597  0.3850
   34POPC  H11X 4619   3.564   2.552   9.370  0.2418  0.5624 -0.2311
   34POPC  H11Y 4620   3.416   2.645   9.336  0.0614  0.2170 -1.5861
   34POPC  C312 4621   3.483   2.505   9.178  0.8256  0.2544 -0.0166
   34POPC  H12X 4622   3.383   2.484   9.135  0.3061 -0.3975  1.4786
   34POPC  H12Y 4623   3.538   2.410   9.163  2.7702  1.5824 -1.5440
   34POPC  C313 4624   3.555   2.609   9.095 -0.8265  0.4153 -0.7376
   34POPC  H13X 4625   3.663   2.617   9.121 -1.4891  3.6371  1.1940
   34POPC  H13Y 4626   3.517   2.707   9.130  2.3632  0.5794  2.6996
   34POPC  C314 4627   3.540   2.582   8.946  0.3918 -0.0557 -0.0714
   34POPC  H14X 4628   3.433   2.605   8.928  0.6276 -0.6637 -2.4731
   34POPC  H14Y 4629   3.553   2.474   8.923 -1.3744 -0.1249 -0.8803
   34POPC  C315 4630   3.638   2.651   8.854 -0.2029  0.7799 -0.1308
   34POPC  H15X 4631   3.739   2.660   8.900  0.7145 -1.2182 -1.6829
   34POPC  H15Y 4632   3.601   2.755   8.846  2.2627  1.8530  1.6351
   34POPC  C316 4633   3.666   2.575   8.723 -0.0934 -0.4790 -0.3665
   34POPC  H16X 4634   3.756   2.618   8.675 -0.2446  0.8367  0.4840
   34POPC  H16Y 4635   3.581   2.579   8.652  0.1180 -0.5696 -0.6273
   34POPC  H16Z 4636   3.667   2.467   8.749  0.5876 -0.7150 -1.3574
   35POPC     N 4637   2.750   0.782  11.051  0.5678  0.7221  0.0478
   35POPC   C12 4638   2.868   0.679  11.023  0.8761  0.3032  0.0605
   35POPC  H12A 4639   2.942   0.694  11.100 -0.7695  2.0823  1.3563
   35POPC  H12B 4640   2.922   0.703  10.932  1.0987  1.5671  0.5196
   35POPC   C13 4641   2.790   0.913  10.991 -0.7980 -0.2315 -0.8538
   35POPC  H13A 4642   2.888   0.948  11.018 -0.8507 -0.8945  0.1846
   35POPC  H13B 4643   2.793   0.906  10.883 -1.9769  1.7198 -1.0482
   35POPC  H13C 4644   2.719   0.992  11.011 -0.5768 -0.3087  0.2190
   35POPC   C14 4645   2.631   0.730  10.980 -0.1278 -0.2896  0.5014
   35POPC  H14A 4646   2.652   0.725  10.874 -1.0012 -0.3407  0.3251
   35POPC  H14B 4647   2.606   0.632  11.017  2.5022 -1.4317 -0.6113
   35POPC  H14C 4648   2.542   0.789  10.996 -1.1003 -2.1020  1.9573
   35POPC   C15 4649   2.718   0.794  11.201 -0.3183 -0.0933  0.2363
   35POPC  H15A 4650   2.625   0.847  11.214 -1.1556 -1.5877  0.5182
   35POPC  H15B 4651   2.801   0.847  11.245 -0.6628  2.7484 -2.3837
   35POPC  H15C 4652   2.711   0.692  11.237  2.4206 -0.2315  0.4586
   35POPC   C11 4653   2.835   0.526  11.020  0.2176  0.4387  0.4025
   35POPC  H11A 4654   2.937   0.486  11.007  0.2150  0.5948 -0.1139
   35POPC  H11B 4655   2.784   0.502  10.925  1.5357 -1.9220  0.2617
   35POPC     P 4656   2.688   0.352  11.140 -0.0953 -0.2970  0.0466
   35POPC   O13 4657   2.574   0.349  11.238  0.6939  0.2758 -0.5387
   35POPC   O14 4658   2.791   0.249  11.152 -0.0021  0.2752  0.7840
   35POPC   O12 4659   2.760   0.491  11.139 -0.2114  0.2111  0.4169
   35POPC   O11 4660   2.623   0.333  10.997 -0.1569 -0.5684  0.1968
   35POPC    C1 4661   2.500   0.374  10.954 -0.4054 -0.1763  0.2724
   35POPC    HA 4662   2.495   0.485  10.944 -1.5001 -0.0730  1.7514
   35POPC    HB 4663   2.431   0.347  11.037  0.1590 -1.9475  0.1703
   35POPC    C2 4664   2.475   0.295  10.822 -0.3355  0.5468  0.2047
   35POPC    HS 4665   2.484   0.189  10.852 -0.5123  0.6831  0.7271
   35POPC   O21 4666   2.568   0.336  10.719  0.1695  0.5839 -0.4221
   35POPC   C21 4667   2.601   0.234  10.641  0.1006  0.2812 -0.0982
   35POPC   O22 4668   2.559   0.122  10.647 -0.2788  0.6291 -0.7605
   35POPC   C22 4669   2.711   0.278  10.546  0.8603  0.2248 -0.4816
   35POPC   H2R 4670   2.798   0.309  10.607  1.1147 -1.5193  0.0494
   35POPC   H2S 4671   2.671   0.363  10.486 -1.6453 -0.3835  0.2524
   35POPC    C3 4672   2.332   0.317  10.776  0.3227 -0.9239  1.1433
   35POPC    HX 4673   2.305   0.425  10.769 -1.3970 -1.4383 -0.9391
   35POPC    HY 4674   2.261   0.271  10.848  0.1932  0.4700  1.9359
   35POPC   O31 4675   2.304   0.283  10.644 -0.5534  0.2818  0.4292
   35POPC   C31 4676   2.267   0.149  10.619 -0.4846  0.5959 -0.5080
   35POPC   O32 4677   2.254   0.067  10.708  0.1584  0.5995 -0.3724
   35POPC   C32 4678   2.256   0.138  10.465 -0.1336  0.4655 -0.4185
   35POPC   H2X 4679   2.347   0.191  10.428  0.4904  1.6587  2.5954
   35POPC   H2Y 4680   2.165   0.189  10.428 -0.1280  0.6471 -0.1817
   35POPC   C23 4681   2.756   0.158  10.450  0.1599 -0.2885 -0.0589
   35POPC   H3R 4682   2.782   0.074  10.518 -1.4915 -0.8319 -0.0740
   35POPC   H3S 4683   2.853   0.188  10.404  0.1447 -1.0744 -0.6200
   35POPC   C24 4684   2.662   0.136  10.325 -0.1151  0.4259  1.0383
   35POPC   H4R 4685   2.625   0.231  10.282 -1.3063  0.4006  1.9724
   35POPC   H4S 4686   2.580   0.070  10.361 -0.1182  0.2109  0.6434
   35POPC   C25 4687   2.741   0.062  10.224 -0.8435  0.6452  0.2451
   35POPC   H5R 4688   2.770  -0.035  10.271 -1.8514  0.2705  0.1088
   35POPC   H5S 4689   2.823   0.129  10.192  0.9457 -1.5794  0.1004
   35POPC   C26 4690   2.671   0.035  10.093  0.2016  0.0234  0.9345
   35POPC   H6R 4691   2.695   0.118  10.024 -0.9632 -0.2809  0.1513
   35POPC   H6S 4692   2.561   0.031  10.106 -0.1097 -0.6874 -1.5805
   35POPC   C27 4693   2.714  -0.096  10.026 -0.2266  0.3719  1.1179
   35POPC   H7R 4694   2.694  -0.178  10.098  0.6014 -0.5587  0.2973
   35POPC   H7S 4695   2.821  -0.077  10.007 -0.0806 -1.6958 -0.3052
   35POPC   C28 4696   2.632  -0.125   9.893  0.4004 -0.2456 -0.4640
   35POPC   H8R 4697   2.530  -0.121   9.937  0.7395 -1.3041  0.4441
   35POPC   H8S 4698   2.666  -0.231   9.885 -3.3419 -1.5977  0.4405
   35POPC   C29 4699   2.665  -0.058   9.762  1.0055 -0.5142 -1.0818
   35POPC   H91 4700   2.773  -0.035   9.756  0.5206  1.7027 -1.4577
   35POPC  C210 4701   2.575  -0.017   9.678  0.1496 -0.2435  0.2332
   35POPC  H101 4702   2.601   0.044   9.590 -0.7868 -0.1080  0.0447
   35POPC  C211 4703   2.428  -0.044   9.689  0.5046 -0.2943 -0.1313
   35POPC  H11R 4704   2.399  -0.134   9.747  0.5653  0.1908  0.6511
   35POPC  H11S 4705   2.389  -0.058   9.586  0.3362 -1.1053  0.0375
   35POPC  C212 4706   2.335   0.069   9.748  0.1142  0.5515 -0.8097
   35POPC  H12R 4707   2.369   0.087   9.852 -3.2048 -2.3832  0.8782
   35POPC  H12S 4708   2.235   0.019   9.747  0.0013  0.7305  0.5665
   35POPC  C213 4709   2.314   0.191   9.661  0.2181  0.4131  0.1261
   35POPC  H13R 4710   2.277   0.154   9.563  0.8513 -0.2552  0.1322
   35POPC  H13S 4711   2.414   0.240   9.656  0.0122  0.9144  0.7790
   35POPC  C214 4712   2.226   0.299   9.715  0.6479 -0.3508 -0.3276
   35POPC  H14R 4713   2.127   0.286   9.666 -0.0963 -0.6419  1.1976
   35POPC  H14S 4714   2.258   0.400   9.683 -1.1560  0.1027 -0.7529
   35POPC  C215 4715   2.224   0.312   9.871 -0.0696  0.6111  0.2581
   35POPC  H15R 4716   2.331   0.317   9.899 -0.0708  4.2001 -0.0731
   35POPC  H15S 4717   2.172   0.221   9.906 -3.2020  1.8018 -1.0311
   35POPC  C216 4718   2.150   0.439   9.912 -0.0396 -0.3819 -0.5699
   35POPC  H16R 4719   2.065   0.445   9.841  0.2266 -3.2789 -1.1775
   35POPC  H16S 4720   2.221   0.524   9.897 -0.0357 -1.0679 -5.1050
   35POPC  C217 4721   2.107   0.422  10.060 -0.4610 -0.2134 -0.1593
   35POPC  H17R 4722   2.190   0.384  10.123  0.1246  1.8473  0.3539
   35POPC  H17S 4723   2.018   0.356  10.065 -1.8928  1.4128 -2.7729
   35POPC  C218 4724   2.060   0.560  10.116  0.1779  0.1567 -0.2678
   35POPC  H18R 4725   2.152   0.623  10.115 -0.3558  0.9414  0.2174
   35POPC  H18S 4726   2.017   0.546  10.217  1.3929  2.3395  0.5981
   35POPC  H18T 4727   1.983   0.591  10.042 -0.6624 -1.9615 -0.2941
   35POPC   C33 4728   2.255  -0.012  10.419  0.4826 -0.1708  0.0112
   35POPC   H3X 4729   2.165  -0.058  10.466  0.6537 -0.9092 -0.3716
   35POPC   H3Y 4730   2.339  -0.074  10.458  0.4432 -0.3337 -0.1604
   35POPC   C34 4731   2.253  -0.019  10.266  0.4615  1.1627  0.8440
   35POPC   H4X 4732   2.264  -0.126  10.234 -1.6102  0.6003  1.9433
   35POPC   H4Y 4733   2.345   0.034  10.234  2.9008 -2.4122  1.5966
   35POPC   C35 4734   2.122   0.033  10.212 -0.8220  0.3928 -0.2350
   35POPC   H5X 4735   2.135   0.143  10.209  0.1126  0.3686  1.9906
   35POPC   H5Y 4736   2.047   0.004  10.288  0.0132 -2.9885 -0.6324
   35POPC   C36 4737   2.092  -0.045  10.077  0.1642 -0.2838 -0.0283
   35POPC   H6X 4738   2.110  -0.152  10.099  3.3617  0.0662 -0.7690
   35POPC   H6Y 4739   2.172  -0.015  10.006 -0.6674  1.5284 -0.2269
   35POPC   C37 4740   1.958  -0.017  10.015 -0.1407  0.2374 -0.6088
   35POPC   H7X 4741   1.948   0.094  10.017 -0.4728  0.2444 -1.9013
   35POPC   H7Y 4742   1.868  -0.055  10.068  0.8560  0.6941  1.4808
   35POPC   C38 4743   1.959  -0.065   9.866 -0.2566 -0.4929  0.6167
   35POPC   H8X 4744   1.968  -0.176   9.859  0.1987 -0.6021  2.7376
   35POPC   H8Y 4745   2.060  -0.052   9.820 -0.9227 -1.3791 -1.1743
   35POPC   C39 4746   1.844  -0.004   9.792  0.4018 -0.7642  0.1934
   35POPC   H9X 4747   1.836   0.106   9.787 -1.4409 -0.9120 -0.2395
   35POPC   H9Y 4748   1.750  -0.032   9.844  0.5057 -1.4920  0.0020
   35POPC  C310 4749   1.836  -0.058   9.641  0.4725  0.2431 -0.0492
   35POPC  H10X 4750   1.736  -0.053   9.593  1.2149  0.6403 -1.5700
   35POPC  H10Y 4751   1.855  -0.168   9.640  2.7093  0.6081  0.0530
   35POPC  C311 4752   1.942   0.003   9.547 -0.6965  0.0973 -0.0364
   35POPC  H11X 4753   2.038  -0.034   9.589 -2.3532 -1.6334  2.4012
   35POPC  H11Y 4754   1.946   0.114   9.545 -2.1090  0.1457 -0.4209
   35POPC  C312 4755   1.945  -0.063   9.402  0.1594  0.0957 -0.5724
   35POPC  H12X 4756   1.847  -0.049   9.352  0.0726 -0.2117 -0.4848
   35POPC  H12Y 4757   1.960  -0.171   9.424 -0.4447 -0.3349 -2.1799
   35POPC  C313 4758   2.067  -0.019   9.317  0.4736 -0.4041  0.1206
   35POPC  H13X 4759   2.153  -0.052   9.379 -0.4837  2.2321  3.0173
   35POPC  H13Y 4760   2.070   0.091   9.304 -2.7157 -0.1170  1.3664
   35POPC  C314 4761   2.064  -0.086   9.178 -0.2650 -0.3851 -0.8314
   35POPC  H14X 4762   2.034  -0.193   9.180  0.3257 -0.5455 -0.1496
   35POPC  H14Y 4763   2.165  -0.073   9.134 -0.2358 -0.4215 -0.7737
   35POPC  C315 4764   1.967  -0.018   9.077 -0.0921  0.5055  0.2492
   35POPC  H15X 4765   1.862  -0.017   9.114  0.5776 -2.9992  2.5678
   35POPC  H15Y 4766   1.974  -0.086   8.989 -2.7177 -0.4325  0.7175
   35POPC  C316 4767   2.004   0.123   9.038 -0.8192  0.2208 -0.0492
   35POPC  H16X 4768   1.928   0.175   8.975 -1.4131 -0.6079 -0.0149
   35POPC  H16Y 4769   2.091   0.123   8.968 -0.5353  2.2477  0.2714
   35POPC  H16Z 4770   2.022   0.187   9.128  1.1220  1.3190 -1.1768
   36POPC     N 4771   1.919   5.219  11.208  0.3750 -0.1892 -0.2369
   36POPC   C12 4772   2.005   5.299  11.114  0.3270  0.3826 -0.6282
   36POPC  H12A 4773   2.012   5.402  11.147 -1.4140  0.8147 -1.5642
   36POPC  H12B 4774   1.951   5.306  11.021  0.1248  2.6655 -0.3661
   36POPC   C13 4775   1.961   5.239  11.348 -0.2418  0.6563  0.3330
   36POPC  H13A 4776   1.955   5.345  11.371  0.9051  1.2460 -1.9172
   36POPC  H13B 4777   1.904   5.174  11.412 -3.1738  0.1110 -2.6754
   36POPC  H13C 4778   2.065   5.213  11.362 -0.1165  0.8367 -0.2360
   36POPC   C14 4779   1.776   5.252  11.200 -0.3461  0.2416 -0.0066
   36POPC  H14A 4780   1.711   5.199  11.268  2.2785 -2.1787  0.6882
   36POPC  H14B 4781   1.755   5.355  11.223 -1.1876 -0.3219  1.8660
   36POPC  H14C 4782   1.751   5.239  11.096  2.8083 -0.4834 -0.7411
   36POPC   C15 4783   1.928   5.068  11.181  0.7069  0.0425 -0.4259
   36POPC  H15A 4784   1.869   5.014  11.254  0.6562  0.7320  0.0445
   36POPC  H15B 4785   2.033   5.045  11.182  0.6708 -0.1081  1.3188
   36POPC  H15C 4786   1.891   5.045  11.082 -2.1079  0.1385  0.5537
   36POPC   C11 4787   2.152   5.256  11.091  0.0759  0.1131  0.2741
   36POPC  H11A 4788   2.212   5.268  11.184 -0.4226  0.4134  0.5575
   36POPC  H11B 4789   2.208   5.333  11.035 -0.4484  2.2597  2.6271
   36POPC     P 4790   2.163   5.096  10.883  0.3024  0.2583 -0.3087
   36POPC   O13 4791   2.124   4.955  10.860 -0.1628  0.1594 -0.2209
   36POPC   O14 4792   2.291   5.136  10.815 -0.0689  0.3171 -1.0332
   36POPC   O12 4793   2.171   5.124  11.044  0.3042 -0.5781  0.2362
   36POPC   O11 4794   2.048   5.195  10.834 -0.6653 -0.4790 -0.4315
   36POPC    C1 4795   1.928   5.153  10.777 -0.2114  0.0143 -0.4911
   36POPC    HA 4796   1.853   5.234  10.790  0.4486  0.8160 -1.6389
   36POPC    HB 4797   1.883   5.062  10.823  3.7089 -2.4703 -1.3126
   36POPC    C2 4798   1.944   5.130  10.629  0.1047  0.2111 -0.2525
   36POPC    HS 4799   1.998   5.034  10.618  0.7309  0.4810  0.4317
   36POPC   O21 4800   2.026   5.236  10.577 -0.7862 -0.3275 -0.8673
   36POPC   C21 4801   2.131   5.208  10.493  0.1856  0.1064  0.4133
   36POPC   O22 4802   2.162   5.094  10.460 -0.2737  0.4824  0.1108
   36POPC   C22 4803   2.204   5.336  10.458  0.2604  0.1260  0.6932
   36POPC   H2R 4804   2.298   5.307  10.407  1.5866  1.5909  2.2641
   36POPC   H2S 4805   2.223   5.385  10.555  0.4153 -0.0721  0.7637
   36POPC    C3 4806   1.801   5.113  10.558 -0.1374  0.5454  0.1329
   36POPC    HX 4807   1.739   5.194  10.601  3.6472  3.7028 -0.1307
   36POPC    HY 4808   1.751   5.020  10.593 -0.2242 -0.2407 -1.9973
   36POPC   O31 4809   1.799   5.122  10.414 -0.3387  0.0463 -0.2216
   36POPC   C31 4810   1.841   5.010  10.350 -0.2076  0.2855 -0.4961
   36POPC   O32 4811   1.890   4.909  10.405 -0.2802  0.0843 -0.2171
   36POPC   C32 4812   1.838   5.027  10.197 -0.8623  0.1897 -0.3988
   36POPC   H2X 4813   1.911   5.105  10.164  0.1903 -0.0893  1.2044
   36POPC   H2Y 4814   1.736   5.066  10.176 -1.1700 -1.1085 -1.3310
   36POPC   C23 4815   2.107   5.427  10.378  0.7839 -0.4402  0.3372
   36POPC   H3R 4816   2.151   5.529  10.381 -1.8971  0.9072 -2.9308
   36POPC   H3S 4817   2.011   5.438  10.433  0.8525 -1.4646  0.6717
   36POPC   C24 4818   2.087   5.384  10.226  0.1208 -0.0659 -0.3941
   36POPC   H4R 4819   2.062   5.276  10.227  0.7599 -0.2288 -1.0580
   36POPC   H4S 4820   2.190   5.383  10.183  0.0563 -2.5996 -0.5939
   36POPC   C25 4821   1.987   5.473  10.146 -0.2199  0.9299  0.6451
   36POPC   H5R 4822   2.005   5.582  10.157 -2.5126  1.2237  1.8075
   36POPC   H5S 4823   1.894   5.442  10.198 -0.0761  2.3264  1.7610
   36POPC   C26 4824   1.997   5.443   9.998  0.4125 -0.6236 -0.4051
   36POPC   H6R 4825   2.091   5.485   9.956  0.8114  0.0687  1.1404
   36POPC   H6S 4826   1.920   5.503   9.945  0.1778 -0.0188  0.5936
   36POPC   C27 4827   1.956   5.292   9.961 -0.2902  0.0918  0.1891
   36POPC   H7R 4828   1.857   5.274  10.007 -1.8314  1.6413 -2.3834
   36POPC   H7S 4829   2.041   5.234  10.003  0.0858  0.6768  0.2402
   36POPC   C28 4830   1.948   5.280   9.811  0.5245  0.6026  0.1990
   36POPC   H8R 4831   1.875   5.353   9.772  1.0895  0.0945 -1.8468
   36POPC   H8S 4832   1.916   5.175   9.790  0.1019  0.8979 -0.6301
   36POPC   C29 4833   2.077   5.304   9.732 -0.4097 -0.0501 -0.2725
   36POPC   H91 4834   2.160   5.314   9.803 -0.9741  4.5480 -0.0762
   36POPC  C210 4835   2.087   5.302   9.599 -0.8133 -0.3406 -0.0022
   36POPC  H101 4836   2.189   5.309   9.559 -1.0598  0.1989 -0.5328
   36POPC  C211 4837   1.977   5.288   9.497  0.7420 -0.2390  0.1400
   36POPC  H11R 4838   1.905   5.373   9.509  0.8972 -0.1394  0.3730
   36POPC  H11S 4839   1.922   5.195   9.525 -0.0246  0.4647  1.0485
   36POPC  C212 4840   2.021   5.258   9.356 -0.4762  0.8692  0.0018
   36POPC  H12R 4841   2.093   5.333   9.316 -0.1260  2.5579  3.6033
   36POPC  H12S 4842   1.929   5.271   9.295 -2.2410 -3.4862  1.5728
   36POPC  C213 4843   2.080   5.118   9.327 -0.2181 -0.2647  0.8203
   36POPC  H13R 4844   1.995   5.048   9.309  0.1560 -0.2058 -1.3452
   36POPC  H13S 4845   2.144   5.077   9.408 -0.0328 -1.7398 -0.0391
   36POPC  C214 4846   2.153   5.115   9.192  0.0901  0.3060  0.3229
   36POPC  H14R 4847   2.251   5.166   9.200  1.7216 -2.7325  0.3546
   36POPC  H14S 4848   2.090   5.164   9.115 -0.5542 -2.0119 -0.6708
   36POPC  C215 4849   2.182   4.964   9.140 -0.3447 -0.6684  0.2547
   36POPC  H15R 4850   2.095   4.899   9.166 -0.1360 -1.7032 -1.5939
   36POPC  H15S 4851   2.267   4.932   9.204 -1.9264 -3.1963  1.1652
   36POPC  C216 4852   2.228   4.976   8.997  0.5518 -0.3642 -0.6344
   36POPC  H16R 4853   2.332   5.014   8.997  1.1041 -1.7276  1.8539
   36POPC  H16S 4854   2.168   5.049   8.940  0.7765  1.0921  0.9485
   36POPC  C217 4855   2.244   4.847   8.914 -0.5917 -0.7203  0.0555
   36POPC  H17R 4856   2.332   4.792   8.953 -1.8225 -3.4245 -0.8619
   36POPC  H17S 4857   2.257   4.875   8.807  1.1239  0.2641  0.5071
   36POPC  C218 4858   2.129   4.747   8.924  0.5401  0.3338 -0.6579
   36POPC  H18R 4859   2.046   4.780   8.859 -0.1859  1.5368  0.8500
   36POPC  H18S 4860   2.095   4.727   9.028 -0.8320  0.2305 -1.1145
   36POPC  H18T 4861   2.174   4.655   8.881  1.5629 -0.0189  1.1325
   36POPC   C33 4862   1.861   4.897  10.120  0.5063 -0.5219 -0.0247
   36POPC   H3X 4863   1.763   4.848  10.102 -0.0619  1.0068 -1.2431
   36POPC   H3Y 4864   1.928   4.822  10.167 -1.3261 -3.6081 -2.1689
   36POPC   C34 4865   1.916   4.913   9.976  0.1992 -0.4470  0.2653
   36POPC   H4X 4866   2.014   4.967   9.974  0.6403 -1.1544  1.6967
   36POPC   H4Y 4867   1.840   4.978   9.928  0.8723 -1.1599 -1.8323
   36POPC   C35 4868   1.935   4.776   9.908  0.6679 -1.1371  0.1022
   36POPC   H5X 4869   1.839   4.720   9.906  1.3561 -2.4123  1.5788
   36POPC   H5Y 4870   2.009   4.706   9.952 -0.8903 -2.3746  0.7804
   36POPC   C36 4871   1.973   4.790   9.758  0.4236  0.4631 -0.0024
   36POPC   H6X 4872   2.076   4.826   9.739 -0.3774  1.0671 -3.5251
   36POPC   H6Y 4873   1.922   4.879   9.715  0.9336  0.5589 -0.4008
   36POPC   C37 4874   1.954   4.659   9.671 -0.2709 -0.2828  0.5011
   36POPC   H7X 4875   1.845   4.639   9.663 -0.8757  2.8588  0.1577
   36POPC   H7Y 4876   2.008   4.575   9.718 -0.4818 -0.1918  0.9163
   36POPC   C38 4877   2.017   4.674   9.528 -0.4998 -0.5176  0.2946
   36POPC   H8X 4878   2.119   4.715   9.543  0.0216 -0.5345 -2.8120
   36POPC   H8Y 4879   1.957   4.751   9.475  0.9858 -1.0703 -2.3083
   36POPC   C39 4880   2.039   4.542   9.449  0.1260 -0.3249  0.0676
   36POPC   H9X 4881   1.942   4.489   9.447  0.2007 -0.4708  0.2804
   36POPC   H9Y 4882   2.106   4.492   9.522  0.3430 -0.6281 -0.3358
   36POPC  C310 4883   2.098   4.552   9.310 -0.2045 -0.0468 -0.8836
   36POPC  H10X 4884   2.198   4.599   9.326  0.1531 -1.6257  1.9060
   36POPC  H10Y 4885   2.030   4.605   9.240  1.1595  1.4703 -1.1097
   36POPC  C311 4886   2.121   4.414   9.250 -1.2599 -0.2440 -0.0234
   36POPC  H11X 4887   2.021   4.364   9.255 -0.9572 -0.9336 -0.7274
   36POPC  H11Y 4888   2.186   4.356   9.318  0.9222  1.5361 -0.5397
   36POPC  C312 4889   2.173   4.417   9.105 -0.2915  0.0617 -0.1877
   36POPC  H12X 4890   2.261   4.485   9.100  0.3505 -0.8711 -2.4258
   36POPC  H12Y 4891   2.105   4.458   9.028  0.8952  1.3516 -0.5737
   36POPC  C313 4892   2.212   4.276   9.055 -0.4096  1.2678 -0.1460
   36POPC  H13X 4893   2.136   4.198   9.079 -0.7275  1.7625  0.4661
   36POPC  H13Y 4894   2.308   4.253   9.106 -0.5025  1.6904  0.2262
   36POPC  C314 4895   2.260   4.264   8.905  0.1617  0.3930 -0.2086
   36POPC  H14X 4896   2.333   4.179   8.902  0.8935  1.0528 -1.3589
   36POPC  H14Y 4897   2.326   4.349   8.877  0.7797 -0.0833 -0.2243
   36POPC  C315 4898   2.152   4.249   8.795  0.1812 -0.3921  0.7491
   36POPC  H15X 4899   2.180   4.266   8.689 -0.1296 -1.0693  0.5516
   36POPC  H15Y 4900   2.076   4.323   8.829 -0.2902 -0.6418  0.2562
   36POPC  C316 4901   2.094   4.106   8.801  0.4995 -0.2610  0.6330
   36POPC  H16X 4902   2.038   4.091   8.706 -0.0124  2.1745  0.5305
   36POPC  H16Y 4903   2.030   4.085   8.889  1.5025  0.3234  1.5124
   36POPC  H16Z 4904   2.180   4.036   8.794  0.8348  0.2934 -1.0376
   37POPC     N 4905   1.371   1.255   6.324 -0.7538 -0.2597 -0.0319
   37POPC   C12 4906   1.262   1.247   6.423  0.3137 -0.7942 -0.7087
   37POPC  H12A 4907   1.175   1.200   6.379 -1.2871 -0.8506  2.4418
   37POPC  H12B 4908   1.231   1.348   6.445 -0.5253 -1.1808 -0.1104
   37POPC   C13 4909   1.388   1.110   6.266 -0.1036  0.6699  0.1222
   37POPC  H13A 4910   1.458   1.120   6.185  1.4865  0.5712  1.4528
   37POPC  H13B 4911   1.426   1.048   6.346 -1.5442  2.3209  2.1573
   37POPC  H13C 4912   1.295   1.075   6.225  0.1607 -0.0225  0.1047
   37POPC   C14 4913   1.321   1.360   6.226 -0.4496  0.8305  0.3710
   37POPC  H14A 4914   1.219   1.347   6.195 -0.4875  1.4652  0.2107
   37POPC  H14B 4915   1.320   1.457   6.275 -0.9273  1.1326 -0.2312
   37POPC  H14C 4916   1.376   1.359   6.133 -1.0891  2.6084 -0.0484
   37POPC   C15 4917   1.501   1.300   6.379  0.2716  0.1933  1.0007
   37POPC  H15A 4918   1.574   1.305   6.300  0.8281 -4.4867  1.0768
   37POPC  H15B 4919   1.544   1.222   6.440 -0.3684 -0.1950  0.9574
   37POPC  H15C 4920   1.504   1.391   6.437 -3.1008  1.1675 -0.2345
   37POPC   C11 4921   1.278   1.191   6.564  0.8477  0.5350 -0.2369
   37POPC  H11A 4922   1.320   1.089   6.555  2.4998  1.0241  1.6632
   37POPC  H11B 4923   1.182   1.160   6.612  0.1912  0.7742 -1.3794
   37POPC     P 4924   1.339   1.334   6.790 -0.2521 -0.3100  0.0724
   37POPC   O13 4925   1.392   1.474   6.792 -0.0436  0.1526 -0.1973
   37POPC   O14 4926   1.415   1.242   6.876 -0.1103  0.0177 -0.0638
   37POPC   O12 4927   1.360   1.277   6.645  0.4261 -0.3092 -0.2710
   37POPC   O11 4928   1.183   1.322   6.819 -0.2054 -0.4887 -0.0399
   37POPC    C1 4929   1.087   1.418   6.766 -0.1302 -0.5339  0.1255
   37POPC    HA 4930   0.983   1.380   6.763 -0.4189  0.0562  1.7786
   37POPC    HB 4931   1.117   1.441   6.662  0.1087 -0.5510  0.1887
   37POPC    C2 4932   1.082   1.554   6.847  0.0703  0.2962 -0.0730
   37POPC    HS 4933   1.182   1.602   6.857 -0.8112  1.5610  3.2022
   37POPC   O21 4934   1.028   1.515   6.979  0.0418  0.2858 -0.7707
   37POPC   C21 4935   1.100   1.553   7.085  0.1037  0.4442  0.5746
   37POPC   O22 4936   1.196   1.629   7.085 -0.6047  0.2979 -0.0349
   37POPC   C22 4937   1.053   1.481   7.210  0.3232 -0.0113 -0.9819
   37POPC   H2R 4938   1.147   1.445   7.258 -2.5388  0.2718  5.3004
   37POPC   H2S 4939   0.985   1.394   7.196 -1.3084  0.9972  0.4307
   37POPC    C3 4940   0.977   1.654   6.796  0.4705 -0.4419  0.6798
   37POPC    HX 4941   0.880   1.599   6.796  0.4255 -0.3664  0.9340
   37POPC    HY 4942   0.989   1.700   6.696 -0.1165  1.0915  1.2900
   37POPC   O31 4943   0.952   1.759   6.897 -0.1266 -0.8210  0.0578
   37POPC   C31 4944   1.051   1.847   6.903  0.2041 -0.6268  0.1757
   37POPC   O32 4945   1.148   1.851   6.831  0.2558  0.2706  0.7654
   37POPC   C32 4946   1.017   1.960   7.000  0.0406  0.3277  0.2272
   37POPC   H2X 4947   0.963   1.923   7.090 -1.0656  0.8407 -0.2243
   37POPC   H2Y 4948   0.936   2.021   6.955  0.5866  1.3151  0.5463
   37POPC   C23 4949   0.984   1.573   7.319  0.3605 -0.1733 -0.0941
   37POPC   H3R 4950   0.952   1.523   7.412 -0.2279 -2.7338 -1.6281
   37POPC   H3S 4951   0.892   1.615   7.272  0.9030  0.1898 -0.8457
   37POPC   C24 4952   1.076   1.682   7.370 -0.6374 -0.2601 -0.1703
   37POPC   H4R 4953   1.021   1.749   7.438  0.3593  0.3015  0.0933
   37POPC   H4S 4954   1.116   1.729   7.278 -1.3644  0.5663 -0.0623
   37POPC   C25 4955   1.193   1.620   7.454  0.1241  0.1353  1.2973
   37POPC   H5R 4956   1.282   1.610   7.389 -1.0479  0.1407 -0.3227
   37POPC   H5S 4957   1.172   1.515   7.483  0.6521 -0.2826  0.1784
   37POPC   C26 4958   1.223   1.718   7.570  0.8462  0.7500 -0.2637
   37POPC   H6R 4959   1.135   1.728   7.637  0.0515  0.5016 -1.2627
   37POPC   H6S 4960   1.239   1.819   7.527 -2.3369  0.8106 -1.4309
   37POPC   C27 4961   1.333   1.674   7.672 -0.3079 -0.4436  0.1406
   37POPC   H7R 4962   1.429   1.678   7.615 -1.0644 -0.3702 -1.1412
   37POPC   H7S 4963   1.314   1.568   7.697 -0.3716 -1.0686 -2.4059
   37POPC   C28 4964   1.322   1.767   7.798  0.5586 -0.6954  0.2816
   37POPC   H8R 4965   1.221   1.763   7.845  0.6753  0.1049  0.6123
   37POPC   H8S 4966   1.342   1.870   7.762  0.3485 -0.2725  1.3622
   37POPC   C29 4967   1.435   1.726   7.894 -0.2290  0.2156 -0.8623
   37POPC   H91 4968   1.527   1.785   7.879 -0.2275  0.1318 -1.1985
   37POPC  C210 4969   1.421   1.657   8.006  0.2943 -0.5403 -0.4498
   37POPC  H101 4970   1.511   1.641   8.068  0.2373 -0.4096 -0.3327
   37POPC  C211 4971   1.295   1.600   8.057 -0.2987  0.2751  0.2324
   37POPC  H11R 4972   1.298   1.491   8.035  0.9146  0.2354  0.5531
   37POPC  H11S 4973   1.205   1.653   8.018  0.7160  0.8335 -1.4072
   37POPC  C212 4974   1.292   1.598   8.213 -0.0861 -0.2967  0.2407
   37POPC  H12R 4975   1.312   1.702   8.248 -0.2302 -0.3319  0.4255
   37POPC  H12S 4976   1.383   1.542   8.245  0.5615  0.8507  0.4663
   37POPC  C213 4977   1.159   1.538   8.270 -0.1256 -0.3477  0.2345
   37POPC  H13R 4978   1.134   1.454   8.203  1.3157 -0.6914  0.1154
   37POPC  H13S 4979   1.087   1.622   8.261 -2.3231 -2.0001  1.6347
   37POPC  C214 4980   1.167   1.511   8.416 -0.0725  0.4703 -0.5409
   37POPC  H14R 4981   1.275   1.499   8.437 -0.2473 -0.5307 -0.2021
   37POPC  H14S 4982   1.117   1.412   8.424  2.1296 -1.1745 -5.4894
   37POPC  C215 4983   1.089   1.607   8.509  0.0005 -0.7246 -0.3715
   37POPC  H15R 4984   0.982   1.604   8.482 -0.0598  0.4457 -0.2879
   37POPC  H15S 4985   1.142   1.704   8.493  0.0901 -0.3525  2.0853
   37POPC  C216 4986   1.113   1.574   8.659 -0.0812 -0.3513 -0.5674
   37POPC  H16R 4987   1.224   1.582   8.666 -0.1144 -1.8850  2.3504
   37POPC  H16S 4988   1.092   1.465   8.668 -1.0336 -0.4767 -3.7223
   37POPC  C217 4989   1.032   1.660   8.758 -0.2228  0.2430 -0.6503
   37POPC  H17R 4990   1.062   1.628   8.860 -0.2183 -1.1442 -1.0730
   37POPC  H17S 4991   0.924   1.638   8.745 -0.8045  2.6805 -0.2159
   37POPC  C218 4992   1.049   1.813   8.736 -0.7246  0.4416 -0.3023
   37POPC  H18R 4993   1.157   1.819   8.711 -0.1460 -2.0928  1.3824
   37POPC  H18S 4994   1.024   1.878   8.822  0.6805 -0.4346  0.7748
   37POPC  H18T 4995   0.985   1.847   8.651 -1.6128  0.8701  0.5281
   37POPC   C33 4996   1.140   2.041   7.040  0.4210  0.4100 -0.7727
   37POPC   H3X 4997   1.158   2.099   6.947  0.9649 -0.6678 -1.3548
   37POPC   H3Y 4998   1.228   1.980   7.069 -0.5587 -0.0927  1.2466
   37POPC   C34 4999   1.111   2.144   7.153 -0.4923 -0.2695 -0.1202
   37POPC   H4X 5000   1.004   2.170   7.137 -0.2332  1.2853  0.5274
   37POPC   H4Y 5001   1.178   2.232   7.161 -0.4965 -0.2650 -0.1362
   37POPC   C35 5002   1.131   2.081   7.289  0.3315 -0.1408  0.8653
   37POPC   H5X 5003   1.233   2.040   7.301 -0.0704 -1.0269  1.2584
   37POPC   H5Y 5004   1.063   1.995   7.303  1.1256 -0.6113  1.8446
   37POPC   C36 5005   1.105   2.182   7.400  0.3436 -0.2227  0.1789
   37POPC   H6X 5006   1.001   2.220   7.395  0.5423  0.2046 -0.8296
   37POPC   H6Y 5007   1.184   2.259   7.391  0.5487 -0.3687  0.7504
   37POPC   C37 5008   1.122   2.109   7.537  0.1747  0.4930 -0.4226
   37POPC   H7X 5009   1.227   2.081   7.560  1.5848  4.7439 -1.2262
   37POPC   H7Y 5010   1.067   2.015   7.514 -2.7498  1.7654  1.2066
   37POPC   C38 5011   1.069   2.185   7.657 -0.1931 -0.4192 -0.5155
   37POPC   H8X 5012   0.958   2.177   7.664 -0.1468 -0.0732  0.7371
   37POPC   H8Y 5013   1.109   2.288   7.664  0.1102 -0.5499 -0.3129
   37POPC   C39 5014   1.113   2.116   7.786  1.3405 -0.2815  0.7604
   37POPC   H9X 5015   1.224   2.109   7.778  1.3062  0.7345 -0.8942
   37POPC   H9Y 5016   1.070   2.014   7.798  0.7997  0.1203  2.3775
   37POPC  C310 5017   1.072   2.195   7.909  0.6180 -0.2389 -0.4350
   37POPC  H10X 5018   0.963   2.183   7.926  0.3805 -0.0662 -1.7638
   37POPC  H10Y 5019   1.095   2.303   7.898 -0.6979  0.1887  0.8545
   37POPC  C311 5020   1.159   2.146   8.025  0.2688 -0.4330 -0.1934
   37POPC  H11X 5021   1.265   2.123   7.998  0.0952 -0.4254 -0.8940
   37POPC  H11Y 5022   1.108   2.056   8.065  0.8889 -0.1963  1.1715
   37POPC  C312 5023   1.163   2.259   8.131  0.9127 -0.0191  0.4261
   37POPC  H12X 5024   1.059   2.268   8.170  1.7654  0.6380  2.5976
   37POPC  H12Y 5025   1.177   2.356   8.079 -1.4126 -0.2200 -0.6254
   37POPC  C313 5026   1.258   2.233   8.246 -0.9338  0.2342  0.3484
   37POPC  H13X 5027   1.270   2.328   8.301  1.9761  0.4764 -0.6358
   37POPC  H13Y 5028   1.349   2.204   8.190 -0.5058  1.8588  0.1687
   37POPC  C314 5029   1.217   2.117   8.336  0.7377 -0.6609  0.7336
   37POPC  H14X 5030   1.192   2.030   8.271 -3.1869  0.4823  0.5266
   37POPC  H14Y 5031   1.132   2.142   8.403 -0.0896 -2.9984  0.5790
   37POPC  C315 5032   1.335   2.063   8.420  0.4918 -0.3511  0.4412
   37POPC  H15X 5033   1.369   2.138   8.495 -1.1352 -0.4861  1.3259
   37POPC  H15Y 5034   1.415   2.035   8.349 -0.9076 -0.2673 -1.2165
   37POPC  C316 5035   1.311   1.939   8.508 -0.0666 -0.0241 -0.1059
   37POPC  H16X 5036   1.225   1.959   8.576  1.0572  1.3494  0.9686
   37POPC  H16Y 5037   1.401   1.910   8.567  2.0074  0.0195 -3.1270
   37POPC  H16Z 5038   1.291   1.851   8.445  0.1692  1.3848 -2.1977
   38POPC     N 5039   1.950   4.703   6.359  0.0531  0.4809  0.1722
   38POPC   C12 5040   2.076   4.765   6.301 -0.2941 -0.6572  0.2009
   38POPC  H12A 5041   2.128   4.691   6.241 -2.9269 -0.1161 -2.8546
   38POPC  H12B 5042   2.142   4.794   6.382 -0.3729  0.6648 -0.1920
   38POPC   C13 5043   1.850   4.653   6.260 -0.0534  0.6198 -0.4845
   38POPC  H13A 5044   1.829   4.738   6.197 -0.4144  0.6458 -0.3306
   38POPC  H13B 5045   1.901   4.579   6.201  0.3120  1.8939 -1.8065
   38POPC  H13C 5046   1.765   4.603   6.304  1.0808  0.0910  1.1341
   38POPC   C14 5047   1.991   4.590   6.446 -0.6472  0.7196  0.0565
   38POPC  H14A 5048   2.025   4.507   6.387 -0.3669  0.3490  0.7383
   38POPC  H14B 5049   2.064   4.618   6.520  0.5831  1.0295 -1.2382
   38POPC  H14C 5050   1.910   4.555   6.508  0.0806 -0.3755  0.3998
   38POPC   C15 5051   1.886   4.806   6.454 -0.3967  0.0431 -0.3013
   38POPC  H15A 5052   1.861   4.897   6.401  0.1965  0.2780 -0.1893
   38POPC  H15B 5053   1.965   4.835   6.522 -2.2802  1.0907  1.5181
   38POPC  H15C 5054   1.807   4.765   6.515  1.3005 -0.9737  1.2928
   38POPC   C11 5055   2.043   4.881   6.210 -0.1402  0.6963 -0.2906
   38POPC  H11A 5056   1.958   4.945   6.245  0.0217  0.2638  0.9029
   38POPC  H11B 5057   2.000   4.830   6.122 -3.1472 -0.4512  1.7506
   38POPC     P 5058   2.186   5.085   6.289 -0.0023  0.0365  0.0880
   38POPC   O13 5059   2.059   5.152   6.334 -0.6263  0.3535 -0.0257
   38POPC   O14 5060   2.281   5.185   6.228  0.2284 -0.2322 -0.1274
   38POPC   O12 5061   2.160   4.963   6.179  0.4397  0.0922  0.3576
   38POPC   O11 5062   2.244   5.012   6.416 -0.0023  0.3293  0.3047
   38POPC    C1 5063   2.359   4.932   6.402  0.9262 -0.3788 -0.3551
   38POPC    HA 5064   2.447   4.996   6.379 -0.1087  0.3957 -2.1562
   38POPC    HB 5065   2.349   4.860   6.318 -1.6334 -0.2132 -0.2353
   38POPC    C2 5066   2.386   4.863   6.539  0.1816 -0.1965 -0.0421
   38POPC    HS 5067   2.339   4.764   6.524 -1.3351  0.7442 -1.6214
   38POPC   O21 5068   2.322   4.934   6.656 -0.1055 -0.0628 -0.3059
   38POPC   C21 5069   2.196   4.898   6.681  0.5344 -0.1775 -0.3450
   38POPC   O22 5070   2.138   4.797   6.637 -0.0999 -0.4524 -0.0822
   38POPC   C22 5071   2.125   5.002   6.778  0.2109 -0.1166  0.5516
   38POPC   H2R 5072   2.042   5.045   6.718 -0.5830  0.3605  1.9852
   38POPC   H2S 5073   2.208   5.073   6.794  1.1946 -1.1384  0.0805
   38POPC    C3 5074   2.539   4.839   6.581  0.5917 -0.6249 -0.6018
   38POPC    HX 5075   2.563   4.939   6.623 -0.6332 -0.8552  0.6937
   38POPC    HY 5076   2.600   4.819   6.490  0.0424  1.4915 -1.4586
   38POPC   O31 5077   2.563   4.738   6.684  0.6570  0.0916  0.9893
   38POPC   C31 5078   2.549   4.612   6.658  0.5579  0.3420  0.3094
   38POPC   O32 5079   2.495   4.566   6.558 -0.2105 -0.0387  0.4440
   38POPC   C32 5080   2.607   4.526   6.769 -0.0674 -0.6654 -0.4795
   38POPC   H2X 5081   2.610   4.419   6.742  0.2450 -0.2679 -2.0578
   38POPC   H2Y 5082   2.540   4.526   6.858 -1.2421  0.6631 -1.3374
   38POPC   C23 5083   2.078   4.951   6.915 -0.2032  0.2387 -0.4790
   38POPC   H3R 5084   2.020   4.859   6.894  1.9571 -1.8946  2.3699
   38POPC   H3S 5085   2.019   5.031   6.965 -1.2128 -0.5098 -0.4676
   38POPC   C24 5086   2.189   4.900   7.009 -0.1926  0.4082 -0.5364
   38POPC   H4R 5087   2.264   4.840   6.954 -0.8955 -2.7418  1.7926
   38POPC   H4S 5088   2.151   4.841   7.095  0.1584  1.5417  0.4191
   38POPC   C25 5089   2.268   5.018   7.079 -0.3094 -0.0789  0.5651
   38POPC   H5R 5090   2.204   5.084   7.142 -0.1593  0.8161 -0.2063
   38POPC   H5S 5091   2.300   5.085   6.996 -0.7923 -0.2550  0.2380
   38POPC   C26 5092   2.391   4.970   7.160  0.5825  0.0784  0.6775
   38POPC   H6R 5093   2.344   4.890   7.221  0.0063 -0.2994 -0.2451
   38POPC   H6S 5094   2.436   5.047   7.226 -1.3021  0.3194  1.7071
   38POPC   C27 5095   2.496   4.911   7.070 -0.8221 -0.4278  0.3704
   38POPC   H7R 5096   2.551   4.995   7.022 -0.3805 -2.0138 -1.9985
   38POPC   H7S 5097   2.460   4.849   6.986  1.8717  2.1656 -2.8490
   38POPC   C28 5098   2.601   4.833   7.155 -0.3547 -0.6261 -0.3129
   38POPC   H8R 5099   2.630   4.894   7.243 -0.0617  1.0479 -1.5645
   38POPC   H8S 5100   2.683   4.817   7.081 -0.5337 -0.1254 -0.6162
   38POPC   C29 5101   2.543   4.698   7.202  0.2671  0.6005 -0.3966
   38POPC   H91 5102   2.524   4.622   7.126  0.5293 -0.7068  0.8282
   38POPC  C210 5103   2.532   4.664   7.331  1.1080  0.0924 -0.3942
   38POPC  H101 5104   2.501   4.561   7.352  1.7837  0.0806  0.5654
   38POPC  C211 5105   2.561   4.744   7.457 -0.1575  0.5730 -0.3791
   38POPC  H11R 5106   2.466   4.778   7.504 -0.4166  1.5141 -1.5735
   38POPC  H11S 5107   2.616   4.839   7.444 -0.0272  0.5358 -0.1148
   38POPC  C212 5108   2.634   4.656   7.563  0.1581 -0.6881 -0.8503
   38POPC  H12R 5109   2.731   4.632   7.516  0.3978 -1.1853 -0.1085
   38POPC  H12S 5110   2.578   4.562   7.584 -0.7721  0.0003 -0.1832
   38POPC  C213 5111   2.654   4.728   7.691 -0.0835 -0.1091  0.8208
   38POPC  H13R 5112   2.573   4.785   7.741 -0.0440  0.6539  0.0398
   38POPC  H13S 5113   2.731   4.807   7.675 -1.3440  1.0692  0.4967
   38POPC  C214 5114   2.719   4.632   7.793  0.4245  0.0712 -0.1823
   38POPC  H14R 5115   2.795   4.569   7.742  0.6026  0.3976 -0.3230
   38POPC  H14S 5116   2.641   4.558   7.818  1.6076 -1.5465 -1.1493
   38POPC  C215 5117   2.778   4.711   7.908 -0.4085  0.3311 -0.0331
   38POPC  H15R 5118   2.698   4.754   7.973  2.3681  0.4968  3.4024
   38POPC  H15S 5119   2.835   4.800   7.874  2.0351 -0.6374  1.3758
   38POPC  C216 5120   2.862   4.616   7.993 -1.0097  0.5897 -0.4763
   38POPC  H16R 5121   2.935   4.556   7.934 -1.2332 -0.7708  0.6121
   38POPC  H16S 5122   2.796   4.536   8.031  0.1803  0.8612  2.2240
   38POPC  C217 5123   2.937   4.669   8.115  0.0016 -0.1270  0.4003
   38POPC  H17R 5124   2.971   4.582   8.175 -0.1993  0.3052  1.1428
   38POPC  H17S 5125   2.875   4.725   8.188  0.3585  2.3670 -1.1430
   38POPC  C218 5126   3.049   4.761   8.071  0.3044  0.4675 -0.0196
   38POPC  H18R 5127   2.998   4.845   8.017 -2.5089 -0.9987  0.2659
   38POPC  H18S 5128   3.130   4.719   8.008  0.5985 -1.2216  1.4558
   38POPC  H18T 5129   3.103   4.806   8.156  0.8457  1.7134 -0.9956
   38POPC   C33 5130   2.750   4.578   6.804 -0.1617 -0.7358  0.0372
   38POPC   H3X 5131   2.739   4.683   6.840  0.6429 -0.5642 -0.1898
   38POPC   H3Y 5132   2.827   4.582   6.723 -0.4663  0.9050 -0.1869
   38POPC   C34 5133   2.795   4.496   6.920 -0.0104 -0.1535 -0.0571
   38POPC   H4X 5134   2.788   4.387   6.897 -3.9125 -0.0934  0.5955
   38POPC   H4Y 5135   2.725   4.515   7.004  1.6510  1.9606  0.9017
   38POPC   C35 5136   2.933   4.535   6.979  0.3800 -0.2150 -0.1198
   38POPC   H5X 5137   2.929   4.644   6.998  1.1304 -0.1164 -0.4907
   38POPC   H5Y 5138   2.998   4.515   6.891 -0.4938  2.0382 -1.3102
   38POPC   C36 5139   2.975   4.471   7.113  0.8528  0.2826 -0.8905
   38POPC   H6X 5140   3.030   4.378   7.090 -0.4442 -0.8465  0.5110
   38POPC   H6Y 5141   2.879   4.448   7.164 -0.0337  1.3394 -2.0646
   38POPC   C37 5142   3.052   4.547   7.224  0.4812 -0.4921  0.3253
   38POPC   H7X 5143   3.145   4.592   7.183  0.6822 -2.4469 -1.4362
   38POPC   H7Y 5144   3.071   4.471   7.303  0.8140 -1.2241 -0.4601
   38POPC   C38 5145   2.966   4.659   7.283 -0.0365  0.1895  0.7023
   38POPC   H8X 5146   2.878   4.620   7.338 -0.6277 -0.1015 -0.4327
   38POPC   H8Y 5147   2.931   4.726   7.201  1.8952 -0.7746 -0.9352
   38POPC   C39 5148   3.052   4.733   7.395 -0.0988  0.2963 -0.1515
   38POPC   H9X 5149   3.148   4.764   7.349 -0.5503  0.0235 -1.3065
   38POPC   H9Y 5150   3.076   4.651   7.465  0.7325  0.5489 -0.1382
   38POPC  C310 5151   2.974   4.848   7.458 -0.6691  0.1744  0.2134
   38POPC  H10X 5152   2.883   4.813   7.512 -0.3778  0.2650  0.7638
   38POPC  H10Y 5153   2.939   4.920   7.381  0.7300 -0.0609 -0.6635
   38POPC  C311 5154   3.063   4.942   7.547 -0.0971 -0.0268  0.2512
   38POPC  H11X 5155   3.000   5.029   7.577 -0.2661  0.0672 -0.3817
   38POPC  H11Y 5156   3.155   4.974   7.494 -0.2510  0.3515  0.2150
   38POPC  C312 5157   3.106   4.860   7.671  0.6138  0.7618 -0.2069
   38POPC  H12X 5158   3.151   4.761   7.650 -0.7281  0.2589 -0.7560
   38POPC  H12Y 5159   3.018   4.832   7.731  0.3188  1.4943 -0.2816
   38POPC  C313 5160   3.219   4.937   7.753 -0.4828 -0.6407 -0.1905
   38POPC  H13X 5161   3.308   4.950   7.689 -0.0559  1.5262  0.7844
   38POPC  H13Y 5162   3.247   4.854   7.822  1.0406 -1.4367 -1.7360
   38POPC  C314 5163   3.173   5.064   7.825  0.1800  0.2079 -0.6147
   38POPC  H14X 5164   3.079   5.042   7.880  1.0162  0.1253  0.8075
   38POPC  H14Y 5165   3.148   5.144   7.752 -0.2429 -0.0212 -0.7223
   38POPC  C315 5166   3.256   5.117   7.941  0.1793 -0.0425 -0.9423
   38POPC  H15X 5167   3.200   5.208   7.972 -3.7616 -2.6709  0.1133
   38POPC  H15Y 5168   3.356   5.130   7.895  1.0465 -0.6881  0.7320
   38POPC  C316 5169   3.284   5.022   8.053 -0.9497 -0.3331 -0.0066
   38POPC  H16X 5170   3.200   5.006   8.125  0.2611 -0.4267  1.4222
   38POPC  H16Y 5171   3.369   5.054   8.117 -0.9664 -0.9956  0.3661
   38POPC  H16Z 5172   3.312   4.924   8.009  0.7560 -0.3759  1.1345
   39POPC     N 5173   6.297   1.523   5.988 -0.4026  0.7197  0.8982
   39POPC   C12 5174   6.369   1.650   5.958  0.1829 -1.0217  0.5340
   39POPC  H12A 5175   6.292   1.718   5.926  1.1941 -1.1386 -2.3082
   39POPC  H12B 5176   6.436   1.638   5.875  0.0531 -1.4877  0.4942
   39POPC   C13 5177   6.387   1.413   6.029 -0.3536  1.0131 -0.3794
   39POPC  H13A 5178   6.423   1.354   5.946  0.3286 -1.1818  1.4236
   39POPC  H13B 5179   6.470   1.440   6.092 -0.9288  0.5425  0.5862
   39POPC  H13C 5180   6.336   1.332   6.079 -0.5318  0.8019 -0.8931
   39POPC   C14 5181   6.197   1.546   6.093 -0.2350  0.4928 -0.5213
   39POPC  H14A 5182   6.237   1.608   6.171 -0.2726 -0.1669  0.0263
   39POPC  H14B 5183   6.109   1.601   6.062 -1.3865 -0.6702  0.6018
   39POPC  H14C 5184   6.159   1.452   6.131  1.2296 -0.8367 -2.2820
   39POPC   C15 5185   6.223   1.458   5.867 -0.2016  0.1731  0.7080
   39POPC  H15A 5186   6.172   1.369   5.899 -1.4442  0.3516 -0.7474
   39POPC  H15B 5187   6.294   1.433   5.789 -2.0488 -0.8998 -0.6493
   39POPC  H15C 5188   6.148   1.528   5.834 -0.6449 -0.8231 -0.4223
   39POPC   C11 5189   6.454   1.724   6.070 -0.4853 -0.2607 -0.7513
   39POPC  H11A 5190   6.509   1.817   6.041 -3.0197  1.4007 -0.3780
   39POPC  H11B 5191   6.525   1.654   6.119 -0.5753 -0.7028 -1.2446
   39POPC     P 5192   6.293   1.893   6.200  0.2558  0.0097 -0.1955
   39POPC   O13 5193   6.166   1.871   6.269 -0.6706 -0.1174  0.3598
   39POPC   O14 5194   6.293   1.967   6.071  0.2701 -0.1233 -0.4268
   39POPC   O12 5195   6.365   1.753   6.181  1.0019  0.1671  0.5989
   39POPC   O11 5196   6.395   1.958   6.295  0.1971 -0.2838 -0.3882
   39POPC    C1 5197   6.479   1.897   6.401  0.2130 -0.0600  0.0381
   39POPC    HA 5198   6.526   1.978   6.461 -1.0124 -0.0075  0.9466
   39POPC    HB 5199   6.569   1.858   6.349 -0.0627 -0.7786  0.0854
   39POPC    C2 5200   6.405   1.796   6.492  0.1168  0.8224  0.1164
   39POPC    HS 5201   6.363   1.721   6.421  0.2156  0.6927  0.1962
   39POPC   O21 5202   6.296   1.868   6.558 -0.0903  0.0990  0.2353
   39POPC   C21 5203   6.189   1.796   6.584  0.1969  0.7985 -0.1548
   39POPC   O22 5204   6.190   1.675   6.578 -0.0073 -0.0511  0.4932
   39POPC   C22 5205   6.074   1.878   6.632  0.2144  0.1318  0.7971
   39POPC   H2R 5206   5.988   1.809   6.643 -0.6411  1.2560  1.3282
   39POPC   H2S 5207   6.061   1.958   6.556  1.1441  0.0199  0.5141
   39POPC    C3 5208   6.490   1.712   6.593  0.1702 -0.2552 -0.3633
   39POPC    HX 5209   6.570   1.652   6.545 -0.5197 -1.2634 -0.2627
   39POPC    HY 5210   6.427   1.632   6.639 -0.4461  0.6679  0.4172
   39POPC   O31 5211   6.547   1.806   6.687 -0.2059 -0.3965  0.4994
   39POPC   C31 5212   6.482   1.803   6.813 -0.9396 -0.2536  0.1243
   39POPC   O32 5213   6.391   1.726   6.838  0.3597 -0.7324  0.2603
   39POPC   C32 5214   6.550   1.896   6.907 -0.4876  0.0238  0.2295
   39POPC   H2X 5215   6.652   1.856   6.923  1.5591  3.8214 -2.6895
   39POPC   H2Y 5216   6.545   2.003   6.880 -0.9305 -0.0214  0.1178
   39POPC   C23 5217   6.103   1.943   6.768  0.0326  0.5155 -0.3301
   39POPC   H3R 5218   6.156   2.040   6.755 -1.1737  0.9948 -1.7361
   39POPC   H3S 5219   6.171   1.875   6.825  2.6977  1.6896 -2.0164
   39POPC   C24 5220   5.979   1.985   6.857 -0.2171 -0.5753 -0.1612
   39POPC   H4R 5221   5.929   1.888   6.879  1.0322 -0.9950  0.8882
   39POPC   H4S 5222   5.911   2.046   6.794  0.7782  0.5468 -0.1567
   39POPC   C25 5223   6.024   2.068   6.976 -0.1214 -0.9815  0.0939
   39POPC   H5R 5224   6.078   1.995   7.040  1.3898  1.4664  1.7139
   39POPC   H5S 5225   5.927   2.079   7.029 -0.5659 -1.8786 -0.5237
   39POPC   C26 5226   6.097   2.199   6.956 -0.5568  0.9266 -0.4484
   39POPC   H6R 5227   6.047   2.250   6.871 -0.5036 -1.5522 -2.0156
   39POPC   H6S 5228   6.201   2.178   6.923  0.1149  1.0065  1.5625
   39POPC   C27 5229   6.087   2.278   7.085  0.1157 -0.7405 -0.6084
   39POPC   H7R 5230   6.117   2.206   7.164  1.3986 -0.8122 -1.1569
   39POPC   H7S 5231   5.978   2.299   7.096  0.5941  1.0843  0.8724
   39POPC   C28 5232   6.170   2.411   7.084  0.1804 -0.6357 -0.1554
   39POPC   H8R 5233   6.145   2.457   6.985 -0.6031 -0.6246  0.0454
   39POPC   H8S 5234   6.277   2.382   7.073 -0.3460 -1.9146 -2.3172
   39POPC   C29 5235   6.153   2.498   7.202  0.5611 -0.2595  0.1970
   39POPC   H91 5236   6.051   2.504   7.244  0.5894 -3.8766  0.8963
   39POPC  C210 5237   6.252   2.559   7.266  0.0880 -0.6945  0.6146
   39POPC  H101 5238   6.235   2.617   7.358  0.2320  0.4424 -0.0695
   39POPC  C211 5239   6.402   2.547   7.225  0.3793 -0.6719  0.0771
   39POPC  H11R 5240   6.437   2.651   7.242 -0.8152 -0.3999  0.9759
   39POPC  H11S 5241   6.416   2.537   7.115 -2.0487  1.1601 -0.4601
   39POPC  C212 5242   6.469   2.441   7.309  0.0560  0.3487 -0.3697
   39POPC  H12R 5243   6.572   2.430   7.269  0.4448  3.0804 -0.2136
   39POPC  H12S 5244   6.419   2.344   7.288  2.2838 -1.1976  1.3383
   39POPC  C213 5245   6.470   2.477   7.461 -0.5650  0.2915  0.3437
   39POPC  H13R 5246   6.367   2.508   7.488 -1.3754  0.1558 -2.3739
   39POPC  H13S 5247   6.537   2.565   7.459 -0.7627  0.4558  1.0290
   39POPC  C214 5248   6.532   2.375   7.558 -0.0382  0.2547  0.3217
   39POPC  H14R 5249   6.622   2.336   7.506 -0.4487 -1.3555  0.7815
   39POPC  H14S 5250   6.471   2.283   7.571  0.5244  0.1054  2.0949
   39POPC  C215 5251   6.567   2.424   7.702  0.5115 -0.1305 -0.0188
   39POPC  H15R 5252   6.654   2.493   7.695  1.6305 -1.4732  0.2363
   39POPC  H15S 5253   6.601   2.340   7.767  0.3897 -1.0949 -1.1938
   39POPC  C216 5254   6.456   2.503   7.773 -0.7061 -0.1450 -0.4958
   39POPC  H16R 5255   6.430   2.593   7.714 -1.7426  0.6136  1.1057
   39POPC  H16S 5256   6.489   2.544   7.871  1.0864 -1.2909 -0.5937
   39POPC  C217 5257   6.324   2.432   7.789 -0.0822 -0.6567  0.2791
   39POPC  H17R 5258   6.359   2.340   7.841 -1.2483 -0.9177  0.6207
   39POPC  H17S 5259   6.290   2.416   7.685 -0.8969 -3.2184  0.9048
   39POPC  C218 5260   6.208   2.501   7.867 -0.5635  0.0777 -0.6005
   39POPC  H18R 5261   6.237   2.503   7.974 -2.0800  1.3299 -0.2031
   39POPC  H18S 5262   6.109   2.450   7.862 -0.7360  0.5014 -1.6712
   39POPC  H18T 5263   6.194   2.607   7.838  0.5581  0.5330  0.4675
   39POPC   C33 5264   6.490   1.886   7.052 -0.1741 -0.2319 -0.1538
   39POPC   H3X 5265   6.506   1.780   7.079  3.1533  0.0531 -0.8077
   39POPC   H3Y 5266   6.380   1.904   7.048 -0.1742 -0.2031 -0.0043
   39POPC   C34 5267   6.555   1.991   7.148  0.3907 -0.0778  1.0766
   39POPC   H4X 5268   6.540   2.094   7.108  0.3701 -0.1245  0.9648
   39POPC   H4Y 5269   6.664   1.970   7.137  0.4338  1.5342 -2.5112
   39POPC   C35 5270   6.512   1.977   7.294 -0.9378  0.3319 -0.5409
   39POPC   H5X 5271   6.448   1.886   7.295 -0.3114 -0.1046  1.6970
   39POPC   H5Y 5272   6.444   2.060   7.325 -1.4905 -0.4444  0.3376
   39POPC   C36 5273   6.627   1.953   7.393  0.7627 -0.4692  0.1072
   39POPC   H6X 5274   6.710   2.023   7.373 -1.3637  2.5099  1.2459
   39POPC   H6Y 5275   6.662   1.850   7.373  2.6292  0.1642  0.0443
   39POPC   C37 5276   6.580   1.982   7.532  0.1893 -0.2081 -0.0236
   39POPC   H7X 5277   6.494   1.921   7.566  1.5529 -1.4526  1.2565
   39POPC   H7Y 5278   6.559   2.090   7.543  0.7739  0.0748 -1.4466
   39POPC   C38 5279   6.700   1.952   7.623 -0.4480  0.1364 -0.1126
   39POPC   H8X 5280   6.779   2.024   7.594 -0.4256 -0.2169 -0.9480
   39POPC   H8Y 5281   6.728   1.845   7.613 -1.0083  0.0131 -0.3842
   39POPC   C39 5282   6.674   1.971   7.773 -0.4279 -0.1216  0.4981
   39POPC   H9X 5283   6.580   1.922   7.806 -0.2469 -1.3318 -0.7643
   39POPC   H9Y 5284   6.662   2.080   7.793  0.9714 -0.3884  2.9619
   39POPC  C310 5285   6.782   1.930   7.869 -0.1373  0.0883  0.5275
   39POPC  H10X 5286   6.864   2.005   7.874  0.3032 -0.2349 -1.5993
   39POPC  H10Y 5287   6.817   1.831   7.834  0.8890 -0.0184  1.8198
   39POPC  C311 5288   6.733   1.921   8.016 -0.2729 -0.1229 -0.5229
   39POPC  H11X 5289   6.669   1.830   8.023 -0.4624  0.0189 -0.4340
   39POPC  H11Y 5290   6.681   2.015   8.044 -0.1671  0.1780 -1.3337
   39POPC  C312 5291   6.855   1.900   8.107  0.3860 -0.5206 -0.1541
   39POPC  H12X 5292   6.926   1.983   8.085  0.9484 -0.6141  1.2734
   39POPC  H12Y 5293   6.913   1.810   8.077 -0.2501 -0.9168 -0.2256
   39POPC  C313 5294   6.828   1.910   8.255  0.5511 -0.2909  0.1399
   39POPC  H13X 5295   6.788   2.007   8.291  0.0682 -1.1190  1.9084
   39POPC  H13Y 5296   6.925   1.905   8.309 -0.1461  2.9510  1.8360
   39POPC  C314 5297   6.743   1.795   8.308 -0.4522  0.5894 -0.5012
   39POPC  H14X 5298   6.804   1.704   8.323 -1.6409 -0.2474 -0.7563
   39POPC  H14Y 5299   6.659   1.768   8.241 -1.1007 -0.9425  0.9071
   39POPC  C315 5300   6.691   1.834   8.445  0.0280  0.3338 -0.2541
   39POPC  H15X 5301   6.623   1.922   8.446 -0.2530  0.1301 -1.1886
   39POPC  H15Y 5302   6.780   1.872   8.499 -0.4666  0.2315  0.6367
   39POPC  C316 5303   6.631   1.712   8.513 -0.4140  0.2095  0.2374
   39POPC  H16X 5304   6.599   1.746   8.614  0.2676 -1.0956  0.8947
   39POPC  H16Y 5305   6.715   1.640   8.516 -2.2044 -1.9032  0.4900
   39POPC  H16Z 5306   6.543   1.676   8.456 -0.5379 -2.5137  2.0672
   40POPC     N 5307   4.906   5.776   6.198  0.2265 -0.1509 -0.5917
   40POPC   C12 5308   4.901   5.927   6.193  0.6069 -0.0151 -0.2175
   40POPC  H12A 5309   4.837   5.951   6.109  1.1809 -0.0930 -0.6832
   40POPC  H12B 5310   5.004   5.951   6.170  0.2941  0.9136 -0.6681
   40POPC   C13 5311   5.023   5.723   6.284 -0.0841 -0.4606  0.6418
   40POPC  H13A 5312   5.120   5.740   6.240  0.2512  3.1864  2.5325
   40POPC  H13B 5313   5.026   5.777   6.378  0.8161 -1.6332  1.3040
   40POPC  H13C 5314   5.018   5.616   6.301  0.0672 -0.0221  3.9082
   40POPC   C14 5315   4.781   5.716   6.245 -0.2992  0.1272  0.0305
   40POPC  H14A 5316   4.756   5.767   6.337 -2.0983 -0.1592 -0.2698
   40POPC  H14B 5317   4.696   5.748   6.186  0.1943  0.3829 -0.5392
   40POPC  H14C 5318   4.797   5.611   6.261 -0.0199  0.2623  0.6426
   40POPC   C15 5319   4.945   5.731   6.062  0.5659  0.8071 -0.5464
   40POPC  H15A 5320   5.039   5.775   6.031  0.8498  0.4185 -0.2466
   40POPC  H15B 5321   4.869   5.751   5.989  1.6128  1.2019 -1.5402
   40POPC  H15C 5322   4.958   5.624   6.058 -0.7973  0.5705  0.9323
   40POPC   C11 5323   4.856   6.006   6.320 -0.0014  0.5062  0.1642
   40POPC  H11A 5324   4.761   5.965   6.360 -1.0657  1.2894 -1.4920
   40POPC  H11B 5325   4.834   6.111   6.291 -0.1341 -0.1466 -2.1505
   40POPC     P 5326   5.085   6.080   6.406 -0.0953 -0.5493  0.1317
   40POPC   O13 5327   5.127   6.086   6.265 -0.2674  0.8321  0.5989
   40POPC   O14 5328   5.188   6.025   6.494 -0.0995 -0.5062 -0.1761
   40POPC   O12 5329   4.957   5.998   6.421  0.5517 -0.8288  0.7635
   40POPC   O11 5330   5.034   6.218   6.459 -0.3578 -0.3133  0.4909
   40POPC    C1 5331   5.110   6.341   6.434 -0.3693 -0.6052 -0.0886
   40POPC    HA 5332   5.079   6.407   6.350  1.5024  0.0401 -0.2928
   40POPC    HB 5333   5.219   6.322   6.428  0.1621  1.3799  2.1216
   40POPC    C2 5334   5.102   6.440   6.565 -0.2996  0.9047 -0.7112
   40POPC    HS 5335   5.210   6.456   6.587 -0.2946 -1.6320  1.4057
   40POPC   O21 5336   5.033   6.372   6.675 -0.7113 -0.1514 -0.3508
   40POPC   C21 5337   5.103   6.284   6.733 -0.4524 -0.6853 -0.5631
   40POPC   O22 5338   5.222   6.258   6.713 -0.4086 -0.0744 -0.4231
   40POPC   C22 5339   5.031   6.250   6.857 -0.5566 -0.2495 -0.3027
   40POPC   H2R 5340   4.955   6.169   6.848 -1.2948  0.4460 -0.3847
   40POPC   H2S 5341   4.973   6.342   6.880  0.7649  0.8159 -1.1647
   40POPC    C3 5342   5.029   6.572   6.544  0.0693 -0.0569 -0.3108
   40POPC    HX 5343   4.923   6.539   6.534  0.6792 -2.2331 -0.0425
   40POPC    HY 5344   5.065   6.613   6.448  2.1086 -2.3745 -0.6070
   40POPC   O31 5345   5.043   6.667   6.650 -0.4630 -0.1355 -0.0145
   40POPC   C31 5346   5.155   6.728   6.657 -0.3426 -0.1133 -0.5419
   40POPC   O32 5347   5.254   6.707   6.585 -0.1776 -0.4215  0.1297
   40POPC   C32 5348   5.164   6.826   6.777  0.1733 -0.7550  0.3854
   40POPC   H2X 5349   5.080   6.809   6.847 -0.5943  0.1629 -0.3048
   40POPC   H2Y 5350   5.148   6.923   6.725  0.2982  0.2776  2.2005
   40POPC   C23 5351   5.123   6.210   6.975 -0.0566  0.0892 -0.4653
   40POPC   H3R 5352   5.211   6.278   6.981  0.5447 -0.8131  0.9415
   40POPC   H3S 5353   5.167   6.110   6.953  0.6480 -0.0831  1.6196
   40POPC   C24 5354   5.051   6.211   7.107 -0.4188  0.7783  0.2712
   40POPC   H4R 5355   4.965   6.140   7.103 -0.1218  0.3820  0.8563
   40POPC   H4S 5356   5.017   6.307   7.151 -1.0528  0.2831  0.8799
   40POPC   C25 5357   5.147   6.154   7.206  0.0002  0.2760 -1.1071
   40POPC   H5R 5358   5.246   6.205   7.203  0.7922 -1.0912  1.0193
   40POPC   H5S 5359   5.176   6.051   7.177  1.5266  0.5142 -0.4866
   40POPC   C26 5360   5.094   6.146   7.343  0.0276  0.3619  0.2878
   40POPC   H6R 5361   5.014   6.069   7.347 -2.2049  2.6026 -0.2437
   40POPC   H6S 5362   5.061   6.247   7.375 -0.9580  0.3555 -0.7046
   40POPC   C27 5363   5.200   6.102   7.440  0.1040 -0.5266  0.3543
   40POPC   H7R 5364   5.288   6.170   7.429 -1.0846  0.9359 -0.3425
   40POPC   H7S 5365   5.242   6.004   7.411 -2.6835 -0.5903 -3.9774
   40POPC   C28 5366   5.143   6.109   7.584 -0.0757 -0.1191  0.7797
   40POPC   H8R 5367   5.108   6.212   7.608  0.4600  0.5599 -1.2562
   40POPC   H8S 5368   5.222   6.087   7.659  0.1522 -0.4396  0.4448
   40POPC   C29 5369   5.029   6.006   7.597  0.0851 -0.4036  0.0820
   40POPC   H91 5370   4.926   6.040   7.581 -0.2748 -1.6955 -0.3932
   40POPC  C210 5371   5.050   5.878   7.626  0.6858 -0.7130  0.1088
   40POPC  H101 5372   4.963   5.814   7.646 -0.2077  0.7555  0.9924
   40POPC  C211 5373   5.178   5.810   7.653  0.2635 -0.2645 -0.2781
   40POPC  H11R 5374   5.272   5.851   7.610  0.2495  1.7501  1.5007
   40POPC  H11S 5375   5.169   5.718   7.592 -1.1085 -1.2065  1.3117
   40POPC  C212 5376   5.209   5.777   7.794 -0.2701  0.6987 -0.3044
   40POPC  H12R 5377   5.292   5.710   7.824 -0.6502  0.2948 -0.1599
   40POPC  H12S 5378   5.129   5.712   7.833  1.5137 -0.9997  0.6096
   40POPC  C213 5379   5.218   5.896   7.897 -0.1355  0.5871  0.1698
   40POPC  H13R 5380   5.121   5.951   7.891 -0.6752 -0.4342 -0.5637
   40POPC  H13S 5381   5.302   5.964   7.872 -1.2160  1.3031 -1.6153
   40POPC  C214 5382   5.222   5.845   8.038 -0.7558  0.1498  0.0613
   40POPC  H14R 5383   5.310   5.782   8.061 -1.2057 -0.2320  0.7716
   40POPC  H14S 5384   5.140   5.772   8.058  0.0602 -0.4901  1.1183
   40POPC  C215 5385   5.226   5.953   8.137 -0.0863 -0.2056  0.8732
   40POPC  H15R 5386   5.121   5.987   8.122  0.1187  0.9132  1.8553
   40POPC  H15S 5387   5.299   6.032   8.111  0.0646 -0.9048 -0.9305
   40POPC  C216 5388   5.243   5.907   8.283 -0.0290 -0.8023  0.3840
   40POPC  H16R 5389   5.332   5.841   8.284  0.7535  0.2390  2.9016
   40POPC  H16S 5390   5.150   5.854   8.312 -0.7164 -0.3581 -0.9677
   40POPC  C217 5391   5.271   6.021   8.372 -0.0677  0.2683 -0.5061
   40POPC  H17R 5392   5.197   6.104   8.363 -0.1550  0.1757 -0.6331
   40POPC  H17S 5393   5.371   6.058   8.340 -0.0610  1.8219  1.2022
   40POPC  C218 5394   5.273   5.986   8.518 -0.7557  0.1994  0.3332
   40POPC  H18R 5395   5.307   6.069   8.582  0.8393 -0.8440  0.8886
   40POPC  H18S 5396   5.331   5.892   8.534 -0.5099  0.5015  1.1991
   40POPC  H18T 5397   5.170   5.978   8.558 -0.3530  0.0756  1.3681
   40POPC   C33 5398   5.302   6.818   6.843  0.0330 -0.7072  0.4831
   40POPC   H3X 5399   5.317   6.891   6.926 -0.2791  1.4835 -1.3186
   40POPC   H3Y 5400   5.372   6.836   6.758 -0.6157  0.8396  0.2577
   40POPC   C34 5401   5.325   6.684   6.912  0.7572 -0.2582 -0.1161
   40POPC   H4X 5402   5.434   6.679   6.932  0.9258  0.9802 -0.7104
   40POPC   H4Y 5403   5.309   6.600   6.841  0.2349 -1.9016  1.9104
   40POPC   C35 5404   5.244   6.663   7.038  0.3336  0.5713 -0.4910
   40POPC   H5X 5405   5.138   6.649   7.009  0.2901 -0.1012 -0.0161
   40POPC   H5Y 5406   5.257   6.759   7.093  2.0446  1.1682 -1.8765
   40POPC   C36 5407   5.281   6.551   7.137  0.2651  0.6223  0.3702
   40POPC   H6X 5408   5.386   6.522   7.116  0.3944  1.1058  0.3515
   40POPC   H6Y 5409   5.214   6.463   7.124 -1.0158  1.4192  1.4187
   40POPC   C37 5410   5.274   6.584   7.286 -0.2931  0.3682 -1.1280
   40POPC   H7X 5411   5.169   6.610   7.310 -0.1374 -0.6052  0.7180
   40POPC   H7Y 5412   5.339   6.674   7.296 -2.2815  1.7507 -0.3664
   40POPC   C38 5413   5.310   6.461   7.373 -0.1448  0.5922 -0.0079
   40POPC   H8X 5414   5.412   6.424   7.348  0.1777  1.4761 -0.0145
   40POPC   H8Y 5415   5.237   6.381   7.346  1.9249 -1.5320  0.4850
   40POPC   C39 5416   5.301   6.483   7.524  0.0776  0.1606 -0.4055
   40POPC   H9X 5417   5.280   6.391   7.582  0.5503 -1.3254 -2.5154
   40POPC   H9Y 5418   5.225   6.559   7.553 -0.5932 -0.4670 -0.5103
   40POPC  C310 5419   5.430   6.536   7.591  0.4881 -0.2166 -0.6063
   40POPC  H10X 5420   5.525   6.498   7.549  0.6501  2.3293 -2.7042
   40POPC  H10Y 5421   5.434   6.485   7.690  4.3862 -0.7728 -0.9701
   40POPC  C311 5422   5.435   6.691   7.620 -0.0763 -0.8184 -0.4466
   40POPC  H11X 5423   5.350   6.729   7.681  0.8898  2.0387 -0.8381
   40POPC  H11Y 5424   5.423   6.732   7.517 -2.8816  2.6220  1.1652
   40POPC  C312 5425   5.565   6.731   7.697 -0.1073 -0.1696  0.1045
   40POPC  H12X 5426   5.653   6.686   7.647 -0.7594 -1.4987  0.1510
   40POPC  H12Y 5427   5.565   6.691   7.801  2.7217 -1.4151 -0.3416
   40POPC  C313 5428   5.586   6.888   7.711 -0.2682  0.1194  0.7745
   40POPC  H13X 5429   5.497   6.927   7.766 -0.5759  0.9786 -0.3331
   40POPC  H13Y 5430   5.578   6.927   7.608  0.8534 -0.3313  0.5096
   40POPC  C314 5431   5.724   6.933   7.768  0.2000  0.1353 -0.2383
   40POPC  H14X 5432   5.813   6.873   7.738  1.2107  1.0552  0.8872
   40POPC  H14Y 5433   5.709   6.919   7.877 -0.8996 -1.2002 -0.5421
   40POPC  C315 5434   5.759   7.081   7.746  0.1163 -0.4622 -1.3318
   40POPC  H15X 5435   5.668   7.133   7.782  0.1493 -1.0294 -0.4056
   40POPC  H15Y 5436   5.766   7.113   7.640  0.2594 -1.2678 -1.5696
   40POPC  C316 5437   5.885   7.129   7.832 -0.1533  0.9091  0.0543
   40POPC  H16X 5438   5.885   7.240   7.826 -2.2547  0.9571  0.5742
   40POPC  H16Y 5439   5.976   7.077   7.795 -0.8642  0.9268 -1.7581
   40POPC  H16Z 5440   5.893   7.103   7.940  1.0716  0.1616 -0.2011
   41CHL1    C3 5441   4.253   2.378  10.076 -0.4821  0.1373  0.3844
   41CHL1    H3 5442   4.145   2.393  10.057 -0.3024 -0.4196 -1.1588
   41CHL1    O3 5443   4.280   2.377  10.216  0.0559  0.3945  0.0669
   41CHL1   H3' 5444   4.374   2.395  10.223 -0.2339  2.1674 -0.4879
   41CHL1    C4 5445   4.313   2.245  10.024  0.0121  0.0296  0.0206
   41CHL1   H4A 5446   4.409   2.221  10.074 -0.7272 -0.8996  1.0187
   41CHL1   H4B 5447   4.239   2.174  10.066 -0.7154  0.4207 -0.5875
   41CHL1    C5 5448   4.320   2.225   9.877  0.3571 -0.6789  1.0518
   41CHL1    C6 5449   4.276   2.113   9.808  0.0207 -0.5828  0.6002
   41CHL1    H6 5450   4.224   2.033   9.863 -1.2626  0.2994  0.6901
   41CHL1    C7 5451   4.270   2.107   9.660 -0.2165  0.1932  0.3635
   41CHL1   H7A 5452   4.306   2.007   9.627  2.0967  0.7182  1.1984
   41CHL1   H7B 5453   4.167   2.128   9.626 -0.0645 -0.1426 -0.3194
   41CHL1    C8 5454   4.364   2.205   9.587 -0.2871  0.0781  0.8385
   41CHL1    H8 5455   4.468   2.167   9.599  0.1123  0.2824 -1.6915
   41CHL1   C14 5456   4.332   2.215   9.435  0.2151 -0.4215  0.6534
   41CHL1   H14 5457   4.230   2.260   9.429  1.4191  2.1575 -1.2979
   41CHL1   C15 5458   4.326   2.077   9.368  0.5201 -0.3710  0.1764
   41CHL1  H15A 5459   4.415   2.011   9.379  2.0836  1.5445 -0.7177
   41CHL1  H15B 5460   4.237   2.015   9.391 -0.0068 -0.0990 -1.1239
   41CHL1   C16 5461   4.331   2.117   9.221 -0.6614  0.6637 -1.0845
   41CHL1  H16A 5462   4.412   2.062   9.168 -0.8280  0.6534 -1.3311
   41CHL1  H16B 5463   4.236   2.087   9.172 -0.3363  0.6167 -1.6928
   41CHL1   C17 5464   4.360   2.271   9.209  0.4182 -0.4954  0.0206
   41CHL1   H17 5465   4.258   2.314   9.201  1.2958  1.6650 -0.0153
   41CHL1   C13 5466   4.424   2.310   9.348 -0.0301  0.5919  0.3090
   41CHL1   C18 5467   4.567   2.260   9.349 -0.4814  0.0115  0.0871
   41CHL1  H18A 5468   4.640   2.325   9.296  1.0542 -1.4052  0.4120
   41CHL1  H18B 5469   4.603   2.248   9.453 -1.5565 -2.2100  0.2209
   41CHL1  H18C 5470   4.573   2.156   9.311 -1.0203 -0.1192  0.3671
   41CHL1   C12 5471   4.405   2.447   9.391 -0.1187 -0.2318 -0.1730
   41CHL1  H12A 5472   4.477   2.522   9.351  0.7325 -1.7566 -1.5640
   41CHL1  H12B 5473   4.301   2.472   9.364 -0.4756 -1.0283  0.4438
   41CHL1   C11 5474   4.422   2.453   9.550 -0.5309 -0.3529 -0.3376
   41CHL1  H11A 5475   4.532   2.442   9.566 -0.4662  0.6016 -0.0959
   41CHL1  H11B 5476   4.389   2.551   9.591 -0.8119 -0.8474  0.6542
   41CHL1    C9 5477   4.349   2.343   9.641 -0.5506 -0.1064 -0.1789
   41CHL1    H9 5478   4.241   2.368   9.632 -0.6539 -1.1781 -2.1376
   41CHL1   C10 5479   4.383   2.349   9.794  0.0411  0.2628 -0.8287
   41CHL1   C19 5480   4.539   2.358   9.819  0.0505  0.1800 -0.6257
   41CHL1  H19A 5481   4.587   2.275   9.762 -0.2963  0.4835 -1.3704
   41CHL1  H19B 5482   4.580   2.453   9.778 -0.1155 -0.1230 -1.5160
   41CHL1  H19C 5483   4.549   2.369   9.929 -2.5477  1.4175 -0.4729
   41CHL1    C1 5484   4.321   2.478   9.851  0.8317 -0.3972 -0.6370
   41CHL1   H1A 5485   4.369   2.565   9.801 -1.2764  0.6919 -0.8242
   41CHL1   H1B 5486   4.211   2.483   9.837  0.4915  0.9568  2.1357
   41CHL1    C2 5487   4.337   2.492  10.012  0.0277 -0.1307  0.6887
   41CHL1   H2A 5488   4.283   2.587  10.028  1.9308  0.8154  1.5817
   41CHL1   H2B 5489   4.442   2.505  10.044  0.8007 -2.6226 -0.6751
   41CHL1   C20 5490   4.439   2.302   9.079  0.0146  0.4693  0.0833
   41CHL1   H20 5491   4.532   2.240   9.078  0.4239  0.9996  2.7927
   41CHL1   C21 5492   4.470   2.452   9.066 -0.0088 -0.0273  0.4024
   41CHL1  H21A 5493   4.543   2.477   9.146  0.7751 -2.1162  0.3703
   41CHL1  H21B 5494   4.382   2.519   9.079 -0.3928 -0.8951  2.4647
   41CHL1  H21C 5495   4.517   2.475   8.968 -1.5197 -1.6217 -0.7053
   41CHL1   C22 5496   4.375   2.260   8.942 -0.0160 -0.2259 -0.0709
   41CHL1  H22A 5497   4.319   2.164   8.946 -0.4334  0.0152 -0.0625
   41CHL1  H22B 5498   4.305   2.343   8.916  0.7064  0.6896  0.8594
   41CHL1   C23 5499   4.476   2.237   8.829 -0.5682 -0.2227  0.3614
   41CHL1  H23A 5500   4.535   2.331   8.822  1.3665 -1.6121 -4.0184
   41CHL1  H23B 5501   4.548   2.159   8.861  0.7231  1.3064  1.2483
   41CHL1   C24 5502   4.413   2.224   8.688 -0.0012 -0.8957 -0.4308
   41CHL1  H24A 5503   4.341   2.139   8.688  0.1068 -0.9888 -0.1182
   41CHL1  H24B 5504   4.369   2.324   8.669 -0.4121 -0.9342  0.2726
   41CHL1   C25 5505   4.518   2.215   8.577 -0.8135 -0.1794 -0.6579
   41CHL1   H25 5506   4.600   2.159   8.627 -1.0524  0.8822  0.9578
   41CHL1   C26 5507   4.475   2.126   8.455  0.3516 -0.1431 -0.1832
   41CHL1  H26A 5508   4.376   2.144   8.409  0.3071 -0.0249 -0.0454
   41CHL1  H26B 5509   4.552   2.121   8.375 -0.4736  3.1153 -1.2573
   41CHL1  H26C 5510   4.468   2.028   8.507  1.7128  1.8657  3.9876
   41CHL1   C27 5511   4.584   2.342   8.541 -0.2677 -0.5984  0.9789
   41CHL1  H27A 5512   4.512   2.419   8.507 -0.4704 -0.3785  1.9030
   41CHL1  H27B 5513   4.632   2.392   8.627  1.2975  1.7090 -1.1474
   41CHL1  H27C 5514   4.661   2.314   8.465 -3.2666  0.0843 -2.4296
   42CHL1    C3 5515   3.504   1.951   9.887  0.0821 -0.3346  0.5042
   42CHL1    H3 5516   3.408   1.948   9.832 -0.5420  1.7915  1.4224
   42CHL1    O3 5517   3.469   1.968  10.023 -0.2231 -0.3828  0.4013
   42CHL1   H3' 5518   3.548   1.991  10.072 -1.0409  0.6790  1.2431
   42CHL1    C4 5519   3.594   1.825   9.878 -0.5544  0.0866 -0.3258
   42CHL1   H4A 5520   3.684   1.853   9.937  0.5794 -3.1870 -0.4315
   42CHL1   H4B 5521   3.557   1.733   9.928  2.3537  0.3719  2.5483
   42CHL1    C5 5522   3.627   1.813   9.731  0.0541  0.8488  0.6091
   42CHL1    C6 5523   3.591   1.702   9.662 -0.3689  0.4952 -1.0395
   42CHL1    H6 5524   3.535   1.622   9.712  3.6824 -1.4125  0.7157
   42CHL1    C7 5525   3.631   1.665   9.522 -0.1772 -0.0645  0.0717
   42CHL1   H7A 5526   3.665   1.560   9.513 -2.9267 -1.0316  0.3793
   42CHL1   H7B 5527   3.540   1.666   9.458 -0.8014 -0.2605  0.9440
   42CHL1    C8 5528   3.729   1.767   9.468  0.0334  0.2696 -0.7013
   42CHL1    H8 5529   3.831   1.729   9.492 -0.4817 -0.1022  0.9370
   42CHL1   C14 5530   3.726   1.758   9.315  0.3498 -0.0229  0.0061
   42CHL1   H14 5531   3.621   1.773   9.282  0.2363 -0.8353 -0.0083
   42CHL1   C15 5532   3.754   1.616   9.254 -0.9098  0.0362  0.5015
   42CHL1  H15A 5533   3.841   1.574   9.308 -1.8709 -1.9998  0.5209
   42CHL1  H15B 5534   3.672   1.542   9.267  0.7426 -1.7301  1.0732
   42CHL1   C16 5535   3.774   1.639   9.105  0.1425  0.4948 -0.0848
   42CHL1  H16A 5536   3.866   1.595   9.063 -0.2604 -0.3061 -0.1401
   42CHL1  H16B 5537   3.692   1.594   9.045 -1.0180  0.0002  1.8496
   42CHL1   C17 5538   3.783   1.794   9.095  0.6862  0.1066  0.6272
   42CHL1   H17 5539   3.682   1.838   9.090 -0.0934 -1.4150  2.3928
   42CHL1   C13 5540   3.825   1.847   9.234  0.4919  0.6457  0.2467
   42CHL1   C18 5541   3.973   1.820   9.260  0.0965  0.3292 -0.4796
   42CHL1  H18A 5542   3.984   1.838   9.369  2.0197  0.1286 -0.6237
   42CHL1  H18B 5543   4.016   1.718   9.245 -2.3724 -1.4368  3.4437
   42CHL1  H18C 5544   4.041   1.898   9.220  1.0936  0.7358  1.8906
   42CHL1   C12 5545   3.789   1.986   9.284 -0.2222 -0.0820 -0.6767
   42CHL1  H12A 5546   3.840   2.073   9.237 -0.3250  0.1629 -0.3349
   42CHL1  H12B 5547   3.681   2.000   9.262 -0.8361 -2.0949  0.8157
   42CHL1   C11 5548   3.804   2.003   9.434  0.3895 -0.0594 -0.6232
   42CHL1  H11A 5549   3.909   1.987   9.468 -0.2859  0.3153  1.7352
   42CHL1  H11B 5550   3.783   2.107   9.467  0.8819 -0.0905 -0.1896
   42CHL1    C9 5551   3.704   1.910   9.512 -0.4835 -0.1948 -0.6596
   42CHL1    H9 5552   3.604   1.936   9.471 -0.8985 -0.9205 -0.1147
   42CHL1   C10 5553   3.701   1.931   9.668 -0.5244 -0.3900 -0.2879
   42CHL1   C19 5554   3.841   1.941   9.723 -0.3805  0.0957  0.1638
   42CHL1  H19A 5555   3.853   1.937   9.834 -0.4246 -0.4849  0.1480
   42CHL1  H19B 5556   3.907   1.855   9.697 -0.7531 -0.3657  0.7271
   42CHL1  H19C 5557   3.894   2.034   9.692  2.3136 -1.2415  0.5971
   42CHL1    C1 5558   3.621   2.062   9.698 -0.6796 -0.2431 -0.1648
   42CHL1   H1A 5559   3.681   2.145   9.657  0.6161 -1.4389 -0.7411
   42CHL1   H1B 5560   3.528   2.056   9.637  0.8159 -0.4841 -2.4815
   42CHL1    C2 5561   3.576   2.076   9.843 -0.2630 -0.0427  0.1588
   42CHL1   H2A 5562   3.509   2.165   9.847  0.0489  0.1820  0.4186
   42CHL1   H2B 5563   3.663   2.092   9.910  0.4001  0.1952 -0.7528
   42CHL1   C20 5564   3.845   1.848   8.960  0.5568 -0.2471 -0.1801
   42CHL1   H20 5565   3.945   1.804   8.940  1.9293  2.4552  0.4249
   42CHL1   C21 5566   3.867   2.002   8.985 -0.0984  0.5545 -0.7666
   42CHL1  H21A 5567   3.944   2.015   9.064 -1.8481  0.6735  0.9584
   42CHL1  H21B 5568   3.766   2.038   9.014 -0.5899  0.6051 -2.4924
   42CHL1  H21C 5569   3.902   2.047   8.889 -0.3943 -1.1188 -1.6806
   42CHL1   C22 5570   3.759   1.824   8.830 -0.7796 -0.6612 -0.1569
   42CHL1  H22A 5571   3.738   1.715   8.827 -1.7558 -0.4644 -0.7361
   42CHL1  H22B 5572   3.661   1.877   8.819 -0.0454  0.9596  1.0031
   42CHL1   C23 5573   3.840   1.867   8.706 -0.0170  0.3589 -0.3307
   42CHL1  H23A 5574   3.842   1.977   8.700 -0.2648  0.4560  1.1692
   42CHL1  H23B 5575   3.944   1.828   8.700 -0.8049 -1.6688 -1.7178
   42CHL1   C24 5576   3.769   1.827   8.575  0.2181  0.4740 -0.4577
   42CHL1  H24A 5577   3.753   1.717   8.563 -0.6024  0.1516  2.8753
   42CHL1  H24B 5578   3.663   1.856   8.587 -0.0277 -0.2009 -0.9499
   42CHL1   C25 5579   3.822   1.898   8.450 -0.6381 -0.5858  0.6181
   42CHL1   H25 5580   3.811   2.006   8.472  0.1884 -0.3581 -0.0946
   42CHL1   C26 5581   3.964   1.858   8.428  0.7197  0.1172  0.9195
   42CHL1  H26A 5582   4.023   1.891   8.516  1.9561  2.2495 -0.6731
   42CHL1  H26B 5583   3.972   1.748   8.416  0.6225  0.2403 -0.2574
   42CHL1  H26C 5584   4.002   1.908   8.337 -2.2768  0.2535 -0.3005
   42CHL1   C27 5585   3.734   1.858   8.333  0.1108 -0.3211 -0.2465
   42CHL1  H27A 5586   3.633   1.903   8.331 -0.3544 -1.3553 -0.8838
   42CHL1  H27B 5587   3.782   1.885   8.236 -0.9997 -0.3809 -0.8278
   42CHL1  H27C 5588   3.718   1.748   8.332 -0.0149 -0.3361  1.6819
   43CHL1    C3 5589   4.898   1.943  10.094  0.2074 -0.5848  0.3250
   43CHL1    H3 5590   4.810   1.883  10.062 -1.6997  1.7847  0.9569
   43CHL1    O3 5591   4.893   1.937  10.234  0.7919 -0.2618 -0.5302
   43CHL1   H3' 5592   4.950   1.865  10.263  0.6244  0.0200  0.5250
   43CHL1    C4 5593   5.033   1.912  10.028 -0.0592 -0.2845 -0.1584
   43CHL1   H4A 5594   5.105   1.973  10.086 -0.5668  1.1818 -1.0146
   43CHL1   H4B 5595   5.063   1.809  10.056 -1.6785 -0.0844  2.4812
   43CHL1    C5 5596   5.044   1.940   9.879  0.1578 -0.8394 -0.4200
   43CHL1    C6 5597   5.084   1.841   9.793 -0.4069  0.7286 -1.5921
   43CHL1    H6 5598   5.130   1.748   9.831  0.0988  1.5357 -0.1869
   43CHL1    C7 5599   5.097   1.865   9.645 -0.8594  0.2638 -0.7715
   43CHL1   H7A 5600   5.191   1.813   9.616  0.4462  0.8535  2.1564
   43CHL1   H7B 5601   5.010   1.817   9.595 -2.0281  0.5532  0.9469
   43CHL1    C8 5602   5.099   2.021   9.615  0.7450  0.2781  0.6775
   43CHL1    H8 5603   5.193   2.065   9.655  0.4183  0.9991  0.6703
   43CHL1   C14 5604   5.080   2.036   9.460 -0.6673  0.1167 -0.3205
   43CHL1   H14 5605   4.977   1.997   9.441 -0.2064 -1.5042  0.4609
   43CHL1   C15 5606   5.180   1.959   9.367  0.9053  0.0523 -0.2716
   43CHL1  H15A 5607   5.285   1.959   9.403  0.9766  3.9097 -0.2831
   43CHL1  H15B 5608   5.144   1.858   9.339 -2.3284  0.9147  0.5324
   43CHL1   C16 5609   5.180   2.042   9.234 -0.4442  0.3467  0.4299
   43CHL1  H16A 5610   5.276   2.097   9.235 -0.6321  0.7324 -1.8231
   43CHL1  H16B 5611   5.162   1.998   9.134 -1.4400 -0.9679  1.1706
   43CHL1   C17 5612   5.072   2.151   9.260  0.0776  0.3066 -0.6355
   43CHL1   H17 5613   4.974   2.101   9.242  0.3629 -1.4264  2.3768
   43CHL1   C13 5614   5.078   2.179   9.413  1.2405  0.3171  1.4347
   43CHL1   C18 5615   5.213   2.252   9.447  0.0883 -1.0207  0.5693
   43CHL1  H18A 5616   5.294   2.176   9.442 -0.7017 -1.9504  1.4852
   43CHL1  H18B 5617   5.229   2.348   9.393 -0.2920 -1.3120 -0.0665
   43CHL1  H18C 5618   5.203   2.289   9.551  0.5123 -2.0167  0.9710
   43CHL1   C12 5619   4.950   2.240   9.472  0.6213 -0.1113 -0.1391
   43CHL1  H12A 5620   4.938   2.346   9.439  0.1700  0.0175  0.4366
   43CHL1  H12B 5621   4.865   2.175   9.443  0.3929 -0.1546  0.6217
   43CHL1   C11 5622   4.948   2.232   9.627  0.2553  0.1952 -0.0548
   43CHL1  H11A 5623   5.017   2.308   9.671 -0.4008  0.0878  1.1630
   43CHL1  H11B 5624   4.841   2.255   9.643 -0.0410 -1.4092  0.2368
   43CHL1    C9 5625   4.975   2.094   9.681 -0.7070 -0.1370  0.2481
   43CHL1    H9 5626   4.894   2.024   9.652  0.2124 -2.4200  2.9480
   43CHL1   C10 5627   4.989   2.078   9.838 -0.0733 -0.0814 -0.2627
   43CHL1   C19 5628   5.102   2.181   9.877 -0.0271  0.1815  0.1003
   43CHL1  H19A 5629   5.066   2.282   9.850  1.2489  0.8156  0.7607
   43CHL1  H19B 5630   5.120   2.185   9.987  1.8273  0.9061 -0.2138
   43CHL1  H19C 5631   5.200   2.166   9.827 -0.2410  0.5003 -0.4126
   43CHL1    C1 5632   4.859   2.114   9.907  0.1866 -0.3505 -0.4838
   43CHL1   H1A 5633   4.827   2.219   9.888  3.9959  0.6111 -2.0600
   43CHL1   H1B 5634   4.780   2.053   9.858  0.1246  0.3587 -1.2869
   43CHL1    C2 5635   4.852   2.084  10.059  0.3872 -0.8958  0.1187
   43CHL1   H2A 5636   4.753   2.118  10.094  0.0875  0.1451 -1.6545
   43CHL1   H2B 5637   4.912   2.165  10.107  1.8409 -1.0602 -1.3572
   43CHL1   C20 5638   5.074   2.287   9.178 -0.1584 -0.4745 -0.1335
   43CHL1   H20 5639   5.087   2.369   9.252  2.7874 -1.3685  0.4123
   43CHL1   C21 5640   4.932   2.293   9.119 -0.5604 -0.3492  0.6266
   43CHL1  H21A 5641   4.847   2.291   9.190 -0.7837  1.8374  0.4676
   43CHL1  H21B 5642   4.920   2.209   9.047  2.6254  1.6502 -2.4421
   43CHL1  H21C 5643   4.925   2.388   9.061 -1.7756 -0.8624 -0.0810
   43CHL1   C22 5644   5.193   2.299   9.077 -0.3988 -0.1959 -0.2340
   43CHL1  H22A 5645   5.281   2.288   9.144  1.3749 -3.4612 -2.9651
   43CHL1  H22B 5646   5.200   2.222   8.998  0.8754  1.1138 -1.4328
   43CHL1   C23 5647   5.211   2.444   9.024  0.1439  0.4217 -0.5145
   43CHL1  H23A 5648   5.118   2.462   8.965  0.2373 -0.4818 -0.9442
   43CHL1  H23B 5649   5.215   2.514   9.110 -0.6512 -1.1551  0.8241
   43CHL1   C24 5650   5.331   2.459   8.932  0.3853 -0.2110  0.6975
   43CHL1  H24A 5651   5.422   2.446   8.994  0.8286  2.5538  0.6746
   43CHL1  H24B 5652   5.327   2.374   8.861 -1.3912 -1.8383  2.6631
   43CHL1   C25 5653   5.330   2.584   8.848  0.2255  0.3045  0.5547
   43CHL1   H25 5654   5.292   2.667   8.912  1.0703  0.1234  1.3101
   43CHL1   C26 5655   5.469   2.617   8.788  0.6040 -0.3917  0.3397
   43CHL1  H26A 5656   5.479   2.722   8.752  3.0702 -0.7181 -0.0103
   43CHL1  H26B 5657   5.552   2.610   8.862 -0.7702 -0.7101  1.8828
   43CHL1  H26C 5658   5.482   2.549   8.702 -3.2721 -0.7923 -0.0137
   43CHL1   C27 5659   5.240   2.574   8.723  0.0834 -0.6862 -0.2870
   43CHL1  H27A 5660   5.222   2.672   8.672  2.0814  0.4944  1.2183
   43CHL1  H27B 5661   5.265   2.510   8.636 -0.7163  0.1397 -1.1432
   43CHL1  H27C 5662   5.140   2.538   8.754  0.9009 -2.6033  0.1702
   44CHL1    C3 5663   4.788   2.759  10.191 -0.0779  0.1496  0.8619
   44CHL1    H3 5664   4.777   2.870  10.197 -0.7887  0.0665  1.0935
   44CHL1    O3 5665   4.779   2.707  10.324  0.1561 -0.0567 -0.1440
   44CHL1   H3' 5666   4.689   2.720  10.352 -0.4403 -1.8289 -1.1518
   44CHL1    C4 5667   4.670   2.692  10.114  0.0960 -0.4214  0.8035
   44CHL1   H4A 5668   4.660   2.582  10.123 -0.9727 -0.2695  1.5676
   44CHL1   H4B 5669   4.579   2.738  10.159  0.7093 -1.5135  3.2815
   44CHL1    C5 5670   4.687   2.730   9.967 -0.2479 -0.7878  0.6232
   44CHL1    C6 5671   4.586   2.799   9.900 -0.4280 -0.2275  0.1920
   44CHL1    H6 5672   4.490   2.809   9.952 -1.1679  0.9903 -1.3560
   44CHL1    C7 5673   4.589   2.843   9.760  0.4853  0.4785 -0.7541
   44CHL1   H7A 5674   4.492   2.832   9.706 -0.3109 -1.5731  1.0283
   44CHL1   H7B 5675   4.626   2.946   9.745 -1.8097  1.5103  0.4977
   44CHL1    C8 5676   4.693   2.765   9.675  0.1020  0.2068 -0.1938
   44CHL1    H8 5677   4.655   2.661   9.662 -0.7606  0.3337  1.1217
   44CHL1   C14 5678   4.710   2.833   9.540  0.2892 -0.0114  0.8262
   44CHL1   H14 5679   4.755   2.931   9.568  2.4331 -1.1285  1.4579
   44CHL1   C15 5680   4.585   2.854   9.456  0.5731  0.1754 -0.2756
   44CHL1  H15A 5681   4.507   2.775   9.448 -2.4579  3.0402 -0.0307
   44CHL1  H15B 5682   4.519   2.934   9.496  0.9245  0.3993 -0.1348
   44CHL1   C16 5683   4.649   2.897   9.316 -0.4961 -0.0491 -0.5848
   44CHL1  H16A 5684   4.593   2.840   9.239 -0.1730  0.4802 -1.2116
   44CHL1  H16B 5685   4.652   3.007   9.302  1.0165  0.0391  0.2586
   44CHL1   C17 5686   4.804   2.854   9.323  0.6192  0.6846 -1.0037
   44CHL1   H17 5687   4.856   2.950   9.340  0.1879  1.0504 -1.7036
   44CHL1   C13 5688   4.820   2.769   9.449  0.5350  0.1703  0.0889
   44CHL1   C18 5689   4.771   2.625   9.424  0.1072 -0.5812  0.1336
   44CHL1  H18A 5690   4.689   2.627   9.349 -1.0281 -0.8235  1.3406
   44CHL1  H18B 5691   4.849   2.572   9.365 -1.4106 -1.2741 -1.2671
   44CHL1  H18C 5692   4.751   2.566   9.516  0.5534  1.2613  1.4534
   44CHL1   C12 5693   4.950   2.772   9.522  1.1023 -0.3125 -0.3043
   44CHL1  H12A 5694   5.038   2.738   9.463  0.2514 -0.7039 -1.3711
   44CHL1  H12B 5695   4.974   2.879   9.540  1.3996 -0.4252 -0.0217
   44CHL1   C11 5696   4.944   2.705   9.666  0.4220 -0.4984  0.6632
   44CHL1  H11A 5697   4.931   2.598   9.640 -2.0603 -0.1015  0.2366
   44CHL1  H11B 5698   5.038   2.718   9.725  0.9854 -1.2000 -0.0656
   44CHL1    C9 5699   4.833   2.757   9.754 -0.2761 -0.2840  0.2286
   44CHL1    H9 5700   4.840   2.867   9.761 -0.4964 -0.2731  0.2951
   44CHL1   C10 5701   4.820   2.701   9.894  0.2133 -0.6271 -0.2945
   44CHL1   C19 5702   4.846   2.548   9.888  0.3332 -0.1110  0.0264
   44CHL1  H19A 5703   4.956   2.542   9.875  0.2314 -1.9206 -0.0268
   44CHL1  H19B 5704   4.833   2.490   9.981  0.6937  2.0351  1.4471
   44CHL1  H19C 5705   4.790   2.501   9.804  1.9687 -0.7845 -0.7005
   44CHL1    C1 5706   4.933   2.759   9.983  0.5496 -0.0537 -0.1536
   44CHL1   H1A 5707   5.031   2.730   9.939 -0.0189 -0.7939 -0.9566
   44CHL1   H1B 5708   4.920   2.869   9.975  0.7590 -0.0495 -0.4445
   44CHL1    C2 5709   4.925   2.724  10.132 -0.1894 -0.5180 -0.5476
   44CHL1   H2A 5710   5.002   2.781  10.189  1.2958 -0.7016 -2.3265
   44CHL1   H2B 5711   4.942   2.615  10.148 -0.0278 -0.2381  1.2367
   44CHL1   C20 5712   4.859   2.802   9.197 -0.8600  0.3239  0.3367
   44CHL1   H20 5713   4.818   2.705   9.162  1.3418 -0.0554 -1.3414
   44CHL1   C21 5714   5.011   2.774   9.211  0.6995  0.7755 -0.4123
   44CHL1  H21A 5715   5.016   2.673   9.255 -0.7485  0.3388 -1.2194
   44CHL1  H21B 5716   5.065   2.846   9.276  2.7883 -1.2204  0.0975
   44CHL1  H21C 5717   5.050   2.767   9.107 -1.9294  0.8428 -1.4443
   44CHL1   C22 5718   4.826   2.893   9.080  0.4929  0.7003  0.3237
   44CHL1  H22A 5719   4.731   2.949   9.092  1.3565  2.5471 -1.1827
   44CHL1  H22B 5720   4.903   2.973   9.076  0.9670  0.3641  2.1417
   44CHL1   C23 5721   4.832   2.809   8.950  0.7035  0.2567 -0.4481
   44CHL1  H23A 5722   4.930   2.756   8.944  1.6831  2.0464 -0.6918
   44CHL1  H23B 5723   4.742   2.744   8.947  1.7150 -1.1154 -1.5621
   44CHL1   C24 5724   4.816   2.894   8.827 -0.4756 -0.0826  0.9257
   44CHL1  H24A 5725   4.738   2.972   8.842  0.2507  1.2672 -2.0432
   44CHL1  H24B 5726   4.916   2.942   8.822  0.4367 -2.2808 -3.9661
   44CHL1   C25 5727   4.779   2.814   8.698 -0.3320  0.0246 -0.2531
   44CHL1   H25 5728   4.687   2.756   8.716 -0.2861 -0.4499 -1.5159
   44CHL1   C26 5729   4.749   2.912   8.585  0.4765 -0.1942 -0.5502
   44CHL1  H26A 5730   4.835   2.966   8.540 -1.0016  0.9386 -2.0967
   44CHL1  H26B 5731   4.690   2.863   8.504  2.9667 -1.5220 -1.6067
   44CHL1  H26C 5732   4.683   2.989   8.631  0.8553 -0.6432  0.7482
   44CHL1   C27 5733   4.893   2.715   8.668  0.1802 -0.2228 -0.3535
   44CHL1  H27A 5734   4.881   2.676   8.564 -3.5207 -0.4842  0.1268
   44CHL1  H27B 5735   4.993   2.763   8.677 -0.5775  0.7494  3.3981
   44CHL1  H27C 5736   4.879   2.623   8.729 -0.5303 -0.7431 -1.2837
   45CHL1    C3 5737   1.736   1.986  10.200  0.2278  0.3716  0.1964
   45CHL1    H3 5738   1.649   2.054  10.188 -1.2002 -1.7966 -2.1914
   45CHL1    O3 5739   1.751   1.949  10.339 -1.0039 -0.0318  0.7363
   45CHL1   H3' 5740   1.779   2.027  10.388  0.2665 -0.9991  1.5570
   45CHL1    C4 5741   1.705   1.851  10.121  0.4084 -0.5617 -0.5382
   45CHL1   H4A 5742   1.791   1.781  10.131 -0.2594 -1.2501  0.5481
   45CHL1   H4B 5743   1.618   1.801  10.169  0.3186 -0.3670 -0.4986
   45CHL1    C5 5744   1.681   1.881   9.974 -0.0292  0.1745  0.6396
   45CHL1    C6 5745   1.561   1.862   9.916  0.4354 -0.7316  0.1933
   45CHL1    H6 5746   1.482   1.821   9.981 -0.4914 -0.1444 -0.5398
   45CHL1    C7 5747   1.533   1.891   9.771 -0.5395  0.2378  0.2729
   45CHL1   H7A 5748   1.474   1.808   9.727 -1.2150  1.0646 -0.3725
   45CHL1   H7B 5749   1.467   1.979   9.761 -1.1809 -0.3527 -0.7792
   45CHL1    C8 5750   1.655   1.932   9.685  0.0441 -0.1060 -0.2845
   45CHL1    H8 5751   1.622   2.007   9.610  3.0791  0.8845 -0.7118
   45CHL1   C14 5752   1.710   1.824   9.596  0.3914  0.3252  0.0259
   45CHL1   H14 5753   1.742   1.734   9.653  1.0071 -0.5685 -1.7013
   45CHL1   C15 5754   1.609   1.773   9.488 -0.0088 -1.2466 -0.6052
   45CHL1  H15A 5755   1.622   1.666   9.464 -0.9510 -1.2365 -1.1699
   45CHL1  H15B 5756   1.504   1.785   9.521  0.1925 -1.9048  0.2989
   45CHL1   C16 5757   1.643   1.848   9.359  0.6392 -0.2665  0.9548
   45CHL1  H16A 5758   1.665   1.771   9.282 -0.0691  1.6336 -1.2129
   45CHL1  H16B 5759   1.558   1.912   9.325  1.8138 -0.4233 -2.5043
   45CHL1   C17 5760   1.765   1.937   9.393  0.6887 -0.6184 -0.3338
   45CHL1   H17 5761   1.728   2.034   9.434 -0.3351 -3.0733  5.0062
   45CHL1   C13 5762   1.833   1.871   9.513  0.1627 -0.0614  0.5431
   45CHL1   C18 5763   1.920   1.747   9.461  0.1920  0.4689 -0.4384
   45CHL1  H18A 5764   1.962   1.694   9.548  0.7910  1.8007  0.1044
   45CHL1  H18B 5765   1.864   1.678   9.394 -0.5899  0.2497  0.4305
   45CHL1  H18C 5766   2.009   1.778   9.401 -0.3115  0.5952 -1.1221
   45CHL1   C12 5767   1.940   1.961   9.576 -0.3624  0.2061  0.5649
   45CHL1  H12A 5768   2.018   1.902   9.628 -1.7854 -2.7235 -0.5204
   45CHL1  H12B 5769   2.001   2.017   9.502 -1.9463  1.8635  0.5050
   45CHL1   C11 5770   1.875   2.066   9.666 -0.1311  0.1790 -0.8622
   45CHL1  H11A 5771   1.960   2.114   9.720 -0.4657  0.7437 -0.8316
   45CHL1  H11B 5772   1.835   2.144   9.598 -3.3930 -0.9183 -0.2944
   45CHL1    C9 5773   1.758   2.016   9.762 -0.1030 -0.0451  0.2679
   45CHL1    H9 5774   1.712   2.117   9.772 -0.4934 -0.3240  1.2893
   45CHL1   C10 5775   1.800   1.958   9.901 -0.0210  0.3182  0.3882
   45CHL1   C19 5776   1.923   1.867   9.876 -0.1882  0.2931  0.7431
   45CHL1  H19A 5777   1.965   1.835   9.974  0.3955  1.8904  1.0358
   45CHL1  H19B 5778   1.895   1.777   9.818 -0.8261  0.3233  1.0060
   45CHL1  H19C 5779   2.006   1.921   9.825  0.5283 -2.3291 -0.9525
   45CHL1    C1 5780   1.842   2.084   9.996 -0.3343  0.1486  0.1409
   45CHL1   H1A 5781   1.943   2.110   9.958 -0.1900 -0.3793  0.1509
   45CHL1   H1B 5782   1.762   2.161   9.992 -0.7373 -0.2740 -0.1041
   45CHL1    C2 5783   1.861   2.057  10.148  0.3553  0.3945 -0.0349
   45CHL1   H2A 5784   1.891   2.152  10.198  2.1753 -0.2613  0.1412
   45CHL1   H2B 5785   1.944   1.986  10.166  0.9705  0.9962 -0.4701
   45CHL1   C20 5786   1.860   1.959   9.269 -0.3558  1.0397  0.3906
   45CHL1   H20 5787   1.960   1.978   9.312 -0.7310  0.1609  1.6840
   45CHL1   C21 5788   1.811   2.096   9.221 -0.3861  0.3270 -0.3337
   45CHL1  H21A 5789   1.822   2.171   9.302 -0.9683 -1.9052  1.8791
   45CHL1  H21B 5790   1.706   2.100   9.186 -0.1800 -0.4030 -1.0653
   45CHL1  H21C 5791   1.861   2.131   9.129  2.2493  0.4848  1.0956
   45CHL1   C22 5792   1.877   1.853   9.152 -0.0941 -0.5433 -0.1224
   45CHL1  H22A 5793   1.905   1.759   9.204 -0.5389 -0.8380 -0.4224
   45CHL1  H22B 5794   1.782   1.838   9.097  1.3108 -0.8083 -2.5479
   45CHL1   C23 5795   1.987   1.892   9.048  0.3507  0.1591 -0.8280
   45CHL1  H23A 5796   1.965   1.807   8.978 -1.3886 -0.1117  0.0027
   45CHL1  H23B 5797   1.972   1.990   8.999 -1.7719 -0.5333 -1.6810
   45CHL1   C24 5798   2.133   1.876   9.091  0.2755 -0.6944  0.3993
   45CHL1  H24A 5799   2.157   1.963   9.157  0.7891 -0.4480 -0.1049
   45CHL1  H24B 5800   2.131   1.783   9.152 -0.6131  1.1024  3.1931
   45CHL1   C25 5801   2.240   1.881   8.976 -0.0242  0.2044  0.4836
   45CHL1   H25 5802   2.181   1.900   8.883 -0.3228 -2.1353  0.1474
   45CHL1   C26 5803   2.349   1.981   8.986 -0.3086 -0.5122 -1.0893
   45CHL1  H26A 5804   2.407   1.979   9.081  1.8893  1.3390 -2.3318
   45CHL1  H26B 5805   2.427   1.966   8.907  0.1345  3.8534 -1.6437
   45CHL1  H26C 5806   2.320   2.088   8.974  1.5016  0.1158 -0.1123
   45CHL1   C27 5807   2.309   1.738   8.967 -1.3205  0.4193  0.3145
   45CHL1  H27A 5808   2.363   1.711   9.060  0.1144 -0.4079 -0.7448
   45CHL1  H27B 5809   2.245   1.650   8.946  1.5243 -1.3327 -1.3457
   45CHL1  H27C 5810   2.390   1.738   8.890 -1.1473 -0.4518  0.5027
   46CHL1    C3 5811   4.822   5.680   9.977  0.1277 -0.3060  0.1367
   46CHL1    H3 5812   4.905   5.755   9.973  0.7148 -0.9476  0.1080
   46CHL1    O3 5813   4.808   5.628  10.105  0.0324  0.1525 -0.4718
   46CHL1   H3' 5814   4.764   5.544  10.094  2.1776 -1.3091  1.7095
   46CHL1    C4 5815   4.705   5.763   9.926 -0.0462  0.0852 -0.2370
   46CHL1   H4A 5816   4.603   5.721   9.937  0.2239  0.1260  3.1839
   46CHL1   H4B 5817   4.700   5.848   9.997 -0.4698 -0.6676  0.6446
   46CHL1    C5 5818   4.730   5.813   9.790 -0.5250 -0.2826 -0.1842
   46CHL1    C6 5819   4.722   5.945   9.757  0.6132 -0.4784  0.6019
   46CHL1    H6 5820   4.710   6.023   9.833  3.5288 -2.4958  3.2756
   46CHL1    C7 5821   4.728   5.984   9.613  0.9925  0.2757  0.2512
   46CHL1   H7A 5822   4.653   6.065   9.602  1.6218  0.9213  0.6330
   46CHL1   H7B 5823   4.826   6.031   9.588 -0.5863  2.5822 -1.8231
   46CHL1    C8 5824   4.689   5.876   9.510 -0.3924 -0.2507 -1.1593
   46CHL1    H8 5825   4.582   5.856   9.532  0.2725 -1.7198  0.8949
   46CHL1   C14 5826   4.715   5.921   9.370 -0.4560  0.7973 -0.5554
   46CHL1   H14 5827   4.824   5.935   9.359 -0.4108  0.9860  0.1475
   46CHL1   C15 5828   4.666   6.061   9.335 -0.1794 -0.2364  0.5674
   46CHL1  H15A 5829   4.562   6.093   9.360 -0.4436  0.0223 -0.8097
   46CHL1  H15B 5830   4.739   6.134   9.376 -1.2895  0.3809  1.5064
   46CHL1   C16 5831   4.677   6.063   9.179  0.4263  0.4390  0.7472
   46CHL1  H16A 5832   4.581   6.097   9.134  1.1172  1.8261  0.2771
   46CHL1  H16B 5833   4.747   6.136   9.132 -1.1646  0.2144 -2.0961
   46CHL1   C17 5834   4.728   5.916   9.129  0.7399 -0.1834  0.2205
   46CHL1   H17 5835   4.837   5.934   9.138  0.9513 -1.0093 -0.6960
   46CHL1   C13 5836   4.677   5.834   9.256 -0.0670  0.0230  0.4167
   46CHL1   C18 5837   4.523   5.816   9.241 -0.3911 -0.4754 -0.5318
   46CHL1  H18A 5838   4.472   5.915   9.232 -0.2335 -0.1427  1.8120
   46CHL1  H18B 5839   4.504   5.740   9.162  2.7371 -2.5377  0.5872
   46CHL1  H18C 5840   4.481   5.775   9.335  1.4991 -1.0114  0.0968
   46CHL1   C12 5841   4.750   5.697   9.274  0.0755 -0.2961 -0.0004
   46CHL1  H12A 5842   4.716   5.616   9.205 -0.0732 -0.5681  0.3913
   46CHL1  H12B 5843   4.857   5.707   9.245  0.1749 -0.2907  0.3689
   46CHL1   C11 5844   4.740   5.646   9.416  0.0796  1.1594  0.0555
   46CHL1  H11A 5845   4.633   5.619   9.429  0.7705 -1.9276 -0.2455
   46CHL1  H11B 5846   4.794   5.552   9.441 -0.7716  1.1702  1.9587
   46CHL1    C9 5847   4.767   5.752   9.536 -0.7181 -0.0172  0.4323
   46CHL1    H9 5848   4.878   5.759   9.534 -0.6301 -1.2577  0.5698
   46CHL1   C10 5849   4.742   5.696   9.684  0.2011 -0.0292 -0.7552
   46CHL1   C19 5850   4.601   5.629   9.683 -0.7306 -0.8711  0.1678
   46CHL1  H19A 5851   4.604   5.536   9.622  1.5992 -1.2940  0.9056
   46CHL1  H19B 5852   4.584   5.577   9.780 -0.9242 -0.9863  0.0751
   46CHL1  H19C 5853   4.517   5.700   9.668  1.2460  1.1964 -1.4092
   46CHL1    C1 5854   4.851   5.595   9.726  0.3087 -0.6145 -0.6914
   46CHL1   H1A 5855   4.838   5.498   9.675 -0.0298 -1.0522  0.2104
   46CHL1   H1B 5856   4.954   5.629   9.703  0.1240  2.1284  2.1234
   46CHL1    C2 5857   4.857   5.567   9.875  0.4973  0.4815  0.0748
   46CHL1   H2A 5858   4.954   5.528   9.912  0.4275 -0.6480 -0.8916
   46CHL1   H2B 5859   4.780   5.490   9.901  0.9653  0.0695  0.2516
   46CHL1   C20 5860   4.696   5.885   8.981 -0.5520  0.0200  0.3695
   46CHL1   H20 5861   4.590   5.911   8.961 -0.4320  1.2432  1.3106
   46CHL1   C21 5862   4.724   5.733   8.953  0.1450 -0.2383 -0.6599
   46CHL1  H21A 5863   4.817   5.704   9.004  0.6035 -0.4454 -1.5962
   46CHL1  H21B 5864   4.735   5.707   8.845  1.3487  3.3776 -1.4632
   46CHL1  H21C 5865   4.654   5.659   8.997 -1.7159  1.4886 -0.5960
   46CHL1   C22 5866   4.796   5.970   8.889 -0.4060 -0.3429  0.4117
   46CHL1  H22A 5867   4.783   6.077   8.914 -1.6156 -0.3884 -0.0128
   46CHL1  H22B 5868   4.903   5.944   8.904 -0.8458 -1.0920  2.4747
   46CHL1   C23 5869   4.757   5.961   8.739  0.8023  0.4670  0.0485
   46CHL1  H23A 5870   4.754   5.854   8.707  1.0923  1.1078 -2.2736
   46CHL1  H23B 5871   4.654   5.998   8.723 -0.0419 -0.4500  3.1106
   46CHL1   C24 5872   4.846   6.051   8.649  0.1299  0.5579  0.2370
   46CHL1  H24A 5873   4.825   6.150   8.694 -0.6386  0.2719  0.5087
   46CHL1  H24B 5874   4.951   6.029   8.680 -0.2751  2.2766  3.0270
   46CHL1   C25 5875   4.810   6.059   8.505  0.3351  0.1502  0.2261
   46CHL1   H25 5876   4.700   6.063   8.491  0.5746 -0.9011 -2.2100
   46CHL1   C26 5877   4.866   6.189   8.449 -0.0917  0.3515 -0.3347
   46CHL1  H26A 5878   4.827   6.278   8.503 -0.2401 -0.1073  0.3251
   46CHL1  H26B 5879   4.976   6.178   8.445 -0.2330 -1.0586 -0.7029
   46CHL1  H26C 5880   4.829   6.195   8.344 -1.0314 -1.2786 -0.1111
   46CHL1   C27 5881   4.851   5.933   8.427  0.9019 -0.4552 -1.3277
   46CHL1  H27A 5882   4.857   5.945   8.317  1.0238  1.0615 -1.1583
   46CHL1  H27B 5883   4.954   5.907   8.461  1.6890  3.3064 -0.6294
   46CHL1  H27C 5884   4.786   5.848   8.457  0.4602 -0.2647 -1.7499
   47CHL1    C3 5885   5.400   2.655  10.214 -0.6164  0.0062 -0.5489
   47CHL1    H3 5886   5.500   2.704  10.221  0.5503 -2.2679 -0.7081
   47CHL1    O3 5887   5.351   2.637  10.346 -1.0092  0.1424  0.1918
   47CHL1   H3' 5888   5.428   2.600  10.389  1.5012  2.5918 -1.9696
   47CHL1    C4 5889   5.293   2.738  10.142  0.2834 -0.5785  0.7499
   47CHL1   H4A 5890   5.201   2.677  10.155  0.2360 -0.5248  0.6633
   47CHL1   H4B 5891   5.284   2.835  10.194 -0.1769 -0.0506 -0.2986
   47CHL1    C5 5892   5.331   2.758   9.996 -0.2355 -0.7227  0.0470
   47CHL1    C6 5893   5.335   2.885   9.946  0.0907  0.4213 -0.4706
   47CHL1    H6 5894   5.320   2.967  10.016 -0.3708  1.2262 -1.5032
   47CHL1    C7 5895   5.372   2.915   9.799  0.3886 -0.2306 -0.5522
   47CHL1   H7A 5896   5.296   2.986   9.759  0.2899 -0.4859 -0.8228
   47CHL1   H7B 5897   5.470   2.967   9.797 -0.3273  1.2096  0.3272
   47CHL1    C8 5898   5.355   2.785   9.714  0.2533 -0.2188 -0.0172
   47CHL1    H8 5899   5.253   2.747   9.693  0.7340 -2.3087  1.3510
   47CHL1   C14 5900   5.425   2.810   9.585  0.2167 -0.5896 -0.4807
   47CHL1   H14 5901   5.528   2.844   9.609 -0.1265  1.0369 -1.1877
   47CHL1   C15 5902   5.382   2.930   9.500 -0.9189 -0.4950 -0.2686
   47CHL1  H15A 5903   5.272   2.926   9.486 -1.3093  0.1614  2.2906
   47CHL1  H15B 5904   5.410   3.032   9.533  0.7786 -1.2882  0.8034
   47CHL1   C16 5905   5.444   2.896   9.359 -0.0049  0.6849 -0.5538
   47CHL1  H16A 5906   5.363   2.898   9.283 -0.8800  2.5393  0.4110
   47CHL1  H16B 5907   5.521   2.974   9.337  2.3967 -1.4724 -0.1270
   47CHL1   C17 5908   5.509   2.754   9.363 -0.0512 -0.7833 -0.5173
   47CHL1   H17 5909   5.615   2.762   9.394 -0.7650  1.6285  1.4384
   47CHL1   C13 5910   5.438   2.693   9.485 -0.6362  0.4366  0.5076
   47CHL1   C18 5911   5.298   2.631   9.441  0.4647  0.8159  0.5573
   47CHL1  H18A 5912   5.313   2.559   9.358  1.2972  0.5254  0.9510
   47CHL1  H18B 5913   5.237   2.590   9.524 -1.1457  5.3251  1.7503
   47CHL1  H18C 5914   5.239   2.715   9.399 -1.3787  0.1321  1.7536
   47CHL1   C12 5915   5.523   2.589   9.566  0.2465  0.2723 -0.6607
   47CHL1  H12A 5916   5.535   2.494   9.510  1.4448 -0.5662  0.9826
   47CHL1  H12B 5917   5.622   2.634   9.590 -0.5905  0.7986  1.9459
   47CHL1   C11 5918   5.463   2.548   9.692  0.2076  0.2176  0.5462
   47CHL1  H11A 5919   5.367   2.501   9.663  0.4358 -1.0820  1.8392
   47CHL1  H11B 5920   5.524   2.468   9.741  0.4043  1.7625  2.9125
   47CHL1    C9 5921   5.437   2.674   9.782 -0.0400  0.2062 -0.1773
   47CHL1    H9 5922   5.533   2.723   9.807 -0.2853 -0.0108  1.2574
   47CHL1   C10 5923   5.378   2.634   9.921  1.1695  0.2360 -0.8484
   47CHL1   C19 5924   5.262   2.538   9.895  0.3471 -0.0983  0.0125
   47CHL1  H19A 5925   5.182   2.549   9.972  0.1378  1.4934 -0.4158
   47CHL1  H19B 5926   5.212   2.544   9.796 -2.5046 -0.4347  1.3920
   47CHL1  H19C 5927   5.302   2.434   9.896  1.8264  0.4573  1.0930
   47CHL1    C1 5928   5.488   2.556  10.005  0.1763 -0.2133  0.4621
   47CHL1   H1A 5929   5.510   2.461   9.951  1.1109  0.4603 -0.3651
   47CHL1   H1B 5930   5.580   2.609  10.037 -0.0200  0.0540  0.5752
   47CHL1    C2 5931   5.426   2.524  10.147  0.2595 -0.0081 -0.0335
   47CHL1   H2A 5932   5.499   2.467  10.209 -2.8597 -2.0247  1.9175
   47CHL1   H2B 5933   5.334   2.464  10.131  0.3968  0.0753 -1.1967
   47CHL1   C20 5934   5.523   2.680   9.230  0.9152 -0.6823  0.1257
   47CHL1   H20 5935   5.420   2.676   9.188  0.4452 -0.8172  1.2744
   47CHL1   C21 5936   5.553   2.533   9.238 -0.2796 -0.3418 -0.6791
   47CHL1  H21A 5937   5.658   2.525   9.273  0.3267  2.2796 -1.7289
   47CHL1  H21B 5938   5.557   2.479   9.141 -0.7946 -0.9660 -0.3499
   47CHL1  H21C 5939   5.489   2.478   9.310  1.1585  0.1487  1.0173
   47CHL1   C22 5940   5.616   2.763   9.129 -0.0082 -0.5214 -0.1459
   47CHL1  H22A 5941   5.559   2.783   9.036 -0.6347  0.5517  0.4571
   47CHL1  H22B 5942   5.655   2.863   9.155 -0.5729 -0.5032  0.6470
   47CHL1   C23 5943   5.745   2.683   9.096 -0.1003  0.7831  0.0129
   47CHL1  H23A 5944   5.819   2.686   9.179  0.2482  0.2759 -0.2749
   47CHL1  H23B 5945   5.731   2.578   9.061 -0.5990  1.0562 -0.6128
   47CHL1   C24 5946   5.815   2.745   8.979  0.0915 -0.3409 -0.0961
   47CHL1  H24A 5947   5.733   2.752   8.904 -1.1404  0.9695  1.3322
   47CHL1  H24B 5948   5.839   2.849   9.008 -0.6310  0.2492 -1.5408
   47CHL1   C25 5949   5.936   2.673   8.920  0.1590  0.1508 -0.8034
   47CHL1   H25 5950   5.908   2.567   8.902  2.5052 -1.0717  2.3163
   47CHL1   C26 5951   5.981   2.736   8.787  0.0935  0.2503 -0.7414
   47CHL1  H26A 5952   6.003   2.844   8.801  0.4081  0.0970  0.0250
   47CHL1  H26B 5953   5.903   2.726   8.709  1.4301  0.2481 -2.1145
   47CHL1  H26C 5954   6.079   2.687   8.765 -1.1652 -2.8574  0.3250
   47CHL1   C27 5955   6.055   2.671   9.018  0.1314 -0.4518 -0.6524
   47CHL1  H27A 5956   6.025   2.688   9.124  3.1721  0.2679  0.1419
   47CHL1  H27B 5957   6.110   2.576   9.006  1.0945  0.1455 -0.9738
   47CHL1  H27C 5958   6.130   2.748   8.992  2.0416 -1.5641  1.3634
   48CHL1    C3 5959   5.844   3.135  10.159  0.5510  0.6193 -0.8772
   48CHL1    H3 5960   5.770   3.210  10.125  1.4664  0.4737 -3.2539
   48CHL1    O3 5961   5.836   3.111  10.297  0.0319 -0.1390  0.3391
   48CHL1   H3' 5962   5.913   3.057  10.316  1.5527  1.1720 -1.8705
   48CHL1    C4 5963   5.821   2.995  10.087  0.2610 -0.2464 -0.3087
   48CHL1   H4A 5964   5.882   2.910  10.124  0.0839 -1.5510 -2.9270
   48CHL1   H4B 5965   5.714   2.969  10.103 -0.5866  1.4311 -2.7961
   48CHL1    C5 5966   5.853   3.014   9.939 -0.0849 -0.0071 -0.4669
   48CHL1    C6 5967   5.758   2.982   9.850 -0.1580 -0.3805  0.6254
   48CHL1    H6 5968   5.666   2.933   9.884 -1.1396 -0.6227 -2.3000
   48CHL1    C7 5969   5.772   2.982   9.699 -0.9998 -0.1173 -1.0612
   48CHL1   H7A 5970   5.737   2.893   9.642 -1.1852  1.2803 -3.1623
   48CHL1   H7B 5971   5.716   3.066   9.653  0.7678  1.5033 -0.3520
   48CHL1    C8 5972   5.922   3.002   9.659 -0.7086  0.2608 -0.4599
   48CHL1    H8 5973   5.972   2.903   9.667  1.4182  1.1273 -2.2659
   48CHL1   C14 5974   5.933   3.031   9.515 -0.3795 -0.8790  0.5089
   48CHL1   H14 5975   5.888   3.131   9.497  2.1159  0.0103 -0.9294
   48CHL1   C15 5976   5.860   2.942   9.408  0.6341 -0.2738  0.0907
   48CHL1  H15A 5977   5.892   2.838   9.426 -0.6049 -0.5283  0.9435
   48CHL1  H15B 5978   5.749   2.953   9.400  0.5218 -2.0349 -1.2582
   48CHL1   C16 5979   5.928   2.985   9.272 -0.0064 -0.4839  0.1784
   48CHL1  H16A 5980   5.967   2.888   9.234 -1.0054 -1.5248  1.6974
   48CHL1  H16B 5981   5.850   3.025   9.204 -1.4409 -1.6344  1.1114
   48CHL1   C17 5982   6.049   3.075   9.305 -0.5515 -0.2198  0.0230
   48CHL1   H17 5983   6.019   3.181   9.296  1.5967  0.4115  0.1492
   48CHL1   C13 5984   6.071   3.056   9.455  0.6126  0.4688 -0.2781
   48CHL1   C18 5985   6.152   2.918   9.473  0.9378 -0.6882 -0.0909
   48CHL1  H18A 5986   6.259   2.933   9.446  0.9566  0.7228  0.7048
   48CHL1  H18B 5987   6.154   2.893   9.581 -1.9252  2.8644  0.9051
   48CHL1  H18C 5988   6.121   2.834   9.407  0.6127 -1.1732  0.6784
   48CHL1   C12 5989   6.139   3.174   9.535 -0.4258 -0.0866  0.0861
   48CHL1  H12A 5990   6.247   3.183   9.508  0.0315 -2.7801  0.8502
   48CHL1  H12B 5991   6.086   3.268   9.508 -1.8329 -0.2558  2.2149
   48CHL1   C11 5992   6.135   3.152   9.690  0.1702  0.4754 -0.1899
   48CHL1  H11A 5993   6.197   3.062   9.707 -0.4876 -0.3682 -2.0733
   48CHL1  H11B 5994   6.179   3.235   9.749 -0.6124 -0.9337  2.4722
   48CHL1    C9 5995   5.991   3.108   9.744 -0.1450  0.2044 -0.2530
   48CHL1    H9 5996   5.926   3.196   9.724  1.6875  1.4428 -0.8698
   48CHL1   C10 5997   5.991   3.072   9.896  0.3729 -0.8008 -0.1107
   48CHL1   C19 5998   6.104   2.970   9.931  0.0589  0.1696  0.5542
   48CHL1  H19A 5999   6.102   2.883   9.861 -0.2735  1.5153 -1.1357
   48CHL1  H19B 6000   6.199   3.027   9.924  1.1704 -1.8452 -1.1103
   48CHL1  H19C 6001   6.105   2.926  10.033  1.7710 -0.0861  0.4492
   48CHL1    C1 6002   5.991   3.205   9.975  0.1360 -0.3919 -0.8226
   48CHL1   H1A 6003   6.079   3.269   9.953 -0.8568  1.4093  0.3430
   48CHL1   H1B 6004   5.905   3.270   9.949 -0.5480  0.2540  2.8492
   48CHL1    C2 6005   5.987   3.183  10.125  0.5292 -0.0372 -0.1201
   48CHL1   H2A 6006   6.024   3.266  10.188 -0.0574  0.7528 -0.8072
   48CHL1   H2B 6007   6.058   3.100  10.142  1.2686  0.0562 -2.5998
   48CHL1   C20 6008   6.169   3.054   9.201  0.0960  0.6150 -0.4966
   48CHL1   H20 6009   6.209   2.950   9.202  0.4701  0.7610  0.1320
   48CHL1   C21 6010   6.287   3.129   9.254 -0.4204  0.0661  0.5727
   48CHL1  H21A 6011   6.361   3.151   9.173 -0.6411  0.4265  0.4671
   48CHL1  H21B 6012   6.350   3.082   9.332 -2.2768 -4.9208 -0.7499
   48CHL1  H21C 6013   6.260   3.236   9.264  1.7154  0.6295  0.6504
   48CHL1   C22 6014   6.119   3.082   9.052  0.1600  0.2475 -0.2560
   48CHL1  H22A 6015   6.030   3.016   9.049 -1.8926  2.9592 -1.5019
   48CHL1  H22B 6016   6.080   3.186   9.055 -0.5436  0.0077 -0.9291
   48CHL1   C23 6017   6.227   3.059   8.948 -0.4495  0.1810  0.2112
   48CHL1  H23A 6018   6.325   3.106   8.973 -0.1148 -2.2525  3.9482
   48CHL1  H23B 6019   6.248   2.950   8.953  1.9517  0.6181  0.3517
   48CHL1   C24 6020   6.187   3.105   8.806 -0.1465  0.5863  0.0520
   48CHL1  H24A 6021   6.095   3.055   8.767  0.7073 -0.1099 -1.1112
   48CHL1  H24B 6022   6.164   3.211   8.828  1.1491  0.8101  0.3655
   48CHL1   C25 6023   6.290   3.099   8.690  0.2704  0.2000  0.5006
   48CHL1   H25 6024   6.385   3.142   8.729  0.3698  0.6308 -0.2035
   48CHL1   C26 6025   6.324   2.956   8.639  0.0986 -0.1121 -0.7435
   48CHL1  H26A 6026   6.391   2.952   8.550  1.4791  1.3292  0.1919
   48CHL1  H26B 6027   6.349   2.896   8.729 -1.3987  0.3109 -0.0290
   48CHL1  H26C 6028   6.230   2.906   8.610 -0.2723  1.3048 -2.0573
   48CHL1   C27 6029   6.250   3.198   8.585  0.8374 -0.6563 -0.0918
   48CHL1  H27A 6030   6.227   3.297   8.630 -1.3234 -0.5233 -1.4025
   48CHL1  H27B 6031   6.340   3.217   8.523 -0.5479  2.8832 -1.1619
   48CHL1  H27C 6032   6.166   3.166   8.520  2.2608 -1.2799 -1.6533
   49CHL1    C3 6033   4.091   5.372  10.058 -0.4316  0.0387 -0.0120
   49CHL1    H3 6034   3.996   5.425  10.033  0.6360  1.5296 -1.0728
   49CHL1    O3 6035   4.090   5.360  10.200  0.6554  0.1848 -0.3731
   49CHL1   H3' 6036   4.182   5.340  10.219  0.4474  0.9769  1.6500
   49CHL1    C4 6037   4.093   5.230   9.996  1.6279  0.4112  0.1429
   49CHL1   H4A 6038   4.188   5.187  10.034  1.0020 -1.7650 -0.6634
   49CHL1   H4B 6039   4.014   5.165  10.039 -0.4951  2.7709 -0.0546
   49CHL1    C5 6040   4.111   5.243   9.844 -0.2807 -0.3151  0.3022
   49CHL1    C6 6041   4.031   5.179   9.759 -0.4670  0.1254  0.6273
   49CHL1    H6 6042   3.947   5.115   9.792  0.8352 -1.6057  0.6649
   49CHL1    C7 6043   4.059   5.181   9.611  0.3032 -0.5082 -0.7640
   49CHL1   H7A 6044   4.026   5.083   9.571 -1.7191 -0.0927 -0.1616
   49CHL1   H7B 6045   3.978   5.247   9.575 -0.7846 -0.2600  1.9674
   49CHL1    C8 6046   4.196   5.237   9.571 -0.1025  0.4903  0.2038
   49CHL1    H8 6047   4.280   5.170   9.600 -1.3860 -1.4669 -0.5233
   49CHL1   C14 6048   4.188   5.251   9.414 -0.0386  0.2489 -0.3971
   49CHL1   H14 6049   4.121   5.337   9.394 -0.1950  0.7624  2.1536
   49CHL1   C15 6050   4.147   5.133   9.320  0.1289 -0.9879  0.9057
   49CHL1  H15A 6051   4.201   5.045   9.360  0.9012 -0.9901 -0.0964
   49CHL1  H15B 6052   4.038   5.115   9.326 -0.0591 -0.1102  0.2723
   49CHL1   C16 6053   4.202   5.181   9.187 -0.1634 -0.7041 -0.3973
   49CHL1  H16A 6054   4.252   5.096   9.134  1.9624  0.1189  0.2445
   49CHL1  H16B 6055   4.119   5.210   9.118  0.7461 -2.6783 -2.4127
   49CHL1   C17 6056   4.288   5.309   9.205 -0.2538  0.0914  0.2207
   49CHL1   H17 6057   4.220   5.393   9.179  0.3291  0.1337 -1.2112
   49CHL1   C13 6058   4.317   5.314   9.356 -0.0586  0.3390 -0.2928
   49CHL1   C18 6059   4.450   5.234   9.385  0.9338  0.2142  0.3592
   49CHL1  H18A 6060   4.538   5.278   9.333  0.0227 -0.6272 -1.9454
   49CHL1  H18B 6061   4.462   5.220   9.495 -1.5346 -3.3428  0.2628
   49CHL1  H18C 6062   4.437   5.131   9.346  0.1429  1.3219 -2.4550
   49CHL1   C12 6063   4.330   5.454   9.423  0.3673 -0.6073 -0.1740
   49CHL1  H12A 6064   4.424   5.506   9.392 -0.2052  0.3054 -0.3767
   49CHL1  H12B 6065   4.248   5.514   9.377  0.7056 -1.0118 -1.3204
   49CHL1   C11 6066   4.338   5.448   9.574  0.1144  0.5561 -0.4854
   49CHL1  H11A 6067   4.436   5.405   9.604 -0.3344 -0.5705 -0.6198
   49CHL1  H11B 6068   4.329   5.552   9.612  0.9554  1.1736 -1.9028
   49CHL1    C9 6069   4.216   5.371   9.638  0.1974  0.0769 -0.0162
   49CHL1    H9 6070   4.128   5.439   9.632  0.5052  0.4169 -0.6724
   49CHL1   C10 6071   4.229   5.343   9.790  0.0832  0.3305  0.1296
   49CHL1   C19 6072   4.370   5.283   9.831  0.4485 -0.3019  0.0917
   49CHL1  H19A 6073   4.361   5.260   9.939 -1.6368  2.1061  0.4780
   49CHL1  H19B 6074   4.383   5.188   9.776  2.6097  0.6039 -1.0455
   49CHL1  H19C 6075   4.456   5.354   9.822  0.6966 -0.7655 -1.2313
   49CHL1    C1 6076   4.212   5.482   9.867 -0.3829  0.2979  0.2413
   49CHL1   H1A 6077   4.303   5.540   9.841  0.5669 -1.7454 -1.1948
   49CHL1   H1B 6078   4.118   5.533   9.838 -0.2229 -0.8773 -2.4840
   49CHL1    C2 6079   4.201   5.472  10.022 -0.6144  0.4203 -0.1588
   49CHL1   H2A 6080   4.190   5.575  10.061  0.7276  0.6959 -0.4837
   49CHL1   H2B 6081   4.303   5.435  10.050 -1.2715 -0.3598  1.2870
   49CHL1   C20 6082   4.396   5.308   9.100  0.2000 -0.5244 -0.2140
   49CHL1   H20 6083   4.471   5.226   9.107 -0.4103 -1.0512  0.2460
   49CHL1   C21 6084   4.481   5.442   9.095  0.0742  0.3538  0.1977
   49CHL1  H21A 6085   4.542   5.443   9.002 -0.7202  1.1627 -0.3241
   49CHL1  H21B 6086   4.545   5.459   9.184 -0.1864  4.4537 -0.2897
   49CHL1  H21C 6087   4.413   5.530   9.086  1.5581  1.4457 -0.7687
   49CHL1   C22 6088   4.326   5.289   8.957  0.3908 -0.0512  0.2844
   49CHL1  H22A 6089   4.235   5.225   8.960 -0.3467  0.9265 -0.9197
   49CHL1  H22B 6090   4.277   5.385   8.932  0.3455 -0.0550  0.3594
   49CHL1   C23 6091   4.419   5.257   8.839  0.3989  0.5173 -0.3451
   49CHL1  H23A 6092   4.492   5.338   8.819  1.3890 -0.3441 -0.2310
   49CHL1  H23B 6093   4.489   5.176   8.867 -1.4374 -1.1666 -0.5446
   49CHL1   C24 6094   4.328   5.227   8.713 -0.0722  0.1179 -0.1538
   49CHL1  H24A 6095   4.295   5.121   8.712  0.1305  0.0402 -2.0631
   49CHL1  H24B 6096   4.237   5.291   8.709 -0.1276  0.0598  0.1503
   49CHL1   C25 6097   4.410   5.244   8.582  0.4712 -1.1669 -0.0255
   49CHL1   H25 6098   4.505   5.189   8.601  0.2187 -1.1027  1.4881
   49CHL1   C26 6099   4.343   5.173   8.458 -0.1190 -0.2427  0.0984
   49CHL1  H26A 6100   4.336   5.064   8.472  1.0296 -0.7791 -2.9785
   49CHL1  H26B 6101   4.239   5.209   8.444 -0.2484 -0.6419  0.0405
   49CHL1  H26C 6102   4.403   5.189   8.365  1.3485 -0.7998  0.9404
   49CHL1   C27 6103   4.446   5.394   8.556  0.7653 -0.3205 -0.6735
   49CHL1  H27A 6104   4.361   5.458   8.522 -0.1120  0.0627  2.1165
   49CHL1  H27B 6105   4.489   5.450   8.641 -2.1812 -2.9313  2.6996
   49CHL1  H27C 6106   4.525   5.400   8.478  0.1503 -0.0489 -1.2841
   50CHL1    C3 6107   0.483   0.413  10.038 -0.1461 -0.5205 -0.5189
   50CHL1    H3 6108   0.420   0.322  10.028 -1.1976  0.0673  0.6814
   50CHL1    O3 6109   0.492   0.446  10.177 -0.2674  0.2879  0.2606
   50CHL1   H3' 6110   0.522   0.537  10.189 -1.1113  0.4543  1.1983
   50CHL1    C4 6111   0.617   0.363   9.988  0.4233 -0.4330 -0.5421
   50CHL1   H4A 6112   0.691   0.445   9.983 -0.5695  0.4492 -0.8492
   50CHL1   H4B 6113   0.653   0.284  10.057  0.0715  0.5332  0.7628
   50CHL1    C5 6114   0.612   0.324   9.845  0.8332 -0.1335  0.2649
   50CHL1    C6 6115   0.661   0.202   9.818 -0.3901 -0.7982  0.2080
   50CHL1    H6 6116   0.699   0.147   9.906  0.8846  1.7849  1.3369
   50CHL1    C7 6117   0.660   0.151   9.676  1.1743 -0.0468 -1.0061
   50CHL1   H7A 6118   0.756   0.097   9.659  0.3998 -2.4690  1.8294
   50CHL1   H7B 6119   0.591   0.065   9.662  1.2026 -0.1161 -0.7325
   50CHL1    C8 6120   0.634   0.254   9.561 -0.2519  0.4918 -0.1788
   50CHL1    H8 6121   0.728   0.308   9.536 -0.4032 -0.7379 -3.7153
   50CHL1   C14 6122   0.590   0.181   9.436  0.2054 -0.6465  0.0544
   50CHL1   H14 6123   0.488   0.146   9.465  0.5870 -1.6943  0.1728
   50CHL1   C15 6124   0.669   0.061   9.388  0.5570 -0.6185 -0.1268
   50CHL1  H15A 6125   0.776   0.091   9.389 -0.1410  1.9794  1.4529
   50CHL1  H15B 6126   0.661  -0.032   9.448  0.8811  0.5578  1.7857
   50CHL1   C16 6127   0.622   0.041   9.243  0.0196 -0.0489  0.2159
   50CHL1  H16A 6128   0.709   0.037   9.175  0.1567 -3.1360  0.4803
   50CHL1  H16B 6129   0.553  -0.047   9.239  1.5962 -1.2094 -2.4823
   50CHL1   C17 6130   0.524   0.164   9.219 -0.1822  0.1572  0.6076
   50CHL1   H17 6131   0.421   0.141   9.254 -0.2082 -1.2112 -0.3337
   50CHL1   C13 6132   0.568   0.274   9.310  0.1199  0.3472 -0.3620
   50CHL1   C18 6133   0.699   0.343   9.263 -0.2048 -0.9276 -0.0294
   50CHL1  H18A 6134   0.770   0.268   9.222  0.0755 -0.5777 -0.1840
   50CHL1  H18B 6135   0.686   0.404   9.171 -0.3118 -2.7000 -1.2322
   50CHL1  H18C 6136   0.752   0.407   9.336 -2.0388 -0.1452  0.6489
   50CHL1   C12 6137   0.454   0.374   9.353 -0.2569  0.5978  0.0119
   50CHL1  H12A 6138   0.443   0.444   9.267  1.3943  2.4784  1.2969
   50CHL1  H12B 6139   0.365   0.311   9.373 -1.6813  2.2953 -0.8009
   50CHL1   C11 6140   0.500   0.446   9.480  0.0270  0.5955  0.4390
   50CHL1  H11A 6141   0.599   0.490   9.455 -0.4047  0.7541 -1.0467
   50CHL1  H11B 6142   0.424   0.517   9.519 -1.2565 -2.0058  2.8230
   50CHL1    C9 6143   0.526   0.353   9.607 -0.0754 -0.6991  0.3532
   50CHL1    H9 6144   0.431   0.294   9.614 -0.5561  0.1746  1.3293
   50CHL1   C10 6145   0.547   0.424   9.745 -0.2216 -0.3251  0.3228
   50CHL1   C19 6146   0.660   0.530   9.719 -0.7067  0.4191  0.0838
   50CHL1  H19A 6147   0.751   0.489   9.670 -0.3182  0.1834  0.9843
   50CHL1  H19B 6148   0.616   0.613   9.661  0.7313  2.3310  1.6537
   50CHL1  H19C 6149   0.685   0.576   9.817 -3.3631 -1.8803  1.9197
   50CHL1    C1 6150   0.417   0.492   9.805  0.0916 -0.8029 -0.0008
   50CHL1   H1A 6151   0.386   0.579   9.743 -1.8256 -2.3258 -1.2364
   50CHL1   H1B 6152   0.328   0.428   9.791 -0.1417 -0.1562 -1.5988
   50CHL1    C2 6153   0.428   0.528   9.954 -0.1220 -0.7113  0.0115
   50CHL1   H2A 6154   0.341   0.581   9.999  0.6652  0.5123  0.1167
   50CHL1   H2B 6155   0.498   0.612   9.971  0.3332 -1.3854  1.5264
   50CHL1   C20 6156   0.495   0.211   9.072 -0.2389  0.4150 -0.1144
   50CHL1   H20 6157   0.496   0.322   9.067  2.5053  0.3261 -4.3453
   50CHL1   C21 6158   0.348   0.175   9.034 -0.8668  0.0729 -0.2369
   50CHL1  H21A 6159   0.326   0.195   8.927  0.7161 -0.4789 -0.6700
   50CHL1  H21B 6160   0.265   0.230   9.084 -1.6573 -1.4665  0.2100
   50CHL1  H21C 6161   0.322   0.066   9.033 -0.8864  0.0831 -1.2340
   50CHL1   C22 6162   0.590   0.151   8.971 -1.2665 -0.4946 -0.4039
   50CHL1  H22A 6163   0.695   0.164   9.005 -1.2214 -0.0829 -0.6961
   50CHL1  H22B 6164   0.556   0.045   8.969 -0.8159 -0.6490 -0.0143
   50CHL1   C23 6165   0.588   0.204   8.824  1.1451  0.7962  0.3638
   50CHL1  H23A 6166   0.628   0.119   8.765  3.9164  1.1516  1.6917
   50CHL1  H23B 6167   0.480   0.223   8.802  0.5754 -0.3400  2.0565
   50CHL1   C24 6168   0.671   0.324   8.785  0.5053  0.2384  0.0396
   50CHL1  H24A 6169   0.642   0.395   8.865  1.4789 -0.9570  1.5024
   50CHL1  H24B 6170   0.780   0.303   8.777  1.0443  2.8366  0.2543
   50CHL1   C25 6171   0.624   0.387   8.653 -0.7261  0.9120  0.8252
   50CHL1   H25 6172   0.517   0.416   8.654 -1.3232 -1.2179  0.2145
   50CHL1   C26 6173   0.698   0.518   8.629  0.1088  0.0085 -0.2879
   50CHL1  H26A 6174   0.806   0.504   8.646 -0.3172 -3.0013  0.1890
   50CHL1  H26B 6175   0.679   0.556   8.526 -1.7771  1.0340  0.4073
   50CHL1  H26C 6176   0.660   0.592   8.703 -2.2911  0.1966 -1.6219
   50CHL1   C27 6177   0.631   0.283   8.542 -0.0899 -0.3242  0.3986
   50CHL1  H27A 6178   0.738   0.255   8.533 -0.5695 -1.6077 -1.6175
   50CHL1  H27B 6179   0.562   0.198   8.560  0.2187 -0.9096 -1.0732
   50CHL1  H27C 6180   0.608   0.326   8.442 -3.2640 -1.3065  0.6414
   51CHL1    C3 6181   1.741   3.294  10.174 -0.3774 -0.5573  0.5313
   51CHL1    H3 6182   1.718   3.190  10.145  0.8185 -1.4760  2.7455
   51CHL1    O3 6183   1.747   3.309  10.316 -0.4623  0.2269  0.3461
   51CHL1   H3' 6184   1.748   3.405  10.325  0.1007  0.2655 -0.0934
   51CHL1    C4 6185   1.874   3.338  10.118  0.4880  0.0428  0.4381
   51CHL1   H4A 6186   1.908   3.438  10.154  0.1276  0.9455 -1.6452
   51CHL1   H4B 6187   1.951   3.268  10.155  0.3481 -0.4547 -0.2161
   51CHL1    C5 6188   1.873   3.353   9.973  0.3707  0.0162 -0.3925
   51CHL1    C6 6189   1.957   3.289   9.896 -0.1445 -0.6581  0.2430
   51CHL1    H6 6190   2.034   3.225   9.943 -1.7778 -4.1034 -1.5579
   51CHL1    C7 6191   1.967   3.275   9.747  0.1159 -0.1347  0.2000
   51CHL1   H7A 6192   2.070   3.297   9.712 -0.4261 -0.8081 -1.8699
   51CHL1   H7B 6193   1.940   3.173   9.713  0.1419 -0.1454  0.2131
   51CHL1    C8 6194   1.881   3.381   9.674 -0.6354  0.3892 -0.3142
   51CHL1    H8 6195   1.938   3.477   9.671 -1.4970  0.8561 -2.3909
   51CHL1   C14 6196   1.850   3.333   9.534 -0.3389 -0.2038  0.8182
   51CHL1   H14 6197   1.790   3.240   9.542 -1.2664  0.3278  0.0695
   51CHL1   C15 6198   1.971   3.283   9.446  0.5547  0.6194 -1.0941
   51CHL1  H15A 6199   2.052   3.358   9.457  1.2324 -0.6218  3.3091
   51CHL1  H15B 6200   2.013   3.184   9.473 -0.6879  1.0965  2.8373
   51CHL1   C16 6201   1.918   3.292   9.304  0.0378 -0.3797  0.4890
   51CHL1  H16A 6202   1.980   3.361   9.243  0.3476 -1.3837 -0.3429
   51CHL1  H16B 6203   1.929   3.191   9.257 -1.1142  0.5473 -1.8636
   51CHL1   C17 6204   1.768   3.354   9.319 -0.7124 -0.1075  0.4362
   51CHL1   H17 6205   1.705   3.263   9.323 -0.1753 -0.4553  1.1902
   51CHL1   C13 6206   1.769   3.431   9.450  0.1432  0.4213  0.0382
   51CHL1   C18 6207   1.845   3.565   9.429  0.0355 -0.3933  0.4149
   51CHL1  H18A 6208   1.855   3.627   9.521  1.4387  1.6746 -1.0564
   51CHL1  H18B 6209   1.941   3.552   9.374 -0.4349 -0.2453 -0.4570
   51CHL1  H18C 6210   1.788   3.629   9.358  0.1905 -0.1687  0.4929
   51CHL1   C12 6211   1.637   3.450   9.528  0.1209  0.6148 -0.0298
   51CHL1  H12A 6212   1.576   3.525   9.473 -0.5344  0.5087  0.5340
   51CHL1  H12B 6213   1.574   3.359   9.517  1.7141 -0.8502  2.4767
   51CHL1   C11 6214   1.656   3.505   9.672  0.1853  0.2744 -0.8124
   51CHL1  H11A 6215   1.704   3.604   9.669  0.6869  0.0213 -1.2162
   51CHL1  H11B 6216   1.556   3.500   9.721  0.7697  0.4898  0.4082
   51CHL1    C9 6217   1.750   3.408   9.754 -0.3027  0.0411 -0.1174
   51CHL1    H9 6218   1.702   3.308   9.746  0.9970 -0.6530  0.6460
   51CHL1   C10 6219   1.758   3.441   9.908  0.7368  0.6692  0.2693
   51CHL1   C19 6220   1.795   3.591   9.919 -0.1747  0.4306 -0.1667
   51CHL1  H19A 6221   1.885   3.611   9.856  1.7641 -2.2301  1.6292
   51CHL1  H19B 6222   1.704   3.653   9.904 -0.5562  0.0042  0.3594
   51CHL1  H19C 6223   1.823   3.616  10.024  0.1953 -1.2636  0.1571
   51CHL1    C1 6224   1.625   3.397   9.971  0.6516 -0.3382 -0.1273
   51CHL1   H1A 6225   1.535   3.452   9.938  0.1421  1.3508  3.8045
   51CHL1   H1B 6226   1.603   3.291   9.948 -2.1494 -0.2477  1.8377
   51CHL1    C2 6227   1.638   3.397  10.127  0.5156 -0.6628 -0.3432
   51CHL1   H2A 6228   1.537   3.385  10.170  0.8230  1.9158  1.1910
   51CHL1   H2B 6229   1.672   3.500  10.150  1.9461 -1.2951  0.4126
   51CHL1   C20 6230   1.716   3.432   9.200  0.2963 -0.3130  0.4882
   51CHL1   H20 6231   1.767   3.530   9.191  0.0494 -0.2502 -0.2177
   51CHL1   C21 6232   1.568   3.460   9.210  0.1781  0.3057  0.1047
   51CHL1  H21A 6233   1.539   3.521   9.122 -1.1935 -0.9096 -0.3043
   51CHL1  H21B 6234   1.541   3.535   9.287 -1.1853  2.4806 -2.4175
   51CHL1  H21C 6235   1.491   3.380   9.214 -1.3595  1.7533 -0.2851
   51CHL1   C22 6236   1.751   3.350   9.070 -0.0744 -0.5561 -0.7232
   51CHL1  H22A 6237   1.861   3.341   9.057 -0.0212  2.1658 -2.7405
   51CHL1  H22B 6238   1.710   3.249   9.087  1.3845 -1.2131 -1.0436
   51CHL1   C23 6239   1.699   3.405   8.931  0.3426  0.3139  0.2463
   51CHL1  H23A 6240   1.719   3.329   8.853  0.2411  0.2089  0.3223
   51CHL1  H23B 6241   1.590   3.423   8.940  0.4558  0.6665  0.9298
   51CHL1   C24 6242   1.764   3.535   8.881 -0.6902  0.5126 -0.9963
   51CHL1  H24A 6243   1.716   3.605   8.953  0.8406  0.3030  0.2615
   51CHL1  H24B 6244   1.875   3.540   8.887 -0.7197 -1.2508  2.7733
   51CHL1   C25 6245   1.711   3.580   8.749  0.0505  1.0085 -0.3450
   51CHL1   H25 6246   1.738   3.509   8.668  1.8469  1.3828 -0.0834
   51CHL1   C26 6247   1.557   3.609   8.745 -0.6810  0.6333 -0.0938
   51CHL1  H26A 6248   1.499   3.515   8.736  1.0713 -0.4545 -0.2276
   51CHL1  H26B 6249   1.523   3.670   8.832  0.7031 -1.3195  1.8722
   51CHL1  H26C 6250   1.549   3.660   8.647 -3.8398  1.3619  0.4791
   51CHL1   C27 6251   1.784   3.708   8.697  0.4739 -0.0282 -0.1546
   51CHL1  H27A 6252   1.888   3.676   8.720  0.8257 -0.3958 -2.1326
   51CHL1  H27B 6253   1.759   3.717   8.589 -0.3400 -1.9515 -0.1547
   51CHL1  H27C 6254   1.764   3.797   8.759 -0.1884 -1.2531  1.4270
   52CHL1    C3 6255   5.496   2.015  10.219 -0.4698  0.1273 -0.5519
   52CHL1    H3 6256   5.388   2.013  10.195 -0.4914 -1.7801 -0.3575
   52CHL1    O3 6257   5.522   2.014  10.359  0.5839 -0.1879  0.6485
   52CHL1   H3' 6258   5.609   1.978  10.379  1.5476  3.1744  2.8585
   52CHL1    C4 6259   5.576   1.900  10.151  0.2745 -0.1665 -0.5863
   52CHL1   H4A 6260   5.682   1.902  10.186  0.1592 -1.4920 -0.1314
   52CHL1   H4B 6261   5.534   1.807  10.195  2.0671  0.1969  2.0496
   52CHL1    C5 6262   5.561   1.919   9.999  0.1145  0.2619 -0.0209
   52CHL1    C6 6263   5.499   1.830   9.919 -0.4291 -0.5221  0.1403
   52CHL1    H6 6264   5.462   1.736   9.964 -3.1868  0.7811  0.7288
   52CHL1    C7 6265   5.482   1.850   9.776 -0.3032 -0.1822  0.2845
   52CHL1   H7A 6266   5.501   1.751   9.727  1.1385  0.4530 -0.4833
   52CHL1   H7B 6267   5.378   1.881   9.755  0.4854  0.6879 -2.5311
   52CHL1    C8 6268   5.590   1.954   9.712 -0.3483 -0.6127 -0.2892
   52CHL1    H8 6269   5.693   1.913   9.726 -0.3779 -1.1118 -1.4848
   52CHL1   C14 6270   5.565   1.972   9.568 -0.0368 -0.0087  0.7933
   52CHL1   H14 6271   5.461   2.011   9.562  0.1750  0.1055 -4.1937
   52CHL1   C15 6272   5.551   1.846   9.476  0.2868  0.5116  0.8382
   52CHL1  H15A 6273   5.636   1.775   9.487  0.5596  0.4848 -1.1252
   52CHL1  H15B 6274   5.456   1.794   9.499  0.9909 -0.4397  1.6601
   52CHL1   C16 6275   5.566   1.906   9.333  0.0034 -0.3072 -0.3719
   52CHL1  H16A 6276   5.657   1.868   9.283 -0.3411  0.6099 -1.7342
   52CHL1  H16B 6277   5.479   1.910   9.264  0.6119 -0.3014 -1.1453
   52CHL1   C17 6278   5.591   2.058   9.360 -0.9864  0.2326  0.9138
   52CHL1   H17 6279   5.493   2.108   9.375  0.1669  3.0155 -0.5581
   52CHL1   C13 6280   5.661   2.070   9.497 -0.4005 -0.1643 -0.4905
   52CHL1   C18 6281   5.803   2.022   9.486  0.1843 -0.6232 -0.3822
   52CHL1  H18A 6282   5.858   2.097   9.425 -0.5946  0.1096 -0.1881
   52CHL1  H18B 6283   5.842   1.999   9.587 -4.2383 -0.6090  1.4319
   52CHL1  H18C 6284   5.812   1.930   9.424 -0.5580  1.2808 -3.4163
   52CHL1   C12 6285   5.640   2.211   9.574  0.2284 -0.1475  0.3526
   52CHL1  H12A 6286   5.682   2.299   9.521 -0.1469  1.5031  2.7598
   52CHL1  H12B 6287   5.530   2.226   9.574  0.2423 -0.0107  2.0701
   52CHL1   C11 6288   5.672   2.196   9.720  0.1156 -0.9312  0.4674
   52CHL1  H11A 6289   5.780   2.173   9.714 -0.2448 -2.2881 -1.5280
   52CHL1  H11B 6290   5.653   2.294   9.768 -0.9354 -0.0350 -1.6993
   52CHL1    C9 6291   5.588   2.082   9.787 -0.5355  0.5685 -0.1120
   52CHL1    H9 6292   5.485   2.121   9.774 -0.5790  0.1379 -1.1376
   52CHL1   C10 6293   5.612   2.050   9.939 -0.7225  0.0314  0.3184
   52CHL1   C19 6294   5.769   2.058   9.959  0.3885  0.3455 -0.2912
   52CHL1  H19A 6295   5.824   2.004   9.880 -1.9344 -2.5255 -0.0292
   52CHL1  H19B 6296   5.798   2.165   9.959 -1.1796  0.8149 -2.5050
   52CHL1  H19C 6297   5.791   2.020  10.061 -0.0505 -0.9173 -0.6614
   52CHL1    C1 6298   5.538   2.154  10.013 -0.3944 -0.2536  0.3209
   52CHL1   H1A 6299   5.566   2.257   9.980  0.9557 -0.6031  0.3491
   52CHL1   H1B 6300   5.431   2.151   9.985 -0.2814 -1.1328 -0.0171
   52CHL1    C2 6301   5.547   2.148  10.166  0.7789  0.0624  0.3806
   52CHL1   H2A 6302   5.497   2.234  10.215  2.8799  0.3520  2.0802
   52CHL1   H2B 6303   5.654   2.151  10.194  0.8793 -1.4462  0.2067
   52CHL1   C20 6304   5.655   2.131   9.238 -0.0431  0.1496 -0.3666
   52CHL1   H20 6305   5.710   2.219   9.277  0.8931 -0.3027 -0.6626
   52CHL1   C21 6306   5.545   2.200   9.162 -0.2792 -0.0723 -0.0992
   52CHL1  H21A 6307   5.484   2.264   9.229  0.7005  0.5388  0.2278
   52CHL1  H21B 6308   5.480   2.131   9.105 -0.2119  1.5776 -2.2427
   52CHL1  H21C 6309   5.598   2.267   9.091  3.3027 -1.9904  0.6312
   52CHL1   C22 6310   5.760   2.064   9.139  0.5285  0.9712 -0.8669
   52CHL1  H22A 6311   5.848   2.028   9.196  0.4042 -0.6443 -1.6690
   52CHL1  H22B 6312   5.712   1.972   9.100  1.8158 -0.0527 -0.0880
   52CHL1   C23 6313   5.809   2.157   9.032 -0.8229 -0.0962  0.2223
   52CHL1  H23A 6314   5.725   2.166   8.959  0.4144  0.8184 -1.1246
   52CHL1  H23B 6315   5.841   2.259   9.062 -2.1259  0.4631 -0.2484
   52CHL1   C24 6316   5.935   2.103   8.958 -0.5535  0.2944  0.5492
   52CHL1  H24A 6317   6.009   2.077   9.037 -0.6716  0.7086  0.8009
   52CHL1  H24B 6318   5.902   2.013   8.902 -0.5881  0.1255  0.8403
   52CHL1   C25 6319   5.999   2.201   8.856 -0.4044  0.4711 -0.4653
   52CHL1   H25 6320   6.009   2.295   8.914  1.0858 -0.7939  1.3697
   52CHL1   C26 6321   6.136   2.159   8.814 -0.1510  0.3042 -0.2428
   52CHL1  H26A 6322   6.182   2.240   8.753  0.4410  0.6308  0.6175
   52CHL1  H26B 6323   6.204   2.139   8.900 -0.4716 -0.6088 -0.2013
   52CHL1  H26C 6324   6.131   2.071   8.747 -1.0043 -1.4063  2.0045
   52CHL1   C27 6325   5.919   2.229   8.726  0.1174 -0.2379 -0.3833
   52CHL1  H27A 6326   5.833   2.294   8.753  0.0588  0.7640 -2.8090
   52CHL1  H27B 6327   5.979   2.290   8.656 -0.2717  1.0816  0.4136
   52CHL1  H27C 6328   5.879   2.134   8.683 -2.1363 -0.5027  2.1318
   53CHL1    C3 6329   6.421   1.323  10.032 -0.4528 -0.4771  0.3383
   53CHL1    H3 6330   6.424   1.434  10.037 -0.3588 -0.4206 -0.9463
   53CHL1    O3 6331   6.400   1.271  10.172  0.6480 -0.2418  0.2917
   53CHL1   H3' 6332   6.447   1.188  10.173  2.0791  0.4461 -2.8988
   53CHL1    C4 6333   6.311   1.275   9.945 -0.2190  0.3073  0.1866
   53CHL1   H4A 6334   6.301   1.166   9.964  0.8610 -0.0416 -1.2019
   53CHL1   H4B 6335   6.217   1.319   9.984  0.1305  0.7216  0.5608
   53CHL1    C5 6336   6.326   1.305   9.797 -0.8761 -0.2556 -0.3237
   53CHL1    C6 6337   6.229   1.371   9.725  0.0288  0.0323 -0.3784
   53CHL1    H6 6338   6.125   1.384   9.760 -0.4882  2.3967 -2.5843
   53CHL1    C7 6339   6.248   1.410   9.583 -0.2083  0.0457 -0.3806
   53CHL1   H7A 6340   6.160   1.373   9.526 -0.0013  0.6459 -1.0975
   53CHL1   H7B 6341   6.248   1.520   9.567 -0.3898  0.3584  1.6897
   53CHL1    C8 6342   6.372   1.337   9.516 -0.1459 -0.1475 -0.3316
   53CHL1    H8 6343   6.341   1.231   9.507  1.2055 -0.4046 -2.2217
   53CHL1   C14 6344   6.401   1.394   9.375  0.0369  0.8502 -0.4240
   53CHL1   H14 6345   6.411   1.503   9.389 -1.1473  0.9286 -0.1365
   53CHL1   C15 6346   6.291   1.369   9.258 -0.5158 -0.5111 -0.0894
   53CHL1  H15A 6347   6.246   1.268   9.273  0.6211 -0.6971  2.4540
   53CHL1  H15B 6348   6.214   1.448   9.267 -1.1784 -1.2927  1.3737
   53CHL1   C16 6349   6.375   1.397   9.131  0.4351 -0.6337  0.1579
   53CHL1  H16A 6350   6.359   1.325   9.048 -1.2644 -0.1839  0.0731
   53CHL1  H16B 6351   6.356   1.501   9.098  1.0402 -0.1031  1.4506
   53CHL1   C17 6352   6.521   1.410   9.177 -0.1715 -0.1276 -0.6031
   53CHL1   H17 6353   6.541   1.518   9.189 -0.1144 -0.1576 -0.4354
   53CHL1   C13 6354   6.532   1.348   9.312 -0.5887 -0.5134  0.4724
   53CHL1   C18 6355   6.525   1.195   9.296 -0.1961 -0.3273  0.5248
   53CHL1  H18A 6356   6.490   1.135   9.383  0.6758 -0.5379  0.7329
   53CHL1  H18B 6357   6.469   1.177   9.202 -0.3019  1.0791  0.3125
   53CHL1  H18C 6358   6.625   1.149   9.281  1.1200  2.1126  1.5487
   53CHL1   C12 6359   6.645   1.387   9.401  0.0233 -0.8176 -0.3614
   53CHL1  H12A 6360   6.743   1.355   9.358  0.7465  0.4150  0.3401
   53CHL1  H12B 6361   6.642   1.498   9.407  1.2731 -0.6379 -2.2861
   53CHL1   C11 6362   6.630   1.334   9.544 -0.4432  0.3864  0.0703
   53CHL1  H11A 6363   6.643   1.224   9.541 -1.5290  0.1979  1.6763
   53CHL1  H11B 6364   6.713   1.371   9.608 -0.9309 -1.3100  1.7555
   53CHL1    C9 6365   6.492   1.359   9.608 -0.0096  0.2890 -0.8760
   53CHL1    H9 6366   6.491   1.468   9.632  3.7994  0.4666 -1.3700
   53CHL1   C10 6367   6.466   1.286   9.746 -0.0496 -0.5591  0.1834
   53CHL1   C19 6368   6.482   1.134   9.729  1.3957  0.5514  0.2494
   53CHL1  H19A 6369   6.415   1.101   9.648  1.0223  0.4878  0.5796
   53CHL1  H19B 6370   6.579   1.088   9.702  0.6051 -0.5393 -0.7636
   53CHL1  H19C 6371   6.450   1.082   9.822 -1.5483 -0.6935 -1.4040
   53CHL1    C1 6372   6.573   1.333   9.848  0.1586 -0.0367 -0.6117
   53CHL1   H1A 6373   6.667   1.280   9.821 -1.4733 -2.8221 -1.0428
   53CHL1   H1B 6374   6.587   1.443   9.845  1.3496 -0.1937 -0.8875
   53CHL1    C2 6375   6.556   1.278   9.984 -0.1090 -0.1707  0.2552
   53CHL1   H2A 6376   6.640   1.312  10.049 -0.2376  0.1873  0.2402
   53CHL1   H2B 6377   6.567   1.168   9.989  0.3423 -0.1904 -0.9622
   53CHL1   C20 6378   6.608   1.364   9.059 -1.2949  0.3301 -0.0400
   53CHL1   H20 6379   6.602   1.253   9.056  1.9355  0.0540  0.7470
   53CHL1   C21 6380   6.759   1.399   9.080  0.7767  0.1755 -0.1603
   53CHL1  H21A 6381   6.812   1.367   8.988 -1.6579 -1.5029 -1.0384
   53CHL1  H21B 6382   6.806   1.336   9.158  1.5794  0.8882 -0.0709
   53CHL1  H21C 6383   6.767   1.506   9.110  0.9095  0.3654 -0.8678
   53CHL1   C22 6384   6.567   1.420   8.919  0.4447  0.6145 -0.2819
   53CHL1  H22A 6385   6.463   1.459   8.921  0.9049  1.7998  0.5629
   53CHL1  H22B 6386   6.630   1.510   8.901  2.5929 -0.7231  0.3589
   53CHL1   C23 6387   6.592   1.324   8.805  0.1979 -0.3820  0.4182
   53CHL1  H23A 6388   6.699   1.292   8.801 -0.5251 -2.6997 -0.9152
   53CHL1  H23B 6389   6.524   1.237   8.818  0.5122 -0.7207 -0.1964
   53CHL1   C24 6390   6.572   1.386   8.668 -0.1626 -0.7058 -0.2128
   53CHL1  H24A 6391   6.472   1.434   8.677  0.2733 -0.0756  1.6523
   53CHL1  H24B 6392   6.651   1.462   8.648 -1.3438  0.2375 -1.4233
   53CHL1   C25 6393   6.575   1.285   8.552 -0.5462 -0.1915 -0.1793
   53CHL1   H25 6394   6.657   1.214   8.575 -1.0779 -0.7161  0.0878
   53CHL1   C26 6395   6.443   1.203   8.550 -0.1902 -0.0677 -0.2184
   53CHL1  H26A 6396   6.405   1.176   8.651  2.1890  0.1165  0.7576
   53CHL1  H26B 6397   6.364   1.264   8.501  1.8019  1.8558 -1.1514
   53CHL1  H26C 6398   6.460   1.116   8.483  3.0517 -0.0918  0.5400
   53CHL1   C27 6399   6.596   1.358   8.414 -0.0205 -0.2746 -0.0192
   53CHL1  H27A 6400   6.699   1.398   8.406 -0.2625  0.2065 -0.7453
   53CHL1  H27B 6401   6.573   1.290   8.330  1.8989  0.8396 -1.4679
   53CHL1  H27C 6402   6.535   1.450   8.407 -1.2881 -1.1212 -0.2417
   54CHL1    C3 6403   6.541   2.716  10.086 -0.7672 -0.7962 -0.5771
   54CHL1    H3 6404   6.467   2.797  10.068 -0.3302 -0.1458  0.5357
   54CHL1    O3 6405   6.528   2.675  10.215  0.0830 -0.0539 -1.0533
   54CHL1   H3' 6406   6.505   2.756  10.261  0.0159 -0.0659 -1.0669
   54CHL1    C4 6407   6.517   2.595   9.998  0.2051 -0.4642  0.3308
   54CHL1   H4A 6408   6.595   2.522  10.032  1.5493  0.4033 -0.8182
   54CHL1   H4B 6409   6.417   2.549  10.006  0.1130 -0.5095 -0.9848
   54CHL1    C5 6410   6.551   2.615   9.850  0.2462 -0.7263 -0.5698
   54CHL1    C6 6411   6.450   2.591   9.765 -0.2818  0.3245  0.4450
   54CHL1    H6 6412   6.361   2.537   9.802 -0.9062  1.2118  0.2339
   54CHL1    C7 6413   6.456   2.634   9.621 -0.2764 -0.4066  0.3597
   54CHL1   H7A 6414   6.420   2.549   9.558 -2.3688 -0.6640  1.8533
   54CHL1   H7B 6415   6.378   2.708   9.595 -2.8616 -3.1104  0.2123
   54CHL1    C8 6416   6.595   2.683   9.570  0.0456  0.2505  0.4091
   54CHL1    H8 6417   6.655   2.595   9.535  0.2789  1.4757 -2.3773
   54CHL1   C14 6418   6.578   2.769   9.450  0.7285  0.2649  0.4496
   54CHL1   H14 6419   6.529   2.862   9.487 -0.7674  0.7202 -2.5085
   54CHL1   C15 6420   6.492   2.723   9.329  0.6071 -0.6105  0.5586
   54CHL1  H15A 6421   6.515   2.615   9.313 -2.0705 -1.4261  1.8566
   54CHL1  H15B 6422   6.382   2.739   9.341  0.8843  2.8645 -0.9527
   54CHL1   C16 6423   6.527   2.830   9.222  0.6724  0.3160 -0.0150
   54CHL1  H16A 6424   6.543   2.786   9.121  0.7772 -0.0657  0.1671
   54CHL1  H16B 6425   6.448   2.904   9.198  1.4013  0.7985 -0.9899
   54CHL1   C17 6426   6.655   2.903   9.265 -0.6706  0.0772  0.2232
   54CHL1   H17 6427   6.629   3.003   9.305 -1.4482 -0.8580  2.1232
   54CHL1   C13 6428   6.705   2.823   9.386  0.2275  0.0418  0.7279
   54CHL1   C18 6429   6.789   2.703   9.327  0.8091  0.1518  0.3238
   54CHL1  H18A 6430   6.885   2.752   9.299  0.3016  1.9239  1.6100
   54CHL1  H18B 6431   6.820   2.626   9.400  2.0511 -0.2082 -0.5704
   54CHL1  H18C 6432   6.734   2.653   9.244 -0.1818  0.8807  0.5298
   54CHL1   C12 6433   6.779   2.895   9.500 -0.0796 -0.4782 -0.6778
   54CHL1  H12A 6434   6.882   2.918   9.467 -0.0065 -1.2740 -1.0132
   54CHL1  H12B 6435   6.730   2.991   9.527  0.5685 -0.2704 -0.2388
   54CHL1   C11 6436   6.803   2.805   9.622 -0.4864 -0.3051 -0.7730
   54CHL1  H11A 6437   6.867   2.715   9.608  1.3762  0.6924  0.9902
   54CHL1  H11B 6438   6.848   2.870   9.700  0.4979  0.4576 -1.9637
   54CHL1    C9 6439   6.667   2.761   9.681  0.5164  0.1192  0.5021
   54CHL1    H9 6440   6.603   2.851   9.689  2.5398  1.4812  1.6158
   54CHL1   C10 6441   6.672   2.690   9.819 -0.1797 -0.1231 -0.1760
   54CHL1   C19 6442   6.789   2.583   9.833 -0.2465  0.4297  0.3526
   54CHL1  H19A 6443   6.883   2.640   9.845  0.6367 -0.9378  0.0724
   54CHL1  H19B 6444   6.780   2.507   9.914 -0.9645 -0.6355 -0.7091
   54CHL1  H19C 6445   6.786   2.521   9.740 -1.3847  0.9731  0.0106
   54CHL1    C1 6446   6.694   2.808   9.915  0.0716 -0.2296 -0.3724
   54CHL1   H1A 6447   6.799   2.842   9.903 -0.0134 -0.1655 -0.9485
   54CHL1   H1B 6448   6.621   2.890   9.902  0.6185 -0.1126 -3.0676
   54CHL1    C2 6449   6.681   2.774  10.065  0.1484 -0.5960 -0.2803
   54CHL1   H2A 6450   6.703   2.868  10.120  2.7551 -0.4764 -1.4608
   54CHL1   H2B 6451   6.758   2.702  10.102 -0.3645  0.4048  2.9231
   54CHL1   C20 6452   6.744   2.932   9.149  0.0369  0.0350  0.0505
   54CHL1   H20 6453   6.789   2.841   9.103 -1.5984 -0.6385 -0.2384
   54CHL1   C21 6454   6.860   3.020   9.198 -0.0638  0.2385  0.2489
   54CHL1  H21A 6455   6.826   3.124   9.219  1.4819  0.8542 -0.2054
   54CHL1  H21B 6456   6.930   3.041   9.114  0.7298  0.1567  0.8828
   54CHL1  H21C 6457   6.930   2.979   9.273 -0.3369 -1.5095 -0.4373
   54CHL1   C22 6458   6.667   3.001   9.036  0.2850 -0.3652  0.8411
   54CHL1  H22A 6459   6.564   2.966   9.018  0.9311 -1.0195 -1.7119
   54CHL1  H22B 6460   6.671   3.110   9.058  3.1743 -0.5726  1.6007
   54CHL1   C23 6461   6.740   2.991   8.897 -0.1785 -0.1415 -0.1186
   54CHL1  H23A 6462   6.702   3.069   8.829 -1.7411  0.4531  1.3985
   54CHL1  H23B 6463   6.847   3.018   8.908 -0.0572 -0.6248 -0.1100
   54CHL1   C24 6464   6.735   2.854   8.835 -0.8936 -0.3254 -0.4789
   54CHL1  H24A 6465   6.774   2.772   8.900 -0.7698 -0.6511 -0.9632
   54CHL1  H24B 6466   6.628   2.830   8.817 -1.3819  1.7422 -0.4694
   54CHL1   C25 6467   6.813   2.854   8.700 -0.8288 -0.1120 -0.3086
   54CHL1   H25 6468   6.782   2.946   8.645 -2.4613 -0.3670  0.1516
   54CHL1   C26 6469   6.960   2.838   8.716  0.2330 -0.3589 -0.1009
   54CHL1  H26A 6470   6.992   2.737   8.748 -0.7371 -0.9374 -0.9160
   54CHL1  H26B 6471   7.018   2.863   8.624 -0.4742  0.6108 -0.2855
   54CHL1  H26C 6472   7.001   2.906   8.793 -2.3690  2.3609 -1.0018
   54CHL1   C27 6473   6.758   2.731   8.623  0.0156 -0.1206 -0.0453
   54CHL1  H27A 6474   6.747   2.646   8.693 -0.8343 -0.7790 -0.9754
   54CHL1  H27B 6475   6.657   2.753   8.583 -0.6314 -0.5812  1.2836
   54CHL1  H27C 6476   6.825   2.703   8.539  0.1438  0.8523 -0.2738
   55CHL1    C3 6477   0.419   6.801  10.076 -0.3192  0.3166 -0.3882
   55CHL1    H3 6478   0.474   6.892  10.046 -1.6025  2.7062  4.0556
   55CHL1    O3 6479   0.437   6.794  10.217 -0.0172 -0.2401  0.0538
   55CHL1   H3' 6480   0.395   6.877  10.240 -1.6724 -0.7366 -1.1201
   55CHL1    C4 6481   0.271   6.829  10.042  0.2615  0.5893 -0.7627
   55CHL1   H4A 6482   0.219   6.746  10.097 -0.0013 -0.2843 -2.3083
   55CHL1   H4B 6483   0.237   6.928  10.077  2.8175  1.2777 -0.1343
   55CHL1    C5 6484   0.241   6.824   9.893  0.7621  0.3478  0.9916
   55CHL1    C6 6485   0.182   6.926   9.828  0.2383 -0.5584 -0.4916
   55CHL1    H6 6486   0.137   7.006   9.889  1.4192 -0.3818  0.1640
   55CHL1    C7 6487   0.164   6.928   9.677  0.0721 -0.0133  0.5771
   55CHL1   H7A 6488   0.067   6.968   9.641  2.2510  3.8040 -1.2826
   55CHL1   H7B 6489   0.236   7.000   9.632  0.4607 -0.0356  1.1530
   55CHL1    C8 6490   0.169   6.793   9.605 -0.1198 -0.6708  0.4220
   55CHL1    H8 6491   0.080   6.732   9.633 -0.0274  0.3115  3.0452
   55CHL1   C14 6492   0.172   6.803   9.457 -0.6297  0.0366  0.6686
   55CHL1   H14 6493   0.266   6.859   9.437 -1.0894  0.2810 -0.8926
   55CHL1   C15 6494   0.058   6.881   9.388  0.1601  0.1184 -0.2625
   55CHL1  H15A 6495  -0.045   6.870   9.428 -0.0802 -2.0340 -1.3804
   55CHL1  H15B 6496   0.083   6.988   9.378 -2.7393  0.7347 -1.3712
   55CHL1   C16 6497   0.060   6.830   9.240 -0.2475  0.0083  0.4083
   55CHL1  H16A 6498  -0.034   6.782   9.204  0.5928  1.3136 -3.8603
   55CHL1  H16B 6499   0.076   6.918   9.175 -0.5196  0.8852  1.5237
   55CHL1   C17 6500   0.172   6.727   9.231  0.1891 -0.2322  0.2730
   55CHL1   H17 6501   0.264   6.789   9.237 -0.9871  1.8164 -2.0082
   55CHL1   C13 6502   0.179   6.666   9.373 -0.3961 -0.5290 -0.3319
   55CHL1   C18 6503   0.053   6.581   9.401  0.2267  0.1341  0.8328
   55CHL1  H18A 6504   0.040   6.567   9.510 -2.9327  0.5586  0.5556
   55CHL1  H18B 6505  -0.039   6.618   9.350 -0.2848 -0.4168  1.3487
   55CHL1  H18C 6506   0.082   6.486   9.351  0.7534 -0.3675  2.0730
   55CHL1   C12 6507   0.301   6.588   9.426 -0.4648  0.1711  0.2743
   55CHL1  H12A 6508   0.302   6.489   9.374  0.1802  0.3409 -0.0412
   55CHL1  H12B 6509   0.394   6.631   9.385 -0.2008  0.3413  1.0561
   55CHL1   C11 6510   0.308   6.577   9.576 -0.0700  0.4262 -0.6029
   55CHL1  H11A 6511   0.231   6.507   9.612 -0.1446  1.2040  0.7820
   55CHL1  H11B 6512   0.403   6.540   9.621 -0.0181  1.9552  0.6005
   55CHL1    C9 6513   0.298   6.713   9.655  0.7540 -0.1879 -0.3443
   55CHL1    H9 6514   0.381   6.774   9.612  1.7424 -0.8031  0.6599
   55CHL1   C10 6515   0.305   6.701   9.818 -0.3215 -0.1828 -0.2426
   55CHL1   C19 6516   0.225   6.574   9.860  0.4702 -0.0271  0.0433
   55CHL1  H19A 6517   0.227   6.567   9.971  1.8050  4.3610  0.3939
   55CHL1  H19B 6518   0.122   6.567   9.819 -0.2931  1.2767  1.6827
   55CHL1  H19C 6519   0.265   6.478   9.822  0.9780 -0.5607  1.8536
   55CHL1    C1 6520   0.452   6.669   9.863  0.6003  0.3632 -0.6652
   55CHL1   H1A 6521   0.471   6.563   9.836 -1.0939 -1.3639  4.3396
   55CHL1   H1B 6522   0.522   6.737   9.810  1.2646 -0.0892 -0.3758
   55CHL1    C2 6523   0.478   6.677  10.012 -0.0750  0.6583  0.0915
   55CHL1   H2A 6524   0.587   6.664  10.023 -0.1229 -0.5354 -0.8119
   55CHL1   H2B 6525   0.432   6.587  10.059 -0.3853 -0.3616 -2.1065
   55CHL1   C20 6526   0.173   6.626   9.117  1.0216 -0.1935  0.1254
   55CHL1   H20 6527   0.108   6.537   9.137 -0.3939  1.5111  3.6609
   55CHL1   C21 6528   0.307   6.560   9.094 -0.5083 -0.8656 -0.3496
   55CHL1  H21A 6529   0.341   6.499   9.180 -1.0167 -2.1124 -1.0176
   55CHL1  H21B 6530   0.384   6.638   9.071 -3.2094  2.1489  0.4533
   55CHL1  H21C 6531   0.314   6.500   9.001  0.4921  0.7397 -1.3315
   55CHL1   C22 6532   0.120   6.685   8.985  0.0025 -0.5309  0.1460
   55CHL1  H22A 6533   0.109   6.795   8.991  5.1416  0.0366  1.9267
   55CHL1  H22B 6534   0.203   6.666   8.913  0.3655 -2.8153  1.1407
   55CHL1   C23 6535  -0.011   6.624   8.932  0.4048 -0.3947  0.1334
   55CHL1  H23A 6536   0.009   6.518   8.903 -0.6262 -0.5843  0.0875
   55CHL1  H23B 6537  -0.088   6.623   9.012 -0.7928 -1.1956 -0.9950
   55CHL1   C24 6538  -0.074   6.688   8.800  0.2717 -0.4961 -0.6822
   55CHL1  H24A 6539  -0.172   6.639   8.780  0.0842 -0.2603 -0.3553
   55CHL1  H24B 6540  -0.092   6.796   8.814 -0.5768 -0.7309  0.0731
   55CHL1   C25 6541   0.026   6.683   8.680 -0.1037 -0.4830  0.1912
   55CHL1   H25 6542   0.115   6.738   8.717  0.5975 -0.6471 -1.2364
   55CHL1   C26 6543   0.060   6.549   8.627 -0.6810  0.6198  0.6499
   55CHL1  H26A 6544  -0.026   6.498   8.578 -0.0529  1.9488 -1.8778
   55CHL1  H26B 6545   0.135   6.569   8.548 -0.7026 -1.9730 -0.0857
   55CHL1  H26C 6546   0.101   6.492   8.713 -0.6870  0.3029  0.4433
   55CHL1   C27 6547  -0.035   6.771   8.562 -0.7278  0.4052  0.1314
   55CHL1  H27A 6548  -0.012   6.878   8.584  0.9582  0.3622 -1.3019
   55CHL1  H27B 6549   0.028   6.755   8.472 -0.2820 -2.6828  0.9385
   55CHL1  H27C 6550  -0.143   6.763   8.537  0.1545  1.1294 -4.2908
   56CHL1    C3 6551   4.936   5.039  10.034  1.0532 -0.3209  0.1137
   56CHL1    H3 6552   5.043   5.010  10.042  1.7069  1.9280  0.0441
   56CHL1    O3 6553   4.881   5.053  10.165 -0.2556 -0.2588  0.2003
   56CHL1   H3' 6554   4.923   4.986  10.219 -2.7321 -0.3089  2.1321
   56CHL1    C4 6555   4.941   5.179   9.982 -0.8568 -0.5551 -0.3296
   56CHL1   H4A 6556   4.848   5.236  10.004 -0.5256  0.0563 -0.5015
   56CHL1   H4B 6557   5.025   5.223  10.040 -1.8263 -0.3741  0.9594
   56CHL1    C5 6558   4.964   5.189   9.834 -0.3082  0.2364  0.3134
   56CHL1    C6 6559   5.060   5.265   9.780 -0.0853  0.0997  0.4477
   56CHL1    H6 6560   5.113   5.328   9.852 -3.3673  1.6900  1.5932
   56CHL1    C7 6561   5.097   5.277   9.635  0.3502 -0.0489  0.4641
   56CHL1   H7A 6562   5.129   5.381   9.615  2.2390 -0.6705  0.0653
   56CHL1   H7B 6563   5.192   5.221   9.617  0.6666  0.8178 -0.5840
   56CHL1    C8 6564   4.980   5.223   9.552 -0.6641  0.0587 -0.8853
   56CHL1    H8 6565   4.904   5.301   9.575  0.3521  0.8900 -0.2970
   56CHL1   C14 6566   5.012   5.219   9.402  0.0141 -0.3812 -1.1132
   56CHL1   H14 6567   5.084   5.134   9.398 -0.9922 -1.2545 -1.0716
   56CHL1   C15 6568   5.065   5.347   9.339  0.0211 -0.0447  0.2460
   56CHL1  H15A 6569   5.001   5.434   9.366  2.0300  2.1223 -1.7680
   56CHL1  H15B 6570   5.168   5.375   9.368 -0.1631  1.9254 -0.8894
   56CHL1   C16 6571   5.047   5.320   9.190  0.0582  0.1853  0.5520
   56CHL1  H16A 6572   4.999   5.408   9.142  0.0877  0.6774  1.4190
   56CHL1  H16B 6573   5.143   5.308   9.135 -0.2250  0.9106 -0.1126
   56CHL1   C17 6574   4.970   5.189   9.174  0.3830  0.3164  0.5458
   56CHL1   H17 6575   5.048   5.110   9.163 -1.1402 -0.7926 -3.5086
   56CHL1   C13 6576   4.903   5.176   9.309  0.4185  0.0990 -0.1717
   56CHL1   C18 6577   4.779   5.270   9.312  0.3205  0.2716 -0.4070
   56CHL1  H18A 6578   4.707   5.232   9.236 -1.7013  2.3497  0.4025
   56CHL1  H18B 6579   4.741   5.266   9.417 -1.0415 -2.0347 -0.9380
   56CHL1  H18C 6580   4.798   5.375   9.284  0.3234  0.6334  0.8988
   56CHL1   C12 6581   4.876   5.034   9.350  0.4632 -0.0572  0.1834
   56CHL1  H12A 6582   4.792   4.990   9.292  0.0162  1.6978 -0.5236
   56CHL1  H12B 6583   4.965   4.966   9.349 -0.2882 -1.0364 -0.8591
   56CHL1   C11 6584   4.827   5.021   9.500  0.1502  0.3899  0.2466
   56CHL1  H11A 6585   4.735   5.082   9.507 -1.0746 -1.3463 -0.4951
   56CHL1  H11B 6586   4.802   4.916   9.523  1.6730  0.1567  0.9307
   56CHL1    C9 6587   4.928   5.086   9.599 -0.1572 -0.2439  0.5593
   56CHL1    H9 6588   5.018   5.021   9.594 -0.3243 -0.4487  0.1986
   56CHL1   C10 6589   4.879   5.097   9.745  0.8986 -0.5931  0.6496
   56CHL1   C19 6590   4.734   5.148   9.744  0.2158 -0.1591  0.3834
   56CHL1  H19A 6591   4.731   5.245   9.691  1.7536 -0.1628  0.2541
   56CHL1  H19B 6592   4.656   5.085   9.694  1.8670 -1.2073 -0.9444
   56CHL1  H19C 6593   4.687   5.178   9.840 -0.2126 -1.8879  0.7373
   56CHL1    C1 6594   4.882   4.952   9.802 -0.2888 -0.1373 -0.2218
   56CHL1   H1A 6595   4.807   4.882   9.758 -2.6278  2.3697 -0.3329
   56CHL1   H1B 6596   4.979   4.901   9.786  0.1980  0.1241  1.8224
   56CHL1    C2 6597   4.855   4.945   9.950  0.8516  0.7133 -0.9689
   56CHL1   H2A 6598   4.868   4.841   9.988  1.5578  0.9504 -0.5538
   56CHL1   H2B 6599   4.748   4.976   9.956  0.1502 -1.2281 -2.6363
   56CHL1   C20 6600   4.889   5.174   9.044  0.7332  0.3739 -0.0900
   56CHL1   H20 6601   4.814   5.256   9.036 -1.4459 -1.7311 -2.4311
   56CHL1   C21 6602   4.810   5.041   9.032 -0.9976 -0.4046 -0.3191
   56CHL1  H21A 6603   4.883   4.959   9.049 -2.2458 -1.4034  0.2618
   56CHL1  H21B 6604   4.762   5.018   8.935  1.3867  0.0813 -1.6501
   56CHL1  H21C 6605   4.719   5.034   9.095 -0.0974  0.1357  1.0673
   56CHL1   C22 6606   4.969   5.204   8.915  0.2023 -0.2853  0.3649
   56CHL1  H22A 6607   5.049   5.281   8.925 -1.7845  1.7888  0.6063
   56CHL1  H22B 6608   5.020   5.110   8.886 -0.6493 -0.2018 -1.4573
   56CHL1   C23 6609   4.872   5.239   8.799 -0.3062  0.2432 -0.7747
   56CHL1  H23A 6610   4.798   5.158   8.780  0.7426 -1.0079  0.3715
   56CHL1  H23B 6611   4.805   5.326   8.812 -1.4179 -0.4598 -1.6639
   56CHL1   C24 6612   4.941   5.280   8.665 -0.3014  0.3002  0.3790
   56CHL1  H24A 6613   5.002   5.372   8.678 -0.1018  0.3565 -0.9447
   56CHL1  H24B 6614   5.006   5.201   8.621  0.5787  1.3156 -0.1768
   56CHL1   C25 6615   4.834   5.325   8.564 -0.5817 -0.0900  0.0135
   56CHL1   H25 6616   4.747   5.375   8.611  1.4260  1.1851  2.4645
   56CHL1   C26 6617   4.891   5.412   8.459  0.6656  0.2795  0.1640
   56CHL1  H26A 6618   4.985   5.376   8.411  1.6776  0.8843  1.6488
   56CHL1  H26B 6619   4.821   5.423   8.373  0.9265  0.7561  0.0098
   56CHL1  H26C 6620   4.911   5.510   8.507  2.9626  0.1412 -0.4580
   56CHL1   C27 6621   4.772   5.209   8.495  0.2198 -0.2572  0.2832
   56CHL1  H27A 6622   4.842   5.152   8.431 -1.2808 -0.7423 -0.9830
   56CHL1  H27B 6623   4.730   5.144   8.574 -0.1080 -1.4105 -0.8324
   56CHL1  H27C 6624   4.686   5.235   8.429 -0.5191  2.4012  2.1903
   57CHL1    C3 6625   0.713   1.107  10.144  0.0031  0.3672  0.4557
   57CHL1    H3 6626   0.821   1.081  10.134  0.1864  0.7466  1.4291
   57CHL1    O3 6627   0.682   1.153  10.272 -0.0554 -0.2448 -0.2357
   57CHL1   H3' 6628   0.673   1.248  10.273 -0.7178 -0.2985 -1.5171
   57CHL1    C4 6629   0.680   1.227  10.045 -1.0370  0.1632  0.6901
   57CHL1   H4A 6630   0.576   1.259  10.067 -1.3529 -0.4258  0.0644
   57CHL1   H4B 6631   0.751   1.310  10.069  0.5158  0.0763 -3.1811
   57CHL1    C5 6632   0.694   1.178   9.901 -0.4315 -0.2553 -0.1369
   57CHL1    C6 6633   0.777   1.239   9.813  0.3863  0.4193  0.2742
   57CHL1    H6 6634   0.829   1.332   9.837 -0.8711  1.2354 -0.1044
   57CHL1    C7 6635   0.788   1.197   9.668 -0.3509  0.0505 -0.6779
   57CHL1   H7A 6636   0.783   1.286   9.602  1.3982 -0.5157 -1.5977
   57CHL1   H7B 6637   0.882   1.141   9.648 -0.8241 -0.7981 -0.5424
   57CHL1    C8 6638   0.670   1.114   9.618 -0.8544 -0.1665 -0.7967
   57CHL1    H8 6639   0.580   1.177   9.603 -1.3213 -0.9729 -1.4481
   57CHL1   C14 6640   0.709   1.043   9.493  0.1559  0.4584 -0.0931
   57CHL1   H14 6641   0.784   0.966   9.524 -0.5965  0.3188  1.3965
   57CHL1   C15 6642   0.762   1.130   9.384 -0.1881  0.2675 -0.3186
   57CHL1  H15A 6643   0.726   1.235   9.376 -1.1790  0.0147  0.6045
   57CHL1  H15B 6644   0.872   1.146   9.385  0.0534 -1.3498 -0.4627
   57CHL1   C16 6645   0.743   1.043   9.261 -0.0352 -0.7287  0.3214
   57CHL1  H16A 6646   0.702   1.109   9.182  2.6668  0.6716  0.0251
   57CHL1  H16B 6647   0.840   1.018   9.212  0.7450  1.0049  0.9559
   57CHL1   C17 6648   0.673   0.915   9.302 -0.1514  0.1498 -0.5262
   57CHL1   H17 6649   0.743   0.837   9.339 -3.2975 -2.4630  0.2059
   57CHL1   C13 6650   0.602   0.955   9.434  0.1558  0.2083 -0.3235
   57CHL1   C18 6651   0.475   1.040   9.405 -0.4244  0.0226  0.3628
   57CHL1  H18A 6652   0.393   0.973   9.370 -0.2643  0.3856 -0.7412
   57CHL1  H18B 6653   0.448   1.089   9.500 -0.9900 -3.2991  1.9997
   57CHL1  H18C 6654   0.494   1.113   9.324  1.3082 -0.3542  0.4190
   57CHL1   C12 6655   0.579   0.832   9.530 -0.5932 -0.0861 -0.8027
   57CHL1  H12A 6656   0.501   0.755   9.511 -2.2132  0.8661  1.6915
   57CHL1  H12B 6657   0.672   0.781   9.562 -0.5196 -0.8592 -2.2057
   57CHL1   C11 6658   0.535   0.901   9.666 -0.6253  0.6830  0.3026
   57CHL1  H11A 6659   0.437   0.952   9.652 -0.3359  0.9077 -0.9436
   57CHL1  H11B 6660   0.530   0.818   9.739  1.7436 -0.5839 -0.9274
   57CHL1    C9 6661   0.640   1.008   9.723  0.5858 -0.1367 -0.1423
   57CHL1    H9 6662   0.732   0.947   9.727  0.2689 -0.5552  0.7833
   57CHL1   C10 6663   0.609   1.060   9.864 -0.6600 -0.3935  0.5842
   57CHL1   C19 6664   0.456   1.088   9.875 -0.0929  0.1737  0.2779
   57CHL1  H19A 6665   0.403   0.990   9.867  1.5346 -0.5873 -1.6811
   57CHL1  H19B 6666   0.430   1.143   9.967  0.7628 -1.5653  1.5927
   57CHL1  H19C 6667   0.421   1.139   9.783  0.4757 -2.6798 -1.6000
   57CHL1    C1 6668   0.636   0.947   9.971 -0.3402  0.3294  0.1942
   57CHL1   H1A 6669   0.562   0.869   9.943  0.7271 -1.0191  1.0783
   57CHL1   H1B 6670   0.735   0.899   9.957 -0.6554 -0.1325 -0.4683
   57CHL1    C2 6671   0.623   0.984  10.117 -0.0679  0.9576  0.0133
   57CHL1   H2A 6672   0.654   0.902  10.186 -0.9305  2.1120  1.8301
   57CHL1   H2B 6673   0.518   1.001  10.149 -0.0746 -0.4952  0.8209
   57CHL1   C20 6674   0.597   0.861   9.182 -0.6671 -0.1277 -0.4880
   57CHL1   H20 6675   0.522   0.939   9.157 -1.3075 -0.0162  1.6826
   57CHL1   C21 6676   0.511   0.744   9.210  1.1797  0.4756  0.3572
   57CHL1  H21A 6677   0.437   0.720   9.130  0.5708  3.5245 -0.0636
   57CHL1  H21B 6678   0.448   0.759   9.301 -1.6212 -1.9711 -1.0591
   57CHL1  H21C 6679   0.582   0.661   9.226  0.3055 -0.2157  0.7012
   57CHL1   C22 6680   0.691   0.830   9.064 -0.1975 -0.2410 -0.3241
   57CHL1  H22A 6681   0.639   0.804   8.969  0.0390 -0.2028 -0.4656
   57CHL1  H22B 6682   0.741   0.925   9.036  0.6632 -1.4780 -3.2488
   57CHL1   C23 6683   0.793   0.719   9.090  0.2076 -0.5672  0.3897
   57CHL1  H23A 6684   0.839   0.742   9.189 -0.5964  2.1955  0.1867
   57CHL1  H23B 6685   0.738   0.623   9.084  0.9459 -0.8715 -2.0199
   57CHL1   C24 6686   0.905   0.720   8.987 -0.5417  0.0739  0.0572
   57CHL1  H24A 6687   0.862   0.694   8.888 -0.5831  0.6097 -0.0677
   57CHL1  H24B 6688   0.933   0.827   8.974 -2.3394  0.4084 -1.2428
   57CHL1   C25 6689   1.015   0.620   9.022 -0.1925 -0.1404 -0.5812
   57CHL1   H25 6690   1.027   0.615   9.133 -3.0852 -1.5874 -0.2939
   57CHL1   C26 6691   0.973   0.475   8.983  0.6893  0.0550 -0.3185
   57CHL1  H26A 6692   1.052   0.401   9.006 -1.5100 -2.0508  0.6764
   57CHL1  H26B 6693   0.886   0.449   9.047 -1.2305  1.9620 -2.0450
   57CHL1  H26C 6694   0.946   0.474   8.875 -2.0604 -2.0602  0.3256
   57CHL1   C27 6695   1.145   0.664   8.951  0.0635 -0.5549 -0.4614
   57CHL1  H27A 6696   1.126   0.681   8.843  3.7328  0.0330 -1.0832
   57CHL1  H27B 6697   1.185   0.759   8.993  0.3812 -0.3926 -1.1233
   57CHL1  H27C 6698   1.219   0.582   8.952 -0.7525 -1.3080 -1.2779
   58CHL1    C3 6699   3.468   6.763  10.107 -0.0974 -0.6389  0.5102
   58CHL1    H3 6700   3.448   6.869  10.081 -0.4244 -1.3926 -2.4333
   58CHL1    O3 6701   3.467   6.745  10.253  0.1523 -0.8069  0.1073
   58CHL1   H3' 6702   3.521   6.813  10.293 -0.0150 -0.4525 -0.2737
   58CHL1    C4 6703   3.346   6.686  10.051  0.2640 -0.6688  0.2694
   58CHL1   H4A 6704   3.357   6.582  10.088  0.8490  0.2486  2.7791
   58CHL1   H4B 6705   3.252   6.719  10.100 -0.0648  0.2651 -0.9669
   58CHL1    C5 6706   3.345   6.699   9.897  0.0624  0.3255  0.2728
   58CHL1    C6 6707   3.239   6.753   9.837 -0.1283  0.3017 -0.4913
   58CHL1    H6 6708   3.150   6.785   9.894 -0.1790 -0.9972  0.1959
   58CHL1    C7 6709   3.223   6.756   9.688 -0.4805  0.4511  1.2244
   58CHL1   H7A 6710   3.121   6.737   9.649 -0.0691 -0.3690  0.5184
   58CHL1   H7B 6711   3.226   6.863   9.660  0.4825  0.0263 -0.3372
   58CHL1    C8 6712   3.324   6.666   9.615 -0.0833  0.0070  0.4862
   58CHL1    H8 6713   3.296   6.560   9.633  1.0923 -0.3046  0.5342
   58CHL1   C14 6714   3.333   6.685   9.466  1.3854 -0.4248 -0.5234
   58CHL1   H14 6715   3.353   6.793   9.453 -1.3646  0.1178 -0.4577
   58CHL1   C15 6716   3.205   6.669   9.389 -0.7005 -0.3016 -0.3661
   58CHL1  H15A 6717   3.168   6.566   9.405  1.7581 -0.8602  2.0763
   58CHL1  H15B 6718   3.134   6.748   9.423  0.1486  0.5984 -0.6573
   58CHL1   C16 6719   3.253   6.695   9.249 -0.2545 -0.5092  0.3145
   58CHL1  H16A 6720   3.210   6.618   9.182  1.6544 -0.4801 -0.9796
   58CHL1  H16B 6721   3.222   6.792   9.203 -0.6966 -0.7784  0.0343
   58CHL1   C17 6722   3.408   6.682   9.247  0.3365 -0.0014 -0.2010
   58CHL1   H17 6723   3.442   6.787   9.244  1.2699 -0.2709  0.9142
   58CHL1   C13 6724   3.441   6.624   9.383 -0.3021  0.5337 -0.1156
   58CHL1   C18 6725   3.429   6.459   9.373  0.1620 -1.0212 -0.5613
   58CHL1  H18A 6726   3.434   6.410   9.473  1.2806 -1.2018 -0.7030
   58CHL1  H18B 6727   3.331   6.432   9.328 -1.2086 -0.6860  2.0682
   58CHL1  H18C 6728   3.513   6.422   9.311  1.2557  0.1849  0.1733
   58CHL1   C12 6729   3.573   6.674   9.445 -0.8767 -0.0885 -0.0495
   58CHL1  H12A 6730   3.663   6.637   9.390 -0.4959 -0.5739  0.9046
   58CHL1  H12B 6731   3.571   6.785   9.439  2.7148  0.2188  2.4368
   58CHL1   C11 6732   3.578   6.646   9.592 -1.1047 -1.2933 -0.3016
   58CHL1  H11A 6733   3.579   6.535   9.590 -0.3911 -1.2978  0.2319
   58CHL1  H11B 6734   3.678   6.677   9.630 -0.7830 -0.3416 -1.8968
   58CHL1    C9 6735   3.462   6.689   9.677  0.4652  0.0672  0.0298
   58CHL1    H9 6736   3.472   6.800   9.675  1.4595 -0.0219 -1.0139
   58CHL1   C10 6737   3.474   6.651   9.825  0.5211  0.3896  0.0600
   58CHL1   C19 6738   3.482   6.495   9.851  0.6521  0.3544  0.0511
   58CHL1  H19A 6739   3.480   6.465   9.957  0.9729 -0.4252 -0.1639
   58CHL1  H19B 6740   3.388   6.460   9.805  0.4203  0.6450  0.3015
   58CHL1  H19C 6741   3.575   6.453   9.806 -0.4805 -1.4964 -0.6030
   58CHL1    C1 6742   3.591   6.725   9.886 -0.7822 -0.0832  0.6688
   58CHL1   H1A 6743   3.675   6.673   9.835 -0.2838  1.9898 -0.6759
   58CHL1   H1B 6744   3.590   6.830   9.850  2.1383 -0.4848 -0.7469
   58CHL1    C2 6745   3.602   6.719  10.039  0.4325  0.5893 -0.3657
   58CHL1   H2A 6746   3.684   6.783  10.079 -0.1178  1.8121 -1.1443
   58CHL1   H2B 6747   3.620   6.616  10.074 -0.4728  0.5846  0.1008
   58CHL1   C20 6748   3.457   6.613   9.125 -0.3725 -0.1061  0.5436
   58CHL1   H20 6749   3.422   6.508   9.121 -0.1329 -0.2380  1.9722
   58CHL1   C21 6750   3.617   6.605   9.123 -0.4831  0.4545  0.3006
   58CHL1  H21A 6751   3.668   6.702   9.138  1.8220 -0.1487 -3.1507
   58CHL1  H21B 6752   3.647   6.572   9.021  0.6946  0.1229  0.7510
   58CHL1  H21C 6753   3.659   6.527   9.190  0.7910 -0.6596 -1.7310
   58CHL1   C22 6754   3.404   6.682   8.994  0.2123 -0.1719 -0.3610
   58CHL1  H22A 6755   3.449   6.629   8.907 -0.4724  2.0821 -2.1269
   58CHL1  H22B 6756   3.294   6.678   8.984  0.1647  0.1346  0.0499
   58CHL1   C23 6757   3.425   6.839   8.988 -1.9660 -0.6333 -0.6214
   58CHL1  H23A 6758   3.377   6.890   9.074  2.4958  1.1717  0.9577
   58CHL1  H23B 6759   3.532   6.868   8.999 -2.3172  1.2145 -1.7346
   58CHL1   C24 6760   3.376   6.904   8.857 -0.3469  0.2880  0.1207
   58CHL1  H24A 6761   3.449   6.878   8.777 -1.1093 -3.4565  0.5443
   58CHL1  H24B 6762   3.274   6.867   8.832  0.4760 -0.7527 -1.7541
   58CHL1   C25 6763   3.347   7.061   8.864  0.4295  0.1420  0.0601
   58CHL1   H25 6764   3.434   7.114   8.908  1.9688 -0.3464 -2.2820
   58CHL1   C26 6765   3.337   7.110   8.718  0.4929  0.0568  0.0466
   58CHL1  H26A 6766   3.437   7.116   8.669 -0.7515 -0.2053 -2.5915
   58CHL1  H26B 6767   3.286   7.028   8.664 -1.0904  0.8251  0.3329
   58CHL1  H26C 6768   3.282   7.206   8.711  3.1457  1.5257 -1.6491
   58CHL1   C27 6769   3.227   7.086   8.948  0.3156 -0.0698 -0.0918
   58CHL1  H27A 6770   3.137   7.025   8.926 -2.0876  3.6238 -1.0403
   58CHL1  H27B 6771   3.252   7.066   9.055  0.0169  0.5683  0.0989
   58CHL1  H27C 6772   3.193   7.192   8.952 -1.9905 -0.6997 -1.7081
   59CHL1    C3 6773   2.772   5.832  10.333 -0.1113 -0.5039  0.4247
   59CHL1    H3 6774   2.726   5.733  10.317 -1.1360 -0.2558  1.7978
   59CHL1    O3 6775   2.827   5.848  10.459 -0.1681 -0.0880 -0.2163
   59CHL1   H3' 6776   2.880   5.769  10.471 -1.6615 -0.8598  1.6622
   59CHL1    C4 6777   2.886   5.838  10.230 -0.1791 -0.4208  0.3038
   59CHL1   H4A 6778   2.950   5.925  10.258  0.4408 -0.6599 -0.3533
   59CHL1   H4B 6779   2.966   5.764  10.252  0.0872 -0.0920  0.4657
   59CHL1    C5 6780   2.840   5.846  10.085  0.0317 -0.8938 -0.6887
   59CHL1    C6 6781   2.889   5.759   9.995 -0.5245  0.5152 -0.9752
   59CHL1    H6 6782   2.958   5.683  10.034  0.8286  2.4176  0.4575
   59CHL1    C7 6783   2.852   5.751   9.849 -0.3391  0.6089  0.4882
   59CHL1   H7A 6784   2.947   5.750   9.792  0.3333 -0.6797  1.6135
   59CHL1   H7B 6785   2.802   5.654   9.830 -0.6900  0.1707  3.4148
   59CHL1    C8 6786   2.762   5.870   9.813  0.0007 -0.1750 -0.1981
   59CHL1    H8 6787   2.830   5.957   9.806 -0.1412  0.0639  1.3205
   59CHL1   C14 6788   2.696   5.849   9.676 -0.4554  0.2717  1.0103
   59CHL1   H14 6789   2.638   5.755   9.688  1.8807 -1.2628  0.4879
   59CHL1   C15 6790   2.792   5.814   9.564 -0.8183 -0.2031  0.5663
   59CHL1  H15A 6791   2.889   5.869   9.566 -1.2345  0.5136  2.0409
   59CHL1  H15B 6792   2.812   5.706   9.555 -1.3793 -0.2429 -0.3031
   59CHL1   C16 6793   2.725   5.859   9.428  0.1738 -0.0329 -0.9222
   59CHL1  H16A 6794   2.785   5.943   9.388 -1.1934  0.6835 -1.4824
   59CHL1  H16B 6795   2.714   5.781   9.349 -0.0361 -0.6402 -0.3071
   59CHL1   C17 6796   2.585   5.913   9.475 -0.3128  0.4334 -0.1623
   59CHL1   H17 6797   2.518   5.828   9.500 -1.4083  1.5937  0.9156
   59CHL1   C13 6798   2.609   5.964   9.621  0.2808  0.6742  0.6222
   59CHL1   C18 6799   2.689   6.096   9.611 -0.1528  0.1103 -0.5592
   59CHL1  H18A 6800   2.629   6.171   9.555 -0.7250  0.4183  0.4489
   59CHL1  H18B 6801   2.717   6.133   9.712  0.4858  1.2429 -1.1439
   59CHL1  H18C 6802   2.778   6.081   9.547  0.4113  0.8570  0.0394
   59CHL1   C12 6803   2.491   5.967   9.721  0.2615  0.0410 -0.6153
   59CHL1  H12A 6804   2.415   6.048   9.713 -0.0265 -0.3186 -1.6394
   59CHL1  H12B 6805   2.433   5.872   9.720  0.2337  0.0407  0.3597
   59CHL1   C11 6806   2.547   5.998   9.868 -0.2972 -0.9957  0.5725
   59CHL1  H11A 6807   2.579   6.104   9.869 -1.7446 -0.5225  3.2658
   59CHL1  H11B 6808   2.464   6.004   9.942 -0.4210  1.7560  0.2707
   59CHL1    C9 6809   2.663   5.910   9.916 -0.4194 -0.2978  0.0573
   59CHL1    H9 6810   2.616   5.811   9.936 -1.8668 -0.3120 -3.1110
   59CHL1   C10 6811   2.729   5.950  10.049 -0.2485  0.2834 -0.2832
   59CHL1   C19 6812   2.780   6.100  10.046 -0.6378 -0.0132  0.4844
   59CHL1  H19A 6813   2.848   6.117  10.132 -0.1606  2.5067 -0.3670
   59CHL1  H19B 6814   2.845   6.133   9.963 -0.9346  0.9612  0.6364
   59CHL1  H19C 6815   2.707   6.183  10.055  0.6535  1.1168  0.6610
   59CHL1    C1 6816   2.622   5.943  10.167 -0.3998  0.6934 -0.0406
   59CHL1   H1A 6817   2.556   6.032  10.157  1.2688  1.9689  0.0562
   59CHL1   H1B 6818   2.552   5.859  10.147  0.3127 -0.3039  1.5667
   59CHL1    C2 6819   2.674   5.947  10.312 -0.2566 -0.1143  0.0364
   59CHL1   H2A 6820   2.587   5.923  10.377  0.3790 -1.5308  0.3767
   59CHL1   H2B 6821   2.712   6.046  10.344 -0.8594 -0.1198  0.7974
   59CHL1   C20 6822   2.523   6.016   9.384  0.7149 -1.2739 -0.2450
   59CHL1   H20 6823   2.586   6.105   9.366 -1.6062  0.7480  1.3302
   59CHL1   C21 6824   2.393   6.059   9.447  0.5686  0.5039 -0.1089
   59CHL1  H21A 6825   2.329   6.115   9.376  1.3954 -0.1116 -1.3562
   59CHL1  H21B 6826   2.404   6.120   9.539  0.2305 -0.8630  0.8626
   59CHL1  H21C 6827   2.337   5.977   9.497  0.4230  0.8080  0.2227
   59CHL1   C22 6828   2.493   5.966   9.239 -0.0282 -0.0036 -0.2301
   59CHL1  H22A 6829   2.444   6.051   9.186 -1.6498  0.2563  1.6253
   59CHL1  H22B 6830   2.585   5.943   9.181  0.4595  0.0426  0.5219
   59CHL1   C23 6831   2.414   5.836   9.227 -0.2515  0.0345 -0.5933
   59CHL1  H23A 6832   2.476   5.753   9.268 -0.1736 -0.4130 -1.5986
   59CHL1  H23B 6833   2.316   5.826   9.277 -0.2520 -0.8759 -0.7747
   59CHL1   C24 6834   2.382   5.807   9.078  0.6615 -0.3203 -0.2572
   59CHL1  H24A 6835   2.477   5.781   9.026  0.0703 -0.1319 -1.4548
   59CHL1  H24B 6836   2.313   5.722   9.063 -0.1611  0.2068  0.4541
   59CHL1   C25 6837   2.319   5.927   8.999 -0.3117  0.1199  0.2925
   59CHL1   H25 6838   2.384   6.016   9.000 -0.4551  0.2105  1.8735
   59CHL1   C26 6839   2.301   5.886   8.853  0.2161  0.1754  0.8365
   59CHL1  H26A 6840   2.242   5.968   8.806 -1.5868 -0.8490  1.2670
   59CHL1  H26B 6841   2.396   5.869   8.797 -0.8654  0.5195 -1.1357
   59CHL1  H26C 6842   2.250   5.788   8.852  1.9205 -0.7362  1.0593
   59CHL1   C27 6843   2.177   5.966   9.051  0.6525 -0.4836 -0.7738
   59CHL1  H27A 6844   2.126   6.047   8.994 -0.8722 -1.0855 -0.3031
   59CHL1  H27B 6845   2.119   5.874   9.028 -0.3157 -0.5362  1.7203
   59CHL1  H27C 6846   2.180   5.990   9.160  1.1750 -2.5404 -0.3090
   60CHL1    C3 6847   2.362   4.881  10.247 -0.3468  0.0225  0.0876
   60CHL1    H3 6848   2.440   4.803  10.235 -1.2089 -1.2261  2.4072
   60CHL1    O3 6849   2.293   4.893  10.370 -0.2034  0.7297 -0.2292
   60CHL1   H3' 6850   2.269   4.984  10.387 -1.4086  0.6172 -1.2991
   60CHL1    C4 6851   2.423   5.017  10.218  0.4545  0.5931  0.8697
   60CHL1   H4A 6852   2.355   5.105  10.220 -1.4854 -0.8554  0.2991
   60CHL1   H4B 6853   2.503   5.030  10.294  0.8771 -2.2544  0.9658
   60CHL1    C5 6854   2.483   5.011  10.077  0.4398  0.2920 -0.0147
   60CHL1    C6 6855   2.611   5.036  10.063  0.0379  0.5920 -0.2660
   60CHL1    H6 6856   2.667   5.062  10.154 -1.3880 -1.0199  1.1114
   60CHL1    C7 6857   2.685   5.037   9.933 -0.3235 -0.4611  0.4357
   60CHL1   H7A 6858   2.751   5.127   9.941  0.5133 -1.1060  0.8775
   60CHL1   H7B 6859   2.754   4.951   9.927  1.3742  0.7885  1.4842
   60CHL1    C8 6860   2.588   5.048   9.806 -0.1098  0.1402  0.1515
   60CHL1    H8 6861   2.543   5.149   9.808 -0.1091  0.1307  0.6234
   60CHL1   C14 6862   2.662   5.024   9.676  0.2437  0.5018  0.0403
   60CHL1   H14 6863   2.702   4.920   9.681 -0.6105  0.2033  0.7670
   60CHL1   C15 6864   2.770   5.117   9.635 -0.0678  0.1763  0.0478
   60CHL1  H15A 6865   2.739   5.223   9.627 -0.3069  0.1467  0.6057
   60CHL1  H15B 6866   2.865   5.119   9.692 -1.6008  0.3874  2.6693
   60CHL1   C16 6867   2.795   5.069   9.487 -0.5315  0.3926  0.2911
   60CHL1  H16A 6868   2.814   5.165   9.434  0.2567  0.3077  0.4174
   60CHL1  H16B 6869   2.885   5.005   9.474 -0.0290  1.3458 -0.9809
   60CHL1   C17 6870   2.666   4.985   9.437  0.5566 -0.2743 -0.3918
   60CHL1   H17 6871   2.683   4.878   9.461 -0.4895 -0.2225  0.5793
   60CHL1   C13 6872   2.564   5.005   9.552  0.3840  0.1648 -0.4963
   60CHL1   C18 6873   2.482   5.134   9.531 -1.0338  0.0157 -0.1949
   60CHL1  H18A 6874   2.438   5.175   9.624 -1.8157 -1.6313  0.1867
   60CHL1  H18B 6875   2.556   5.203   9.486 -0.9138  0.4329  0.6282
   60CHL1  H18C 6876   2.396   5.119   9.463 -1.4611 -0.1793  0.3858
   60CHL1   C12 6877   2.472   4.883   9.585 -0.0379 -0.9943  0.1547
   60CHL1  H12A 6878   2.402   4.858   9.502 -0.2940 -0.9452  0.3528
   60CHL1  H12B 6879   2.533   4.794   9.611 -1.8607 -2.5928 -0.9469
   60CHL1   C11 6880   2.388   4.900   9.712 -0.0896  0.1224 -0.0076
   60CHL1  H11A 6881   2.310   4.974   9.684 -0.9838 -1.5101 -1.9520
   60CHL1  H11B 6882   2.348   4.798   9.729 -1.7122  0.4990 -1.4100
   60CHL1    C9 6883   2.481   4.946   9.830 -0.1171 -0.4040 -0.6134
   60CHL1    H9 6884   2.535   4.855   9.863 -0.9526 -0.0681  1.7278
   60CHL1   C10 6885   2.399   4.972   9.960  0.2927 -0.1984  0.2767
   60CHL1   C19 6886   2.294   5.083   9.945  0.6191  0.1490 -0.2468
   60CHL1  H19A 6887   2.215   5.044   9.878  0.8399 -1.7087  0.5516
   60CHL1  H19B 6888   2.227   5.108  10.030  0.4758  2.6428 -1.0420
   60CHL1  H19C 6889   2.342   5.177   9.910 -0.7694  1.0589  0.2716
   60CHL1    C1 6890   2.323   4.834   9.998 -0.1144  0.5679  0.2269
   60CHL1   H1A 6891   2.246   4.812   9.920  0.3350  0.8569 -0.3038
   60CHL1   H1B 6892   2.394   4.749   9.997  1.7018  2.0400 -1.5734
   60CHL1    C2 6893   2.253   4.843  10.143  0.6598  0.4012 -0.9369
   60CHL1   H2A 6894   2.220   4.745  10.186  0.3114  1.3388  0.9974
   60CHL1   H2B 6895   2.173   4.920  10.151 -0.5138 -0.8389 -0.3780
   60CHL1   C20 6896   2.622   5.010   9.291  0.3269 -0.1333  0.1671
   60CHL1   H20 6897   2.549   5.093   9.289  1.5681  1.0291  2.0061
   60CHL1   C21 6898   2.558   4.877   9.247 -0.4439 -0.6619  0.3484
   60CHL1  H21A 6899   2.640   4.802   9.242 -2.5813 -3.1520  1.2082
   60CHL1  H21B 6900   2.505   4.873   9.150  1.3961 -0.5020 -0.6868
   60CHL1  H21C 6901   2.491   4.832   9.323 -0.3916  0.5455  1.1250
   60CHL1   C22 6902   2.737   5.053   9.188  0.0041  0.1838 -0.0479
   60CHL1  H22A 6903   2.780   5.152   9.217 -2.1320  0.9405  0.6290
   60CHL1  H22B 6904   2.821   4.980   9.190 -1.0036 -1.0131 -1.1188
   60CHL1   C23 6905   2.684   5.068   9.041 -0.5872  0.0995  0.3559
   60CHL1  H23A 6906   2.593   5.007   9.022 -1.0982  1.7381 -2.8792
   60CHL1  H23B 6907   2.667   5.178   9.031  1.0429  0.6041  2.6465
   60CHL1   C24 6908   2.800   5.026   8.947 -0.2031 -0.7884 -0.4427
   60CHL1  H24A 6909   2.884   5.096   8.968  0.0656 -0.0354 -3.8094
   60CHL1  H24B 6910   2.827   4.919   8.957  2.0234 -0.3855 -1.7629
   60CHL1   C25 6911   2.781   5.055   8.801 -0.6886 -0.3768  0.1784
   60CHL1   H25 6912   2.802   5.162   8.775 -3.8139  0.1145 -0.4974
   60CHL1   C26 6913   2.892   4.991   8.711  0.3729  0.0862 -0.9851
   60CHL1  H26A 6914   2.901   4.880   8.720  1.2422  0.2359 -0.0086
   60CHL1  H26B 6915   2.870   5.003   8.603  0.2091  0.4449 -0.9123
   60CHL1  H26C 6916   2.990   5.041   8.725 -0.1522  0.1247  3.0225
   60CHL1   C27 6917   2.647   5.011   8.747 -0.5218 -1.0397 -0.4967
   60CHL1  H27A 6918   2.633   4.901   8.746  2.1162 -1.5095  3.1978
   60CHL1  H27B 6919   2.560   5.062   8.794  1.5761  3.1900 -0.9840
   60CHL1  H27C 6920   2.655   5.043   8.641 -0.4688 -0.6439 -0.3716
   61CHL1    C3 6921   5.616   4.057  10.278  0.1327  0.0802  0.0138
   61CHL1    H3 6922   5.521   4.001  10.267  0.3449 -0.3353  0.2808
   61CHL1    O3 6923   5.649   4.072  10.414 -0.0821  0.1452  0.0253
   61CHL1   H3' 6924   5.630   3.989  10.458 -0.6784 -1.1647 -2.5950
   61CHL1    C4 6925   5.724   3.970  10.202  1.1740 -0.0205 -0.4572
   61CHL1   H4A 6926   5.820   4.021  10.222  1.0977  0.7934 -2.0928
   61CHL1   H4B 6927   5.735   3.868  10.246  0.4680 -0.5737 -1.5252
   61CHL1    C5 6928   5.698   3.955  10.052  0.5094 -0.1179  0.0286
   61CHL1    C6 6929   5.697   3.839   9.983 -0.1865  0.0540  0.1417
   61CHL1    H6 6930   5.712   3.742  10.033 -0.9980  0.6254  1.5437
   61CHL1    C7 6931   5.664   3.833   9.833 -0.8225  0.0790 -0.6048
   61CHL1   H7A 6932   5.743   3.765   9.794 -2.0326 -0.7158 -1.6735
   61CHL1   H7B 6933   5.564   3.786   9.827 -1.0417  0.7855 -3.2605
   61CHL1    C8 6934   5.665   3.966   9.757 -0.1836  0.1605  0.3319
   61CHL1    H8 6935   5.772   3.990   9.742 -0.4093  0.3051 -1.1189
   61CHL1   C14 6936   5.605   3.952   9.624  0.3408 -0.1238  0.1832
   61CHL1   H14 6937   5.501   3.919   9.646  0.0599  0.7871  0.2473
   61CHL1   C15 6938   5.657   3.841   9.537 -0.0857 -0.1776 -0.6118
   61CHL1  H15A 6939   5.767   3.828   9.542 -0.0052  0.8345  0.5745
   61CHL1  H15B 6940   5.615   3.742   9.564  1.8180 -0.6344  0.7438
   61CHL1   C16 6941   5.616   3.882   9.397  0.3927 -0.6214 -0.6832
   61CHL1  H16A 6942   5.704   3.904   9.333 -0.7251  0.0142 -2.0285
   61CHL1  H16B 6943   5.557   3.810   9.337  0.0463  0.4926 -1.6968
   61CHL1   C17 6944   5.546   4.025   9.411  0.1347  0.1908 -0.2988
   61CHL1   H17 6945   5.444   3.987   9.435  0.0907  0.8717  0.6362
   61CHL1   C13 6946   5.597   4.082   9.549  0.1813 -0.2604 -0.1196
   61CHL1   C18 6947   5.746   4.131   9.524  0.5252  0.6036 -0.5371
   61CHL1  H18A 6948   5.788   4.058   9.451 -1.5985  0.4677 -1.6516
   61CHL1  H18B 6949   5.739   4.229   9.471 -3.4960 -0.7057 -2.5740
   61CHL1  H18C 6950   5.810   4.139   9.614  0.0195  0.9535 -0.2076
   61CHL1   C12 6951   5.514   4.189   9.625 -0.0748 -0.7907 -0.2131
   61CHL1  H12A 6952   5.515   4.287   9.572  0.0526 -0.0023  1.2172
   61CHL1  H12B 6953   5.409   4.154   9.629 -0.0518 -0.6483  2.1068
   61CHL1   C11 6954   5.574   4.205   9.764  0.2664 -0.6667 -0.5771
   61CHL1  H11A 6955   5.670   4.257   9.745 -0.6774  1.6021  0.7004
   61CHL1  H11B 6956   5.504   4.270   9.819  2.3062  2.1621 -1.2216
   61CHL1    C9 6957   5.598   4.073   9.845 -0.4941 -0.0841  0.1062
   61CHL1    H9 6958   5.499   4.027   9.866 -0.2434 -0.0119  1.4560
   61CHL1   C10 6959   5.662   4.089   9.981  0.3042  1.1416  0.1375
   61CHL1   C19 6960   5.794   4.170   9.960  0.4775  0.0834  0.5930
   61CHL1  H19A 6961   5.854   4.179  10.053  0.8818  0.0822  0.3292
   61CHL1  H19B 6962   5.865   4.130   9.884  2.5696  1.8588  1.5549
   61CHL1  H19C 6963   5.766   4.273   9.930  0.8022  0.0411  0.1490
   61CHL1    C1 6964   5.567   4.180  10.063  0.1028  0.5453 -0.2425
   61CHL1   H1A 6965   5.572   4.283  10.021 -0.8075  0.0391 -1.6129
   61CHL1   H1B 6966   5.462   4.154  10.040  0.0436 -0.3979  1.0502
   61CHL1    C2 6967   5.599   4.194  10.211  0.1835  0.4232 -0.2584
   61CHL1   H2A 6968   5.511   4.241  10.258  2.3466  2.7566  1.5417
   61CHL1   H2B 6969   5.694   4.250  10.224  0.7864 -1.0490  1.9654
   61CHL1   C20 6970   5.549   4.103   9.277  0.3166  0.3581 -0.3115
   61CHL1   H20 6971   5.654   4.127   9.249 -0.0417 -0.3467 -2.3641
   61CHL1   C21 6972   5.475   4.237   9.285  0.7869  0.8589  0.5922
   61CHL1  H21A 6973   5.502   4.290   9.191 -0.2155  2.9608  1.4668
   61CHL1  H21B 6974   5.500   4.293   9.377  1.0238  2.3567 -0.3739
   61CHL1  H21C 6975   5.365   4.224   9.291  0.6720 -0.1178 -2.5541
   61CHL1   C22 6976   5.490   4.022   9.151 -0.1882  0.0087  0.8787
   61CHL1  H22A 6977   5.524   3.916   9.151  0.8590  0.3108 -1.1513
   61CHL1  H22B 6978   5.379   4.016   9.162 -0.5434  1.9215 -1.2196
   61CHL1   C23 6979   5.523   4.085   9.014 -0.0406 -0.6381  0.1451
   61CHL1  H23A 6980   5.518   4.196   9.010  3.1396 -0.4578  0.1498
   61CHL1  H23B 6981   5.629   4.069   8.986  0.0448 -1.6292  1.0180
   61CHL1   C24 6982   5.454   4.037   8.883  0.0041 -0.3223  0.2303
   61CHL1  H24A 6983   5.468   3.929   8.862 -0.4385  0.1796 -2.8439
   61CHL1  H24B 6984   5.343   4.036   8.885 -0.0010 -2.5669  0.1487
   61CHL1   C25 6985   5.516   4.112   8.764  0.3466 -0.3366  0.0749
   61CHL1   H25 6986   5.576   4.201   8.796 -0.1388 -0.2288  0.6910
   61CHL1   C26 6987   5.616   4.017   8.694 -0.0495 -0.2982 -0.8215
   61CHL1  H26A 6988   5.690   3.994   8.773 -0.7516  0.6903  0.1390
   61CHL1  H26B 6989   5.562   3.925   8.665  0.0505 -0.6623  0.1430
   61CHL1  H26C 6990   5.659   4.071   8.606 -1.0769 -0.4806 -1.4443
   61CHL1   C27 6991   5.398   4.158   8.674  0.0054  0.3932 -0.3224
   61CHL1  H27A 6992   5.434   4.202   8.579  2.3209  0.9994  0.7863
   61CHL1  H27B 6993   5.337   4.068   8.653 -0.1074  0.2977  0.4031
   61CHL1  H27C 6994   5.330   4.236   8.717 -0.3945 -0.3190  0.3657
   62CHL1    C3 6995   0.162   0.984  10.100  0.4238  0.8091 -0.2219
   62CHL1    H3 6996   0.269   1.007  10.079  1.0850  0.1823  2.2367
   62CHL1    O3 6997   0.146   1.033  10.232 -0.2241  0.1128  0.1843
   62CHL1   H3' 6998   0.148   0.949  10.277 -2.3379  0.0063  0.0964
   62CHL1    C4 6999   0.073   1.063  10.003 -0.2787  0.9262 -0.2809
   62CHL1   H4A 7000  -0.033   1.074  10.036 -0.3062  1.6967 -0.6180
   62CHL1   H4B 7001   0.118   1.164  10.009  3.2505 -0.5650 -0.6087
   62CHL1    C5 7002   0.073   1.017   9.861  0.2132  0.2624 -0.2856
   62CHL1    C6 7003   0.102   1.097   9.757  0.0921 -0.2722 -0.1241
   62CHL1    H6 7004   0.101   1.206   9.771  1.0413 -0.6302  3.3771
   62CHL1    C7 7005   0.121   1.046   9.622 -0.2839 -0.1182 -0.3052
   62CHL1   H7A 7006   0.059   1.107   9.552  1.0950  1.2567 -0.3346
   62CHL1   H7B 7007   0.229   1.046   9.598 -0.5637 -0.1599 -1.6108
   62CHL1    C8 7008   0.058   0.908   9.597  0.3363 -0.0817  0.4057
   62CHL1    H8 7009  -0.052   0.925   9.595  0.4265  0.8074  1.8956
   62CHL1   C14 7010   0.107   0.849   9.461 -0.3416 -0.8130 -0.4361
   62CHL1   H14 7011   0.217   0.839   9.473 -0.2430 -1.9491 -2.1831
   62CHL1   C15 7012   0.087   0.944   9.337 -0.2348 -0.0243  0.3928
   62CHL1  H15A 7013  -0.016   0.984   9.327  0.2927  1.3230  0.2100
   62CHL1  H15B 7014   0.162   1.026   9.339  1.2946 -1.3944 -0.0032
   62CHL1   C16 7015   0.104   0.846   9.217  0.5015  0.0928  0.0459
   62CHL1  H16A 7016   0.009   0.862   9.161 -0.0702 -0.7114  0.7635
   62CHL1  H16B 7017   0.190   0.874   9.152 -0.1129  0.6980 -0.5197
   62CHL1   C17 7018   0.110   0.702   9.273 -0.0166 -0.0426 -0.1526
   62CHL1   H17 7019   0.217   0.678   9.291  0.1557 -1.0129 -2.2916
   62CHL1   C13 7020   0.048   0.713   9.415 -0.7057 -0.8611 -0.1078
   62CHL1   C18 7021  -0.108   0.715   9.401  0.1236 -0.9628 -0.3507
   62CHL1  H18A 7022  -0.149   0.613   9.383 -1.2974 -0.8239  1.9718
   62CHL1  H18B 7023  -0.138   0.742   9.504  1.9351  2.9312 -0.7809
   62CHL1  H18C 7024  -0.151   0.785   9.326 -0.1586 -2.0784 -1.2535
   62CHL1   C12 7025   0.093   0.614   9.528 -0.8678  0.6970  0.3628
   62CHL1  H12A 7026   0.035   0.521   9.516  0.7899 -0.4186  0.7633
   62CHL1  H12B 7027   0.202   0.590   9.531 -1.2617 -1.0375  1.1730
   62CHL1   C11 7028   0.063   0.663   9.673  0.2736 -0.1254  0.6564
   62CHL1  H11A 7029  -0.048   0.657   9.671  0.2764  0.0741 -0.7066
   62CHL1  H11B 7030   0.107   0.587   9.742  0.6798 -1.6030 -1.1667
   62CHL1    C9 7031   0.099   0.812   9.705 -1.1844  0.5274 -0.3793
   62CHL1    H9 7032   0.210   0.820   9.702 -1.1743  0.5582  0.0120
   62CHL1   C10 7033   0.048   0.862   9.848 -0.9929  0.3978  0.4383
   62CHL1   C19 7034  -0.103   0.832   9.869  0.8288  0.4031 -0.4605
   62CHL1  H19A 7035  -0.133   0.868   9.970 -0.8768  2.0770 -1.5283
   62CHL1  H19B 7036  -0.177   0.878   9.800 -1.0378 -1.4745  0.2386
   62CHL1  H19C 7037  -0.110   0.721   9.870 -0.6319  0.4539 -2.3825
   62CHL1    C1 7038   0.139   0.788   9.951  0.4295  0.4243  0.0179
   62CHL1   H1A 7039   0.119   0.679   9.951  2.0618  0.1023  1.2011
   62CHL1   H1B 7040   0.243   0.799   9.914  2.6530 -0.3523  5.4955
   62CHL1    C2 7041   0.133   0.835  10.102  0.3344  0.3310 -0.3375
   62CHL1   H2A 7042   0.209   0.772  10.154 -2.2955 -0.9690  2.0408
   62CHL1   H2B 7043   0.033   0.803  10.138 -0.2733  0.4893 -1.8457
   62CHL1   C20 7044   0.050   0.593   9.190 -1.1830  0.7072  0.6469
   62CHL1   H20 7045  -0.061   0.600   9.189 -1.3932 -2.0772  0.0191
   62CHL1   C21 7046   0.086   0.452   9.238 -0.1313  0.3780 -0.0364
   62CHL1  H21A 7047   0.032   0.373   9.181 -0.6172  0.2382  0.6172
   62CHL1  H21B 7048   0.058   0.427   9.342 -1.9305 -2.2184 -1.0824
   62CHL1  H21C 7049   0.194   0.430   9.224 -0.7994 -1.5819 -2.6245
   62CHL1   C22 7050   0.095   0.594   9.046 -0.4044  0.7841  0.2918
   62CHL1  H22A 7051   0.081   0.697   9.006 -0.2210  1.0575  0.9285
   62CHL1  H22B 7052   0.204   0.577   9.043 -0.2732  1.7324 -0.8092
   62CHL1   C23 7053   0.025   0.498   8.943 -0.3024  0.0959  0.4577
   62CHL1  H23A 7054   0.078   0.400   8.940  0.7743  0.6912 -0.3817
   62CHL1  H23B 7055  -0.072   0.468   8.988 -0.6890 -1.5913 -1.4476
   62CHL1   C24 7056   0.011   0.547   8.794 -0.7225 -0.9255 -1.1473
   62CHL1  H24A 7057  -0.070   0.622   8.793  1.2172  1.2069 -1.9618
   62CHL1  H24B 7058   0.101   0.610   8.779  0.2221 -1.9680  0.0192
   62CHL1   C25 7059  -0.012   0.449   8.678 -0.0107  0.0806  0.9881
   62CHL1   H25 7060   0.037   0.352   8.697  1.9544  0.6459 -0.9760
   62CHL1   C26 7061  -0.164   0.437   8.671  0.5279  0.2873  0.3711
   62CHL1  H26A 7062  -0.212   0.529   8.632 -0.9895 -0.3321  0.7266
   62CHL1  H26B 7063  -0.200   0.353   8.608 -0.1675 -0.3822  1.6428
   62CHL1  H26C 7064  -0.205   0.427   8.774 -1.0767 -1.1644 -0.3999
   62CHL1   C27 7065   0.044   0.503   8.544 -0.2475 -0.5424 -0.2259
   62CHL1  H27A 7066   0.152   0.525   8.555 -0.2878 -0.6332  0.3619
   62CHL1  H27B 7067   0.044   0.414   8.478  0.6053 -0.3262 -0.5233
   62CHL1  H27C 7068  -0.007   0.588   8.495  1.3280 -0.0419 -1.0209
   63CHL1    C3 7069   1.443   2.723  10.331 -0.0886  0.2926  0.2533
   63CHL1    H3 7070   1.515   2.642  10.308  1.6804  1.8117  0.3161
   63CHL1    O3 7071   1.429   2.729  10.470  0.2669  0.3852  0.4887
   63CHL1   H3' 7072   1.519   2.732  10.504  0.1802  0.3206  0.7234
   63CHL1    C4 7073   1.505   2.852  10.287  0.4158  0.4821  0.7611
   63CHL1   H4A 7074   1.447   2.937  10.330  0.3207 -0.2685  2.1548
   63CHL1   H4B 7075   1.604   2.866  10.335  1.4824 -0.2083 -1.1826
   63CHL1    C5 7076   1.508   2.859  10.137  0.3168 -0.4456 -0.1905
   63CHL1    C6 7077   1.627   2.889  10.078  0.2653  0.0399  0.0006
   63CHL1    H6 7078   1.717   2.906  10.139  0.8230  0.8245 -1.0210
   63CHL1    C7 7079   1.646   2.899   9.928  0.0904 -0.9952  0.3458
   63CHL1   H7A 7080   1.706   2.988   9.899 -3.5185 -0.0134 -4.6671
   63CHL1   H7B 7081   1.703   2.811   9.891  0.2271  0.4801 -3.1814
   63CHL1    C8 7082   1.512   2.919   9.847  0.5453  0.2395  0.4698
   63CHL1    H8 7083   1.481   3.021   9.880 -2.1857 -0.0699 -1.0244
   63CHL1   C14 7084   1.541   2.906   9.698 -0.7030  0.4092  0.4878
   63CHL1   H14 7085   1.553   2.797   9.684  1.2290  0.6692 -0.0011
   63CHL1   C15 7086   1.666   2.974   9.632  0.6176  0.3479 -0.3613
   63CHL1  H15A 7087   1.670   3.081   9.663  0.9014  0.1070  0.4704
   63CHL1  H15B 7088   1.751   2.911   9.669 -0.1034  0.6829  1.9519
   63CHL1   C16 7089   1.631   2.967   9.480 -0.1004  0.0840  0.2434
   63CHL1  H16A 7090   1.636   3.070   9.439  0.2489  0.5267  1.3867
   63CHL1  H16B 7091   1.692   2.906   9.410  0.8789  2.8137 -1.3711
   63CHL1   C17 7092   1.484   2.907   9.468  0.6981  0.6525  0.0859
   63CHL1   H17 7093   1.506   2.798   9.463  1.9814  0.7492  2.6758
   63CHL1   C13 7094   1.416   2.925   9.613 -0.4017  0.4163 -0.2803
   63CHL1   C18 7095   1.367   3.064   9.627 -0.2687  0.2816 -0.4486
   63CHL1  H18A 7096   1.449   3.139   9.613  1.2331 -1.2375 -0.0131
   63CHL1  H18B 7097   1.289   3.079   9.550 -1.7312  1.2993  1.2063
   63CHL1  H18C 7098   1.333   3.082   9.732  0.4173 -0.5352 -0.0803
   63CHL1   C12 7099   1.306   2.824   9.664  0.2790 -0.0432 -0.2113
   63CHL1  H12A 7100   1.210   2.842   9.610 -0.1614  2.4499  1.2761
   63CHL1  H12B 7101   1.337   2.722   9.634  0.6960  0.6888 -2.3644
   63CHL1   C11 7102   1.275   2.827   9.812 -0.1140 -1.1945  0.6641
   63CHL1  H11A 7103   1.216   2.919   9.830  2.6471  0.5521  1.0532
   63CHL1  H11B 7104   1.200   2.746   9.826 -0.3585 -0.7519  1.9176
   63CHL1    C9 7105   1.402   2.825   9.899  0.3477 -0.0276  0.0202
   63CHL1    H9 7106   1.448   2.725   9.885 -0.7270 -0.7765  1.7570
   63CHL1   C10 7107   1.378   2.833  10.056  0.2543  0.5454 -0.3834
   63CHL1   C19 7108   1.290   2.959  10.096  0.9519 -0.4860  0.1474
   63CHL1  H19A 7109   1.340   3.055  10.072  2.0189 -0.7003  1.4447
   63CHL1  H19B 7110   1.184   2.960  10.063  0.8592  0.2224  0.4648
   63CHL1  H19C 7111   1.272   2.945  10.205 -1.7431  2.8297  0.1937
   63CHL1    C1 7112   1.299   2.711  10.114 -0.0142 -0.4792  1.0910
   63CHL1   H1A 7113   1.196   2.721  10.073  0.6630  0.3358 -0.4677
   63CHL1   H1B 7114   1.345   2.614  10.083  0.8694 -0.0807  1.1325
   63CHL1    C2 7115   1.301   2.699  10.267 -0.0253 -0.0706  0.2193
   63CHL1   H2A 7116   1.252   2.602  10.290 -1.4069  0.4306 -0.5960
   63CHL1   H2B 7117   1.235   2.775  10.314  1.7514  1.0859  0.9189
   63CHL1   C20 7118   1.409   2.943   9.342  0.4255  0.0660  0.2615
   63CHL1   H20 7119   1.391   3.052   9.347  0.4629  0.0918 -0.1305
   63CHL1   C21 7120   1.273   2.872   9.340  0.0310  0.3612  0.5964
   63CHL1  H21A 7121   1.279   2.774   9.390 -1.0824  0.3777  0.7649
   63CHL1  H21B 7122   1.233   2.861   9.237  1.0827  0.0189  0.2223
   63CHL1  H21C 7123   1.197   2.938   9.388  0.6809  1.0739  0.6697
   63CHL1   C22 7124   1.494   2.922   9.216 -0.1089 -0.3340  0.0056
   63CHL1  H22A 7125   1.588   2.981   9.223  0.7725 -1.3939 -2.4304
   63CHL1  H22B 7126   1.521   2.814   9.214  0.9259 -0.0732 -0.5626
   63CHL1   C23 7127   1.421   2.961   9.078  0.2662  0.0826 -0.4377
   63CHL1  H23A 7128   1.484   2.907   9.003  1.9230 -0.3103  1.1895
   63CHL1  H23B 7129   1.321   2.913   9.084  0.3803 -0.1957 -0.7104
   63CHL1   C24 7130   1.420   3.110   9.048 -0.1885  0.1349  0.0038
   63CHL1  H24A 7131   1.370   3.164   9.131  2.0631  0.9369  0.8848
   63CHL1  H24B 7132   1.522   3.154   9.055 -0.1231 -0.2301  1.6535
   63CHL1   C25 7133   1.348   3.150   8.921  0.7820  0.2999  0.4487
   63CHL1   H25 7134   1.347   3.261   8.923  0.5748  0.3407 -1.0744
   63CHL1   C26 7135   1.405   3.108   8.791 -0.2150 -0.3687  0.3956
   63CHL1  H26A 7136   1.514   3.127   8.787  0.1312 -2.0243  1.3972
   63CHL1  H26B 7137   1.381   3.001   8.772 -3.6741  0.6462 -1.2507
   63CHL1  H26C 7138   1.352   3.164   8.712 -0.2466 -1.0722 -0.0871
   63CHL1   C27 7139   1.195   3.112   8.919  0.2210 -0.3379 -0.4519
   63CHL1  H27A 7140   1.162   3.129   8.814 -0.5176 -0.5293 -0.2476
   63CHL1  H27B 7141   1.178   3.006   8.947 -0.7027 -0.6816 -2.2498
   63CHL1  H27C 7142   1.144   3.191   8.978  3.1143 -0.6433  2.5722
   64CHL1    C3 7143   0.674   1.724  10.124  0.0969 -0.4780  0.1239
   64CHL1    H3 7144   0.762   1.656  10.134 -0.5679 -1.4654 -0.6172
   64CHL1    O3 7145   0.599   1.716  10.250  0.0318  0.3081 -0.1864
   64CHL1   H3' 7146   0.671   1.728  10.313  0.0493  1.0929 -0.3526
   64CHL1    C4 7147   0.737   1.863  10.114  0.4452  0.2006  0.5033
   64CHL1   H4A 7148   0.653   1.936  10.105  1.0075  0.8690  0.5836
   64CHL1   H4B 7149   0.794   1.892  10.205 -0.3859  0.9615  0.7954
   64CHL1    C5 7150   0.817   1.885   9.981 -0.9850 -0.1388 -0.5235
   64CHL1    C6 7151   0.950   1.914   9.988 -0.4391  0.1740  0.2155
   64CHL1    H6 7152   0.996   1.926  10.087 -0.9580 -3.3484  0.9234
   64CHL1    C7 7153   1.033   1.928   9.866  0.5085 -0.6848 -0.7044
   64CHL1   H7A 7154   1.108   2.010   9.874 -1.4319  1.0345  0.0763
   64CHL1   H7B 7155   1.086   1.830   9.860 -1.6997 -2.2004  3.0567
   64CHL1    C8 7156   0.957   1.951   9.731 -0.1751 -0.1737  0.5558
   64CHL1    H8 7157   0.908   2.050   9.734 -2.1507 -1.1240  0.8928
   64CHL1   C14 7158   1.058   1.944   9.621  0.0745  0.2618  0.2655
   64CHL1   H14 7159   1.092   1.841   9.644 -0.9515 -0.2271 -0.3713
   64CHL1   C15 7160   1.193   2.030   9.615 -0.2727  0.0860 -0.2047
   64CHL1  H15A 7161   1.175   2.134   9.650 -1.7130 -0.2935  0.2244
   64CHL1  H15B 7162   1.277   1.987   9.673 -1.6844 -1.6077  0.6380
   64CHL1   C16 7163   1.220   2.036   9.457 -0.6392 -0.6739  0.1248
   64CHL1  H16A 7164   1.211   2.143   9.429  0.8080 -0.6976 -0.5344
   64CHL1  H16B 7165   1.317   1.991   9.424 -0.1186 -0.7756  1.7193
   64CHL1   C17 7166   1.106   1.943   9.395 -0.6764 -0.2224 -0.5931
   64CHL1   H17 7167   1.136   1.838   9.414  1.1011  0.6521  1.5735
   64CHL1   C13 7168   0.987   1.950   9.491  0.4087  0.2293  0.7978
   64CHL1   C18 7169   0.905   2.082   9.464  0.0366  0.0490 -0.1088
   64CHL1  H18A 7170   0.824   2.091   9.539  0.1818  1.0628 -0.0709
   64CHL1  H18B 7171   0.976   2.163   9.489 -0.6175  1.0224 -1.3642
   64CHL1  H18C 7172   0.866   2.085   9.360 -2.8352  0.4253  0.9423
   64CHL1   C12 7173   0.895   1.821   9.477  0.8490 -0.1494 -0.4231
   64CHL1  H12A 7174   0.861   1.806   9.373 -0.6327 -0.9887  0.1674
   64CHL1  H12B 7175   0.954   1.728   9.492  0.1948 -0.2764  1.5694
   64CHL1   C11 7176   0.787   1.819   9.586  0.0771  0.3349 -0.6378
   64CHL1  H11A 7177   0.709   1.897   9.583  2.1447  2.6180  2.0880
   64CHL1  H11B 7178   0.733   1.721   9.582 -0.1907  0.3796  1.1411
   64CHL1    C9 7179   0.849   1.838   9.727  0.8876  0.2067  0.2748
   64CHL1    H9 7180   0.912   1.747   9.743  1.2221  0.2399 -0.7797
   64CHL1   C10 7181   0.753   1.845   9.844  0.2415 -0.6566 -0.4699
   64CHL1   C19 7182   0.646   1.953   9.814 -0.1712 -0.1802 -0.4365
   64CHL1  H19A 7183   0.591   1.931   9.720  0.1410 -0.5699 -0.5277
   64CHL1  H19B 7184   0.571   1.967   9.895  0.4826 -0.0840  0.1571
   64CHL1  H19C 7185   0.698   2.050   9.795  4.5561 -2.8026 -1.6106
   64CHL1    C1 7186   0.680   1.712   9.869  0.1929  0.6537  0.2668
   64CHL1   H1A 7187   0.625   1.690   9.775  2.7067  1.4983 -1.4828
   64CHL1   H1B 7188   0.761   1.636   9.864  0.5177  1.0854 -1.1327
   64CHL1    C2 7189   0.591   1.704   9.995  0.6356  0.9832  0.2262
   64CHL1   H2A 7190   0.549   1.602   9.987  1.5309  0.4671  2.0048
   64CHL1   H2B 7191   0.513   1.783   9.985  1.0563  1.1164 -2.4004
   64CHL1   C20 7192   1.091   1.961   9.243  0.2105 -1.1015 -0.3134
   64CHL1   H20 7193   0.984   1.942   9.219  0.0276 -0.8349  0.2646
   64CHL1   C21 7194   1.177   1.851   9.171 -0.7083 -0.0203 -0.3263
   64CHL1  H21A 7195   1.172   1.867   9.061 -1.6807 -0.1337 -0.2990
   64CHL1  H21B 7196   1.130   1.756   9.203 -0.5708  0.0323  0.0292
   64CHL1  H21C 7197   1.282   1.871   9.201 -0.8799 -0.0541  0.3017
   64CHL1   C22 7198   1.132   2.098   9.194 -1.0349 -0.1469  0.1008
   64CHL1  H22A 7199   1.094   2.186   9.251  1.0621  1.8649 -1.4577
   64CHL1  H22B 7200   1.243   2.101   9.206 -1.0498  1.0255  0.0393
   64CHL1   C23 7201   1.083   2.116   9.047  0.2344  0.6320 -0.7910
   64CHL1  H23A 7202   1.127   2.039   8.981  0.8985  0.1129  0.2445
   64CHL1  H23B 7203   0.972   2.112   9.052  0.2644  1.0002  0.2869
   64CHL1   C24 7204   1.126   2.247   8.987  1.2097 -0.4994 -0.3355
   64CHL1  H24A 7205   1.090   2.330   9.051 -1.9101 -1.0589 -1.3072
   64CHL1  H24B 7206   1.237   2.256   8.986  1.0971  1.0925 -2.8738
   64CHL1   C25 7207   1.073   2.278   8.841 -0.4215 -0.1546 -0.0560
   64CHL1   H25 7208   0.967   2.246   8.850 -0.1442 -0.6902  1.5088
   64CHL1   C26 7209   1.083   2.422   8.806 -1.2199 -0.0000 -0.3366
   64CHL1  H26A 7210   1.035   2.432   8.707  0.4807 -2.1008 -1.3964
   64CHL1  H26B 7211   1.028   2.478   8.885  0.3733  0.8719  0.1712
   64CHL1  H26C 7212   1.185   2.464   8.804  0.0850 -2.8094  2.5064
   64CHL1   C27 7213   1.156   2.204   8.747 -0.1420  0.2336  1.1732
   64CHL1  H27A 7214   1.260   2.239   8.731 -0.6237  0.3153 -2.2455
   64CHL1  H27B 7215   1.157   2.097   8.775 -0.8997 -0.4338 -1.2442
   64CHL1  H27C 7216   1.111   2.206   8.646  1.6697 -2.8921  0.2509
   65CHL1    C3 7217   3.312   6.018  10.318  0.3499  0.5161  0.2596
   65CHL1    H3 7218   3.281   5.912  10.315  1.2801  0.2580 -0.1964
   65CHL1    O3 7219   3.341   6.049  10.453  0.1108  0.0135 -0.1858
   65CHL1   H3' 7220   3.258   6.081  10.488 -0.0599 -1.6099  0.9315
   65CHL1    C4 7221   3.437   6.037  10.239 -0.1112  0.1285  0.2052
   65CHL1   H4A 7222   3.479   6.140  10.234  0.2713  0.0344  1.3965
   65CHL1   H4B 7223   3.519   5.973  10.276  0.8913  0.6245 -1.1161
   65CHL1    C5 7224   3.407   6.005  10.099  0.3450 -1.0966  0.6143
   65CHL1    C6 7225   3.472   5.904  10.035 -0.6242  0.1356  0.9685
   65CHL1    H6 7226   3.557   5.857  10.086 -0.9758  0.5586  1.9483
   65CHL1    C7 7227   3.445   5.866   9.891  0.4650 -0.2090 -0.2093
   65CHL1   H7A 7228   3.537   5.870   9.828  0.4670 -1.0806 -0.2743
   65CHL1   H7B 7229   3.411   5.761   9.878 -1.4801  0.6356 -2.2864
   65CHL1    C8 7230   3.354   5.965   9.815 -0.4645  0.2268 -0.8742
   65CHL1    H8 7231   3.423   6.048   9.786 -0.4298  0.5213  0.0205
   65CHL1   C14 7232   3.295   5.898   9.696 -0.0612  0.0740  0.3348
   65CHL1   H14 7233   3.234   5.817   9.740 -0.5803 -0.0184 -0.5477
   65CHL1   C15 7234   3.398   5.827   9.603  0.0138  0.5459  0.1906
   65CHL1  H15A 7235   3.496   5.875   9.581  0.8187 -1.3910 -0.5105
   65CHL1  H15B 7236   3.431   5.728   9.639 -0.0594  0.5789  0.3480
   65CHL1   C16 7237   3.324   5.819   9.465  0.7369  1.1572 -0.1032
   65CHL1  H16A 7238   3.376   5.878   9.387  1.1133  0.5634 -0.3071
   65CHL1  H16B 7239   3.299   5.717   9.428 -2.3565  1.0535  2.0197
   65CHL1   C17 7240   3.177   5.889   9.489  0.3605 -0.2772  0.5901
   65CHL1   H17 7241   3.107   5.818   9.537 -0.4252  1.4788  2.0980
   65CHL1   C13 7242   3.208   5.984   9.605  0.4548  0.0198 -0.0047
   65CHL1   C18 7243   3.281   6.109   9.555 -1.0051  1.0064  0.0683
   65CHL1  H18A 7244   3.307   6.177   9.639 -0.0216  1.8907 -0.9329
   65CHL1  H18B 7245   3.369   6.074   9.496 -2.3266 -0.8485 -0.8314
   65CHL1  H18C 7246   3.214   6.171   9.491 -1.3805 -0.0530 -0.5754
   65CHL1   C12 7247   3.082   6.016   9.692 -0.1189  0.0242  0.2994
   65CHL1  H12A 7248   3.007   6.075   9.635 -0.8885  0.7505  2.0387
   65CHL1  H12B 7249   3.045   5.913   9.712  0.1216  0.1680  1.4913
   65CHL1   C11 7250   3.124   6.089   9.821 -0.2648  0.4552 -0.4458
   65CHL1  H11A 7251   3.161   6.190   9.792  1.1859 -0.7331 -2.9351
   65CHL1  H11B 7252   3.030   6.111   9.876  0.5958  0.1537  1.1759
   65CHL1    C9 7253   3.233   6.014   9.902  0.0540 -0.5540  0.6879
   65CHL1    H9 7254   3.180   5.919   9.925  1.2729 -1.3368  0.3221
   65CHL1   C10 7255   3.293   6.079  10.032  0.5748 -0.9168  0.4883
   65CHL1   C19 7256   3.339   6.221   9.998 -1.0081 -0.1964  0.9216
   65CHL1  H19A 7257   3.263   6.298   9.973 -0.7934 -0.7873 -1.6671
   65CHL1  H19B 7258   3.383   6.275  10.084 -0.8429  0.4711  0.4248
   65CHL1  H19C 7259   3.401   6.213   9.906 -0.1162 -0.7332  1.5684
   65CHL1    C1 7260   3.164   6.089  10.121 -0.0346 -0.3342  0.2500
   65CHL1   H1A 7261   3.100   6.175  10.092 -0.1348 -0.2995  0.5701
   65CHL1   H1B 7262   3.112   5.992  10.107 -0.5877  0.1350 -1.0261
   65CHL1    C2 7263   3.194   6.102  10.267 -0.1719 -0.6776  0.4379
   65CHL1   H2A 7264   3.100   6.080  10.320 -1.1264  0.9155 -0.5487
   65CHL1   H2B 7265   3.227   6.209  10.270  2.9538 -1.4996 -1.7817
   65CHL1   C20 7266   3.112   5.934   9.359  0.3512 -0.0479  0.7168
   65CHL1   H20 7267   3.029   6.000   9.393 -0.6566  1.5919 -4.4585
   65CHL1   C21 7268   3.047   5.812   9.288  0.3589 -0.1010  0.1497
   65CHL1  H21A 7269   3.127   5.757   9.233 -2.1137 -1.8828 -1.7654
   65CHL1  H21B 7270   2.981   5.843   9.204  0.3515 -1.8081 -0.5003
   65CHL1  H21C 7271   2.985   5.750   9.356 -0.1345 -1.1836 -1.2657
   65CHL1   C22 7272   3.194   6.014   9.256 -0.6750  0.7290  0.0638
   65CHL1  H22A 7273   3.262   6.088   9.304  0.3531  1.3684 -2.3114
   65CHL1  H22B 7274   3.263   5.943   9.207 -2.4792 -0.0554 -1.3934
   65CHL1   C23 7275   3.117   6.084   9.137  0.3460 -0.5481  0.2081
   65CHL1  H23A 7276   3.056   6.007   9.087  3.7765 -3.5736  0.4806
   65CHL1  H23B 7277   3.054   6.164   9.181  0.2973 -0.9195  0.8135
   65CHL1   C24 7278   3.213   6.161   9.040 -0.1995  0.0423 -0.3304
   65CHL1  H24A 7279   3.269   6.236   9.100  0.6949 -0.5307 -0.4500
   65CHL1  H24B 7280   3.286   6.091   8.995 -1.5156 -0.8605 -1.1089
   65CHL1   C25 7281   3.139   6.247   8.938  0.2809  0.0073  0.1094
   65CHL1   H25 7282   3.077   6.316   9.000  1.3773  2.7050 -1.6753
   65CHL1   C26 7283   3.246   6.319   8.864 -0.2228 -0.2141  0.1809
   65CHL1  H26A 7284   3.319   6.371   8.929  2.0180  0.5694 -2.8076
   65CHL1  H26B 7285   3.297   6.248   8.795  1.6265 -0.0809  1.3681
   65CHL1  H26C 7286   3.204   6.396   8.796 -1.8914  0.4738  1.9712
   65CHL1   C27 7287   3.045   6.167   8.844  0.5185  0.2854  0.6480
   65CHL1  H27A 7288   2.959   6.123   8.898  1.7157 -1.1425  1.4443
   65CHL1  H27B 7289   3.022   6.221   8.750 -2.2972 -1.9158  0.0257
   65CHL1  H27C 7290   3.109   6.087   8.800  2.1368  1.8274  0.1036
   66CHL1    C3 7291   0.761   3.993  10.566  0.9361 -0.2924  0.3299
   66CHL1    H3 7292   0.671   4.054  10.544  2.2202  1.8734  0.8685
   66CHL1    O3 7293   0.759   3.951  10.705 -0.2149  0.2116  0.1504
   66CHL1   H3' 7294   0.854   3.949  10.723  0.3463 -2.5506 -2.6500
   66CHL1    C4 7295   0.772   3.859  10.482 -0.0031 -0.0360 -0.1690
   66CHL1   H4A 7296   0.848   3.792  10.529  1.6142  0.5607 -1.8542
   66CHL1   H4B 7297   0.678   3.804  10.505 -0.7449  1.7375  1.1540
   66CHL1    C5 7298   0.787   3.890  10.339  0.8370  0.3924  0.5891
   66CHL1    C6 7299   0.708   3.840  10.249 -0.2371  0.0085  0.2281
   66CHL1    H6 7300   0.628   3.772  10.281 -2.0990  1.0193 -2.1391
   66CHL1    C7 7301   0.710   3.862  10.103  0.2083 -0.2585 -0.4451
   66CHL1   H7A 7302   0.682   3.769  10.051  0.4780 -0.3776 -0.3773
   66CHL1   H7B 7303   0.624   3.922  10.067 -0.4133 -1.2457 -0.6099
   66CHL1    C8 7304   0.849   3.923  10.063 -0.1569 -0.6426 -0.1129
   66CHL1    H8 7305   0.922   3.840  10.073 -0.3626 -1.1485 -2.5389
   66CHL1   C14 7306   0.852   3.979   9.920  0.4210  0.2930 -0.5825
   66CHL1   H14 7307   0.774   4.057   9.930  0.4603  0.2192  0.3517
   66CHL1   C15 7308   0.807   3.890   9.810 -0.9456  0.6020 -0.1835
   66CHL1  H15A 7309   0.875   3.803   9.798  1.3058  2.4775 -1.4177
   66CHL1  H15B 7310   0.708   3.840   9.811 -0.7020  0.1187 -0.0764
   66CHL1   C16 7311   0.827   3.972   9.685 -0.4462 -0.2953 -0.8167
   66CHL1  H16A 7312   0.855   3.914   9.595  0.6231  1.0349 -1.3719
   66CHL1  H16B 7313   0.731   4.019   9.656 -0.1852  2.5908  2.6126
   66CHL1   C17 7314   0.925   4.085   9.721 -0.7014 -0.1545 -0.3310
   66CHL1   H17 7315   0.870   4.181   9.732  1.6133  1.1872 -0.1322
   66CHL1   C13 7316   0.974   4.045   9.868  0.5166 -0.5895 -0.2378
   66CHL1   C18 7317   1.087   3.940   9.860 -0.0814 -0.1818 -0.0405
   66CHL1  H18A 7318   1.183   3.974   9.816  0.3524  1.4975  2.1109
   66CHL1  H18B 7319   1.109   3.910   9.965  1.6646 -0.9839 -0.6173
   66CHL1  H18C 7320   1.059   3.844   9.811 -1.5437  0.2951 -0.1485
   66CHL1   C12 7321   1.023   4.158   9.962  0.1782  0.0853  1.2652
   66CHL1  H12A 7322   1.118   4.195   9.918  0.8792 -2.0603  0.9210
   66CHL1  H12B 7323   0.951   4.240   9.941 -0.8392 -1.0401  0.3010
   66CHL1   C11 7324   1.025   4.107  10.107 -0.3315 -0.2579  0.5441
   66CHL1  H11A 7325   1.111   4.036  10.104 -0.3371 -0.2780  0.8760
   66CHL1  H11B 7326   1.054   4.196  10.167 -2.6907  1.5533 -0.9076
   66CHL1    C9 7327   0.894   4.033  10.159  0.8235  0.6993  0.5502
   66CHL1    H9 7328   0.816   4.111  10.159 -0.2306 -0.3445 -0.2465
   66CHL1   C10 7329   0.903   3.985  10.307 -0.3623  0.4930 -0.6446
   66CHL1   C19 7330   1.042   3.922  10.326  0.0472 -0.0418 -0.3211
   66CHL1  H19A 7331   1.117   4.003  10.342 -0.3459  0.5293 -1.3351
   66CHL1  H19B 7332   1.037   3.858  10.416 -1.1618  0.5033  0.0038
   66CHL1  H19C 7333   1.068   3.849  10.246 -1.7461 -0.6467 -0.3679
   66CHL1    C1 7334   0.894   4.111  10.399  0.0888 -0.2319 -0.4895
   66CHL1   H1A 7335   0.977   4.183  10.385  0.7277 -0.4202  2.1382
   66CHL1   H1B 7336   0.799   4.164  10.374  0.5163 -0.0512 -1.7693
   66CHL1    C2 7337   0.884   4.077  10.549  0.3554 -0.2341  0.3399
   66CHL1   H2A 7338   0.880   4.169  10.610 -0.5579  0.1249 -0.2405
   66CHL1   H2B 7339   0.976   4.020  10.575  1.0417 -0.8813 -3.2199
   66CHL1   C20 7340   1.036   4.102   9.608 -0.0826 -0.0349  0.2453
   66CHL1   H20 7341   1.089   4.006   9.595  2.1037  1.2453 -0.5398
   66CHL1   C21 7342   1.144   4.205   9.652  0.3542  0.3348  0.0644
   66CHL1  H21A 7343   1.200   4.235   9.561 -0.2258  0.2693 -0.3195
   66CHL1  H21B 7344   1.209   4.150   9.723  0.2877 -0.6668 -0.6370
   66CHL1  H21C 7345   1.089   4.295   9.685 -1.2751  0.2766 -2.3721
   66CHL1   C22 7346   0.975   4.147   9.472  0.5444 -0.1242  0.3396
   66CHL1  H22A 7347   0.864   4.151   9.468  0.3199 -0.9404  3.6529
   66CHL1  H22B 7348   0.999   4.256   9.463 -1.4938  0.1650 -1.9525
   66CHL1   C23 7349   1.033   4.075   9.346  0.4128  0.1070  0.7257
   66CHL1  H23A 7350   1.144   4.082   9.342  0.5947 -0.9569  3.1592
   66CHL1  H23B 7351   1.014   3.967   9.367  2.2518 -0.4828 -0.4487
   66CHL1   C24 7352   0.963   4.116   9.214  0.5405 -0.2303 -0.1599
   66CHL1  H24A 7353   0.979   4.028   9.147 -3.4180 -0.9294 -0.3031
   66CHL1  H24B 7354   0.852   4.120   9.227  0.6156  3.2893 -0.3277
   66CHL1   C25 7355   0.999   4.255   9.157  0.3606 -0.0193  0.8443
   66CHL1   H25 7356   0.985   4.335   9.233  2.2402  0.1630  1.0175
   66CHL1   C26 7357   1.141   4.256   9.099  0.7372 -0.2006  0.2055
   66CHL1  H26A 7358   1.148   4.159   9.046  0.8920 -0.2016  0.2286
   66CHL1  H26B 7359   1.149   4.346   9.035 -0.7409  1.5104  2.3579
   66CHL1  H26C 7360   1.214   4.254   9.183  1.1068 -1.6195 -0.1318
   66CHL1   C27 7361   0.888   4.288   9.054  0.3546  0.3281  0.6802
   66CHL1  H27A 7362   0.908   4.380   8.996  0.0437 -0.0003  0.0336
   66CHL1  H27B 7363   0.889   4.205   8.979  0.8201  1.3262 -0.4291
   66CHL1  H27C 7364   0.787   4.297   9.100 -0.5054 -0.8712 -0.9078
   67CHL1    C3 7365   5.600   4.795  10.228 -0.2525  0.2251  0.6358
   67CHL1    H3 7366   5.599   4.904  10.209  1.2723  0.0985 -0.2903
   67CHL1    O3 7367   5.629   4.771  10.365 -0.4036 -0.2847 -0.2887
   67CHL1   H3' 7368   5.634   4.676  10.376  0.7708 -0.1487  0.5119
   67CHL1    C4 7369   5.466   4.725  10.182 -0.9259  0.2791 -0.0442
   67CHL1   H4A 7370   5.469   4.618  10.212  1.3439  0.1743 -0.5468
   67CHL1   H4B 7371   5.383   4.770  10.240  0.4011  0.7371  1.5259
   67CHL1    C5 7372   5.433   4.725  10.035 -0.3465  0.5571 -0.1287
   67CHL1    C6 7373   5.312   4.758   9.999 -0.4132  0.6421  0.4035
   67CHL1    H6 7374   5.236   4.782  10.075  0.1834 -0.4435  1.3537
   67CHL1    C7 7375   5.266   4.767   9.854  0.0703  0.0764  0.7463
   67CHL1   H7A 7376   5.167   4.717   9.847  0.4777 -0.6698  0.2331
   67CHL1   H7B 7377   5.240   4.873   9.834  1.5433  0.4638  0.7769
   67CHL1    C8 7378   5.369   4.702   9.756 -0.6086  0.0470  0.1774
   67CHL1    H8 7379   5.363   4.593   9.777  1.4421  0.4224  2.8984
   67CHL1   C14 7380   5.339   4.757   9.618  0.1596  0.1330 -0.1913
   67CHL1   H14 7381   5.366   4.864   9.624  1.7416 -0.2361 -0.3692
   67CHL1   C15 7382   5.195   4.754   9.567  0.2747  0.1042 -0.3044
   67CHL1  H15A 7383   5.133   4.665   9.587  1.2860 -0.6066 -0.2868
   67CHL1  H15B 7384   5.139   4.838   9.612 -2.2181 -1.6220 -0.1095
   67CHL1   C16 7385   5.223   4.788   9.416  0.7635  0.0310 -0.5954
   67CHL1  H16A 7386   5.166   4.710   9.362 -0.5011 -0.1858  0.9820
   67CHL1  H16B 7387   5.186   4.886   9.378 -2.4045 -1.3228 -1.1126
   67CHL1   C17 7388   5.374   4.778   9.387  0.3767 -0.4835 -0.3288
   67CHL1   H17 7389   5.415   4.881   9.388  2.2474 -1.2166  0.5895
   67CHL1   C13 7390   5.434   4.704   9.512  0.6633 -0.5392  0.5881
   67CHL1   C18 7391   5.414   4.549   9.499 -0.2568 -0.0669 -0.7606
   67CHL1  H18A 7392   5.316   4.513   9.460 -0.9181  0.2918  0.5086
   67CHL1  H18B 7393   5.495   4.507   9.437  1.3474 -0.1777  1.3573
   67CHL1  H18C 7394   5.442   4.502   9.596 -1.3382  0.9249  0.0564
   67CHL1   C12 7395   5.585   4.736   9.555 -0.2100  0.3337 -0.2726
   67CHL1  H12A 7396   5.663   4.702   9.484  0.4917  1.3436  0.0023
   67CHL1  H12B 7397   5.586   4.847   9.551 -2.7747  0.3315 -1.5748
   67CHL1   C11 7398   5.615   4.684   9.697  0.4181  0.3038  0.0739
   67CHL1  H11A 7399   5.616   4.574   9.682 -2.7427  0.5473 -2.3950
   67CHL1  H11B 7400   5.708   4.727   9.742  0.5508 -2.0004  2.1219
   67CHL1    C9 7401   5.512   4.730   9.798  0.2489  0.4501 -0.0580
   67CHL1    H9 7402   5.512   4.840   9.810 -1.0824  0.3639  0.8446
   67CHL1   C10 7403   5.555   4.683   9.945  0.4372  0.3860 -0.2415
   67CHL1   C19 7404   5.576   4.535   9.945 -0.1587  0.7224 -0.4032
   67CHL1  H19A 7405   5.670   4.512   9.891 -0.9620 -1.9961 -0.7377
   67CHL1  H19B 7406   5.586   4.497  10.049  0.7032  0.9692 -0.3930
   67CHL1  H19C 7407   5.497   4.467   9.906  0.8434 -1.1646  0.7656
   67CHL1    C1 7408   5.677   4.773   9.992  0.0730 -0.0537  0.1101
   67CHL1   H1A 7409   5.758   4.747   9.921 -0.3252  0.0556 -0.3878
   67CHL1   H1B 7410   5.650   4.880   9.983 -0.5425 -0.2175 -0.0290
   67CHL1    C2 7411   5.714   4.751  10.144 -1.2596 -0.6648 -0.4585
   67CHL1   H2A 7412   5.809   4.795  10.181 -1.9842 -0.6333  1.4134
   67CHL1   H2B 7413   5.732   4.642  10.146 -0.8505 -0.6371 -1.9852
   67CHL1   C20 7414   5.416   4.717   9.246  0.2472 -0.1786  0.0828
   67CHL1   H20 7415   5.384   4.612   9.230  0.1112 -0.6920  3.4391
   67CHL1   C21 7416   5.567   4.724   9.227  0.4506  0.4547 -0.0696
   67CHL1  H21A 7417   5.614   4.654   9.299  0.0683 -0.1297 -0.3809
   67CHL1  H21B 7418   5.600   4.830   9.232 -4.0008  1.9261  1.4625
   67CHL1  H21C 7419   5.597   4.681   9.129 -0.8982  0.3962 -0.4716
   67CHL1   C22 7420   5.352   4.790   9.128 -0.4988 -0.3065  0.0470
   67CHL1  H22A 7421   5.330   4.897   9.150  0.4235  0.1335 -1.1047
   67CHL1  H22B 7422   5.421   4.798   9.041 -0.8413 -0.6231 -0.2613
   67CHL1   C23 7423   5.219   4.719   9.074  0.0054  0.4137 -0.6919
   67CHL1  H23A 7424   5.233   4.611   9.097  1.9049  0.5240 -1.2133
   67CHL1  H23B 7425   5.149   4.761   9.150  1.2314  1.9320 -0.3520
   67CHL1   C24 7426   5.197   4.750   8.933  0.3481  0.0937 -0.3789
   67CHL1  H24A 7427   5.176   4.859   8.929  0.8273  0.2350  0.6907
   67CHL1  H24B 7428   5.290   4.727   8.876  1.1044  1.3656  0.3091
   67CHL1   C25 7429   5.074   4.670   8.875 -0.2729  0.2560  0.4280
   67CHL1   H25 7430   4.981   4.700   8.927  1.1120  1.2401  2.4015
   67CHL1   C26 7431   5.063   4.693   8.721  0.3373  0.0830  0.1442
   67CHL1  H26A 7432   5.028   4.794   8.695  1.4620  0.1871 -0.9976
   67CHL1  H26B 7433   5.162   4.671   8.675  0.4270 -0.1299  0.4344
   67CHL1  H26C 7434   4.985   4.629   8.675 -1.8461  1.4524  1.8364
   67CHL1   C27 7435   5.095   4.516   8.884  0.0697 -0.0846 -0.5391
   67CHL1  H27A 7436   5.094   4.473   8.986  1.1279 -0.4582 -0.6827
   67CHL1  H27B 7437   5.002   4.485   8.831 -0.6198  2.5964 -0.9949
   67CHL1  H27C 7438   5.188   4.477   8.839 -0.4529 -0.2223 -1.5337
   68CHL1    C3 7439   3.240   5.514  10.436 -0.6318  1.0198 -0.3775
   68CHL1    H3 7440   3.136   5.479  10.452 -0.8955  1.6604 -0.6689
   68CHL1    O3 7441   3.310   5.549  10.555  0.0125 -0.1165 -0.2894
   68CHL1   H3' 7442   3.266   5.623  10.598 -1.9627 -0.4891 -1.6434
   68CHL1    C4 7443   3.322   5.393  10.373 -0.3345 -0.3006  0.0325
   68CHL1   H4A 7444   3.427   5.429  10.366 -1.0940  1.8073 -0.9060
   68CHL1   H4B 7445   3.338   5.302  10.435  2.8189 -0.4694 -0.9227
   68CHL1    C5 7446   3.272   5.354  10.236 -0.3396 -0.4424  0.0769
   68CHL1    C6 7447   3.232   5.231  10.203  0.0445 -0.3017 -0.6735
   68CHL1    H6 7448   3.253   5.152  10.276 -0.3200  1.4120  1.3326
   68CHL1    C7 7449   3.175   5.196  10.069 -0.3439  0.6155  0.0518
   68CHL1   H7A 7450   3.204   5.094  10.033 -2.0990  0.1820 -0.2041
   68CHL1   H7B 7451   3.064   5.197  10.058 -0.2081  0.6538 -1.5403
   68CHL1    C8 7452   3.218   5.296   9.963  0.1047  0.1602 -0.0254
   68CHL1    H8 7453   3.327   5.284   9.941  0.5856 -0.8348  2.7206
   68CHL1   C14 7454   3.147   5.257   9.832  0.0623 -0.5565  0.5221
   68CHL1   H14 7455   3.037   5.250   9.849 -0.0485 -0.4904 -0.1567
   68CHL1   C15 7456   3.182   5.117   9.767 -0.1683 -0.7424  0.5282
   68CHL1  H15A 7457   3.287   5.087   9.786  0.5068  0.8880 -0.5095
   68CHL1  H15B 7458   3.112   5.039   9.805 -0.0451 -0.5488  1.1530
   68CHL1   C16 7459   3.155   5.138   9.614  0.1943 -0.4596  0.5910
   68CHL1  H16A 7460   3.258   5.133   9.573 -1.0972 -1.6544 -2.6947
   68CHL1  H16B 7461   3.083   5.070   9.562 -3.3394  2.0339  2.0589
   68CHL1   C17 7462   3.110   5.288   9.598  0.0287  0.5796  0.1128
   68CHL1   H17 7463   2.999   5.285   9.603  0.0737  0.2133  0.9597
   68CHL1   C13 7464   3.172   5.363   9.717 -0.3117  0.3061  0.1896
   68CHL1   C18 7465   3.325   5.393   9.687 -0.9048  0.1944 -0.0837
   68CHL1  H18A 7466   3.388   5.417   9.775  2.2625 -0.1940 -2.1644
   68CHL1  H18B 7467   3.373   5.305   9.639 -1.0535 -0.7178  1.3929
   68CHL1  H18C 7468   3.336   5.480   9.619  0.0671 -0.6709 -1.0699
   68CHL1   C12 7469   3.113   5.500   9.755 -0.2469 -0.4903  0.2391
   68CHL1  H12A 7470   3.119   5.580   9.677 -2.6265 -0.1899  0.3117
   68CHL1  H12B 7471   3.003   5.486   9.761 -0.3057 -0.6919 -1.2197
   68CHL1   C11 7472   3.190   5.544   9.886  0.2219  0.1010  0.4606
   68CHL1  H11A 7473   3.288   5.580   9.849 -0.1965 -0.7685 -1.5266
   68CHL1  H11B 7474   3.136   5.638   9.910 -2.8422 -1.7516  1.1130
   68CHL1    C9 7475   3.181   5.438  10.001 -0.1745  0.1497  0.1694
   68CHL1    H9 7476   3.073   5.424  10.025 -0.2437  0.2096 -0.1113
   68CHL1   C10 7477   3.250   5.477  10.136 -0.8256 -0.0228  0.1551
   68CHL1   C19 7478   3.391   5.527  10.097  0.2902  0.0779  0.0748
   68CHL1  H19A 7479   3.461   5.529  10.183 -0.7117  0.5673  0.8952
   68CHL1  H19B 7480   3.434   5.462  10.019 -0.1788 -0.9446  0.6478
   68CHL1  H19C 7481   3.382   5.629  10.056  0.5266 -0.4559 -1.3195
   68CHL1    C1 7482   3.168   5.597  10.201 -0.5068  0.5271  0.0027
   68CHL1   H1A 7483   3.185   5.680  10.129  0.9427 -0.1107 -0.4176
   68CHL1   H1B 7484   3.061   5.567  10.203 -0.7878  1.5431  0.5529
   68CHL1    C2 7485   3.225   5.632  10.341  0.1342 -0.0055 -0.3712
   68CHL1   H2A 7486   3.154   5.703  10.387 -2.3869 -1.7705 -1.3684
   68CHL1   H2B 7487   3.322   5.683  10.326  0.3957 -0.7576 -1.3485
   68CHL1   C20 7488   3.127   5.334   9.451 -0.2630 -0.4846  0.2985
   68CHL1   H20 7489   3.219   5.396   9.457  0.5923 -1.8534  2.2356
   68CHL1   C21 7490   3.008   5.430   9.421 -0.3637 -0.1448 -0.5232
   68CHL1  H21A 7491   3.014   5.496   9.332 -0.3618  1.4687  0.6492
   68CHL1  H21B 7492   3.004   5.501   9.506 -0.0870 -0.8934  0.1169
   68CHL1  H21C 7493   2.915   5.369   9.421  0.3507 -1.2572 -1.7075
   68CHL1   C22 7494   3.158   5.229   9.339  0.2489 -0.3179 -0.3060
   68CHL1  H22A 7495   3.246   5.171   9.374 -0.2856 -0.8664  0.1355
   68CHL1  H22B 7496   3.077   5.154   9.335  2.1331 -2.3726 -0.4996
   68CHL1   C23 7497   3.195   5.287   9.199 -0.2308 -0.4358 -0.1397
   68CHL1  H23A 7498   3.111   5.344   9.154  0.7211  2.2115  1.3133
   68CHL1  H23B 7499   3.283   5.352   9.219 -1.5959  1.7878 -1.1782
   68CHL1   C24 7500   3.234   5.178   9.099 -0.2323  0.3302 -0.4072
   68CHL1  H24A 7501   3.331   5.127   9.117  0.3141  0.9140 -1.6449
   68CHL1  H24B 7502   3.161   5.095   9.101  0.4673 -0.2754  0.5239
   68CHL1   C25 7503   3.232   5.229   8.949  0.4167  0.0157 -0.3002
   68CHL1   H25 7504   3.129   5.264   8.928 -0.4768 -2.2850  0.0473
   68CHL1   C26 7505   3.343   5.330   8.926  0.0456 -0.5209 -0.0347
   68CHL1  H26A 7506   3.434   5.270   8.902  0.5991 -0.1529  1.0954
   68CHL1  H26B 7507   3.324   5.380   8.829  1.2588  1.7087  0.8389
   68CHL1  H26C 7508   3.354   5.412   8.999 -0.3883 -0.1860 -0.3493
   68CHL1   C27 7509   3.257   5.110   8.852  0.4576 -0.1003 -0.5013
   68CHL1  H27A 7510   3.359   5.068   8.852 -0.5334 -2.6538  0.9963
   68CHL1  H27B 7511   3.183   5.034   8.885  1.7563 -1.1964 -0.1109
   68CHL1  H27C 7512   3.227   5.143   8.750 -1.7509  0.7635  0.3744
   69CHL1    C3 7513   2.558   3.990   6.734 -0.5565 -0.3397 -0.3299
   69CHL1    H3 7514   2.465   3.962   6.789 -0.4418 -0.8423 -0.3886
   69CHL1    O3 7515   2.542   3.975   6.597 -0.4679  0.3554  0.8531
   69CHL1   H3' 7516   2.593   3.903   6.559  0.2381  0.6135  1.2986
   69CHL1    C4 7517   2.605   4.135   6.776 -0.7903 -0.2241  0.4745
   69CHL1   H4A 7518   2.703   4.167   6.735 -2.8357  3.1216 -2.0471
   69CHL1   H4B 7519   2.536   4.205   6.724  0.7335  0.6866 -0.3528
   69CHL1    C5 7520   2.606   4.153   6.931  0.1678 -0.4925 -0.1129
   69CHL1    C6 7521   2.526   4.235   6.998 -1.0720 -0.3355 -0.0335
   69CHL1    H6 7522   2.469   4.311   6.942  1.6207  0.8173 -1.3283
   69CHL1    C7 7523   2.552   4.252   7.148  0.6462  0.2189  0.5738
   69CHL1   H7A 7524   2.538   4.359   7.174  0.7118  0.0938  1.1251
   69CHL1   H7B 7525   2.458   4.214   7.194 -0.0249  0.7372 -0.3411
   69CHL1    C8 7526   2.670   4.188   7.208 -0.6170  0.3928  0.6656
   69CHL1    H8 7527   2.765   4.238   7.180  0.5175 -1.2693  1.4203
   69CHL1   C14 7528   2.666   4.178   7.354  0.3438 -0.1273 -0.3765
   69CHL1   H14 7529   2.580   4.109   7.368 -0.3841  0.2431 -2.8951
   69CHL1   C15 7530   2.635   4.305   7.427  0.1875  0.5286 -0.6164
   69CHL1  H15A 7531   2.682   4.391   7.374 -0.1130 -0.8976 -3.2856
   69CHL1  H15B 7532   2.528   4.335   7.432 -0.1053 -0.7495  1.4507
   69CHL1   C16 7533   2.698   4.281   7.566  0.0419  0.0361  0.5859
   69CHL1  H16A 7534   2.780   4.355   7.574 -1.1924  1.2897  1.9323
   69CHL1  H16B 7535   2.627   4.294   7.651  1.1868  0.0438  1.5616
   69CHL1   C17 7536   2.758   4.140   7.565 -0.1778  0.2916  0.2321
   69CHL1   H17 7537   2.687   4.063   7.600 -0.0732  0.2022  0.2475
   69CHL1   C13 7538   2.790   4.111   7.418 -0.6368 -0.5832  0.7944
   69CHL1   C18 7539   2.923   4.190   7.383  0.3275 -0.0003 -0.5357
   69CHL1  H18A 7540   2.909   4.297   7.410 -0.7247 -0.3887  0.5005
   69CHL1  H18B 7541   3.010   4.144   7.435 -0.9339 -2.0577 -0.1633
   69CHL1  H18C 7542   2.944   4.193   7.274  0.4293  2.5745 -0.4743
   69CHL1   C12 7543   2.799   3.971   7.368  0.4885 -0.6156  0.1606
   69CHL1  H12A 7544   2.889   3.921   7.410 -0.7302 -2.2753  0.8448
   69CHL1  H12B 7545   2.711   3.917   7.408  1.3102 -0.7618  1.8309
   69CHL1   C11 7546   2.800   3.957   7.220 -0.1967  0.1348 -0.4328
   69CHL1  H11A 7547   2.890   4.019   7.199  0.1033  1.3750  3.9723
   69CHL1  H11B 7548   2.824   3.863   7.166 -0.4636  0.0098 -0.3335
   69CHL1    C9 7549   2.685   4.047   7.154 -0.1731 -0.6448  0.7618
   69CHL1    H9 7550   2.591   3.992   7.176 -2.2476  2.6697  0.3975
   69CHL1   C10 7551   2.703   4.052   6.996 -0.2209 -0.2267  0.4010
   69CHL1   C19 7552   2.846   4.093   6.953  0.5613  0.2636  0.2439
   69CHL1  H19A 7553   2.860   4.105   6.844 -0.2291 -0.6459  0.0304
   69CHL1  H19B 7554   2.865   4.192   7.000  0.4283  0.7060 -0.6345
   69CHL1  H19C 7555   2.910   4.007   6.983 -1.5470 -2.1998 -2.0710
   69CHL1    C1 7556   2.662   3.907   6.944 -0.1048 -0.3878 -0.4538
   69CHL1   H1A 7557   2.752   3.850   6.974 -1.3669 -3.0579 -1.6103
   69CHL1   H1B 7558   2.561   3.879   6.983 -0.2445 -0.5625 -0.9438
   69CHL1    C2 7559   2.661   3.894   6.789  0.0820  0.1266 -0.4489
   69CHL1   H2A 7560   2.637   3.790   6.758 -1.3522  0.2149  0.3423
   69CHL1   H2B 7561   2.759   3.914   6.741 -0.0910 -1.1130 -1.3329
   69CHL1   C20 7562   2.876   4.127   7.669  0.4360 -0.9535 -0.3133
   69CHL1   H20 7563   2.972   4.178   7.649 -0.2716 -0.3891 -2.4164
   69CHL1   C21 7564   2.918   3.982   7.673  0.7333 -0.6693  0.2019
   69CHL1  H21A 7565   2.830   3.914   7.671 -0.2112  0.5510 -1.0146
   69CHL1  H21B 7566   2.987   3.957   7.756  0.3489 -1.3310  0.3251
   69CHL1  H21C 7567   2.984   3.960   7.586  0.1513  0.6171 -0.5875
   69CHL1   C22 7568   2.825   4.162   7.811 -0.7474 -0.6457 -0.9947
   69CHL1  H22A 7569   2.796   4.270   7.813 -0.4001 -0.5409 -1.5464
   69CHL1  H22B 7570   2.728   4.112   7.833  0.0132 -2.2324 -1.1968
   69CHL1   C23 7571   2.921   4.153   7.928 -0.2577  0.1425  0.0142
   69CHL1  H23A 7572   2.952   4.047   7.940 -0.6401 -0.1986 -1.8937
   69CHL1  H23B 7573   3.010   4.215   7.900  0.3319  0.3566  2.2294
   69CHL1   C24 7574   2.853   4.201   8.056  0.2999 -0.0728  0.4723
   69CHL1  H24A 7575   2.825   4.306   8.034 -2.1724 -0.6823  0.5062
   69CHL1  H24B 7576   2.767   4.138   8.088 -0.6726  0.6971 -0.5670
   69CHL1   C25 7577   2.944   4.191   8.179 -0.1058 -0.1421 -0.0055
   69CHL1   H25 7578   3.046   4.229   8.155  0.7327 -0.6876  2.5063
   69CHL1   C26 7579   2.891   4.262   8.307  0.1616  0.3228 -0.6836
   69CHL1  H26A 7580   2.888   4.371   8.287 -1.2902  0.2298 -1.0801
   69CHL1  H26B 7581   2.787   4.231   8.331 -1.0165  4.3069 -0.2268
   69CHL1  H26C 7582   2.948   4.238   8.399 -2.7147  1.9565  1.6163
   69CHL1   C27 7583   2.961   4.036   8.209 -0.1435  0.1084  0.2124
   69CHL1  H27A 7584   3.001   4.023   8.312  0.1103  1.2298  0.2555
   69CHL1  H27B 7585   2.861   3.987   8.198  0.1593 -0.6217  0.6281
   69CHL1  H27C 7586   3.028   3.984   8.137 -1.3910 -2.2793  0.6958
   70CHL1    C3 7587   1.713   0.844   7.220 -0.0683 -0.4101  0.4139
   70CHL1    H3 7588   1.732   0.738   7.196  2.3039  0.4198 -1.5461
   70CHL1    O3 7589   1.721   0.928   7.105  0.0235  0.8088  0.0792
   70CHL1   H3' 7590   1.665   1.001   7.133  2.9611  3.2986 -0.2947
   70CHL1    C4 7591   1.576   0.863   7.284  0.9305 -0.4613  0.1511
   70CHL1   H4A 7592   1.539   0.968   7.285 -1.3756 -1.2376  0.4053
   70CHL1   H4B 7593   1.507   0.820   7.209 -0.0063  2.5303 -0.7842
   70CHL1    C5 7594   1.574   0.802   7.425 -0.5770 -0.7038  0.2454
   70CHL1    C6 7595   1.480   0.710   7.456  0.2562  0.4755  0.3266
   70CHL1    H6 7596   1.407   0.671   7.383 -0.8294  1.3973  0.8851
   70CHL1    C7 7597   1.477   0.650   7.594  0.5813  0.3453 -0.0185
   70CHL1   H7A 7598   1.376   0.605   7.606  0.5384 -0.1865 -2.2146
   70CHL1   H7B 7599   1.534   0.554   7.594 -0.0482 -0.0802 -3.4676
   70CHL1    C8 7600   1.536   0.745   7.702 -0.4215 -0.2818 -0.1311
   70CHL1    H8 7601   1.466   0.830   7.716 -0.5044 -0.2063 -0.9841
   70CHL1   C14 7602   1.539   0.662   7.835 -0.4973 -0.0519  0.2898
   70CHL1   H14 7603   1.598   0.570   7.816 -1.9018 -1.7115  3.5342
   70CHL1   C15 7604   1.408   0.610   7.877 -0.4124 -0.1252  0.7419
   70CHL1  H15A 7605   1.323   0.680   7.857 -2.1897 -2.5220 -0.3442
   70CHL1  H15B 7606   1.376   0.524   7.814  3.0661 -0.8022 -0.1677
   70CHL1   C16 7607   1.416   0.584   8.028 -0.1734  0.3411 -1.0285
   70CHL1  H16A 7608   1.339   0.634   8.090 -2.1788 -1.6139 -1.8858
   70CHL1  H16B 7609   1.404   0.475   8.042  0.8257  0.2625 -0.7445
   70CHL1   C17 7610   1.563   0.630   8.065  0.6810 -0.2990  0.6925
   70CHL1   H17 7611   1.617   0.535   8.042 -0.0909 -0.8470  1.1039
   70CHL1   C13 7612   1.600   0.734   7.957 -0.0906  0.4389 -0.1907
   70CHL1   C18 7613   1.524   0.864   7.999  0.1924  0.5596 -0.5881
   70CHL1  H18A 7614   1.568   0.904   8.093  0.3606  0.9336 -0.8287
   70CHL1  H18B 7615   1.535   0.942   7.921 -0.1560  0.5395 -0.6581
   70CHL1  H18C 7616   1.414   0.849   8.012  0.2738 -0.8876 -1.4508
   70CHL1   C12 7617   1.745   0.757   7.912  0.5028  0.1052  0.6332
   70CHL1  H12A 7618   1.800   0.822   7.983  0.3893  0.8814  0.0231
   70CHL1  H12B 7619   1.807   0.667   7.893  0.1866 -0.2161  1.1144
   70CHL1   C11 7620   1.762   0.844   7.774  0.3915  0.5728  0.4670
   70CHL1  H11A 7621   1.717   0.946   7.778 -1.7846 -0.3762  0.7573
   70CHL1  H11B 7622   1.870   0.849   7.750 -0.0091  0.5558 -1.4265
   70CHL1    C9 7623   1.682   0.775   7.660  0.1913 -0.2979  0.2778
   70CHL1    H9 7624   1.727   0.674   7.651 -1.1542 -0.8543 -0.3398
   70CHL1   C10 7625   1.683   0.845   7.520 -0.4851  0.6716 -0.1392
   70CHL1   C19 7626   1.689   0.997   7.544  0.1239 -0.2970  0.0422
   70CHL1  H19A 7627   1.686   1.065   7.456  0.5473 -0.1638  0.1268
   70CHL1  H19B 7628   1.605   1.025   7.611  1.0461  1.2204  0.5950
   70CHL1  H19C 7629   1.782   1.023   7.600  0.7515 -1.6791 -0.3103
   70CHL1    C1 7630   1.812   0.804   7.450  0.3640 -0.3897  0.7409
   70CHL1   H1A 7631   1.898   0.834   7.514 -1.5422  1.6761  2.4514
   70CHL1   H1B 7632   1.808   0.693   7.441 -0.7170 -0.1757 -1.6603
   70CHL1    C2 7633   1.830   0.874   7.314  0.0682 -0.0560  0.0949
   70CHL1   H2A 7634   1.924   0.840   7.266 -0.8329 -0.8221 -1.1415
   70CHL1   H2B 7635   1.842   0.984   7.328  0.6155  0.1119 -1.5611
   70CHL1   C20 7636   1.590   0.662   8.214 -0.0697  0.3590 -0.2872
   70CHL1   H20 7637   1.540   0.758   8.239  1.5831  0.8452  1.2041
   70CHL1   C21 7638   1.738   0.653   8.230 -0.0504  0.1956  0.0047
   70CHL1  H21A 7639   1.765   0.663   8.337 -1.6206 -0.6029  0.4827
   70CHL1  H21B 7640   1.791   0.741   8.187 -1.0771  0.2760 -1.1433
   70CHL1  H21C 7641   1.773   0.555   8.191 -1.4794  0.7515 -2.7978
   70CHL1   C22 7642   1.532   0.553   8.311 -0.1512 -0.5415 -0.5032
   70CHL1  H22A 7643   1.424   0.541   8.286  0.1274 -0.6157 -1.7391
   70CHL1  H22B 7644   1.576   0.454   8.284 -0.0604 -0.4399 -0.7328
   70CHL1   C23 7645   1.552   0.589   8.458 -0.0404  0.1020  0.3128
   70CHL1  H23A 7646   1.528   0.501   8.521 -0.9332 -1.7625 -2.5606
   70CHL1  H23B 7647   1.654   0.620   8.490  0.0972  0.8386 -0.8436
   70CHL1   C24 7648   1.457   0.699   8.503  0.0929  0.0655 -0.0036
   70CHL1  H24A 7649   1.499   0.796   8.469  2.3444 -1.2451 -1.0253
   70CHL1  H24B 7650   1.356   0.689   8.458  0.3968 -1.2914 -0.3979
   70CHL1   C25 7651   1.439   0.714   8.657 -0.3050  0.3634 -0.3322
   70CHL1   H25 7652   1.417   0.615   8.703 -3.0872  1.3712  0.6201
   70CHL1   C26 7653   1.566   0.786   8.721 -0.2138  0.5609 -0.1938
   70CHL1  H26A 7654   1.550   0.783   8.831  0.3580 -1.1919 -0.1336
   70CHL1  H26B 7655   1.659   0.731   8.697 -0.2901  0.0560  0.6396
   70CHL1  H26C 7656   1.577   0.891   8.686  0.6967  0.4548 -0.2315
   70CHL1   C27 7657   1.322   0.804   8.692  0.9210 -0.5320 -0.4293
   70CHL1  H27A 7658   1.325   0.897   8.631 -1.3217  0.8328  1.4282
   70CHL1  H27B 7659   1.220   0.765   8.669  0.5887  0.6461 -1.0305
   70CHL1  H27C 7660   1.313   0.839   8.798  0.8545  1.4742 -1.0783
   71CHL1    C3 7661   1.152   2.864   6.844  0.0297  0.3095  0.2287
   71CHL1    H3 7662   1.108   2.772   6.888  1.9251 -0.7697 -0.0802
   71CHL1    O3 7663   1.139   2.862   6.700 -0.2048 -0.1871  0.3359
   71CHL1   H3' 7664   1.089   2.942   6.680  1.4610  1.1392  1.3282
   71CHL1    C4 7665   1.082   2.990   6.901 -0.4493  0.3210  0.5507
   71CHL1   H4A 7666   1.116   3.090   6.866  1.2399 -1.4819 -3.3373
   71CHL1   H4B 7667   0.981   2.976   6.857 -0.5887  3.1042 -0.0888
   71CHL1    C5 7668   1.093   2.984   7.058 -0.0198 -0.0125  0.6473
   71CHL1    C6 7669   0.990   2.962   7.136  0.6596  0.1092  0.0773
   71CHL1    H6 7670   0.892   2.948   7.089  0.8664 -2.8798  0.4345
   71CHL1    C7 7671   1.002   2.970   7.288  0.1334  0.4839  0.2609
   71CHL1   H7A 7672   0.928   3.034   7.341 -0.1831 -0.3139  0.8000
   71CHL1   H7B 7673   0.991   2.869   7.333  3.5945  0.3158  0.8571
   71CHL1    C8 7674   1.135   3.037   7.321 -0.1527 -0.6302 -0.0400
   71CHL1    H8 7675   1.130   3.145   7.296 -2.5086 -0.8954 -0.8101
   71CHL1   C14 7676   1.145   3.026   7.469  0.7660  0.1714  0.3244
   71CHL1   H14 7677   1.136   2.918   7.493 -1.2019 -0.5827 -3.3520
   71CHL1   C15 7678   1.028   3.086   7.551  0.0622  0.0774 -0.5581
   71CHL1  H15A 7679   0.987   3.180   7.507  0.1879 -0.4164 -1.7676
   71CHL1  H15B 7680   0.944   3.018   7.576 -0.0441  0.4699  0.1519
   71CHL1   C16 7681   1.089   3.110   7.688 -0.5412  0.9348 -0.0926
   71CHL1  H16A 7682   1.080   3.219   7.708  0.8347  0.8965  0.7951
   71CHL1  H16B 7683   1.035   3.059   7.770  1.0372 -1.0063 -0.2055
   71CHL1   C17 7684   1.241   3.070   7.681  0.2035 -0.6905  0.1366
   71CHL1   H17 7685   1.250   2.961   7.701  0.3152 -1.3844 -3.3670
   71CHL1   C13 7686   1.273   3.086   7.530  0.6089  0.1292  0.0513
   71CHL1   C18 7687   1.297   3.228   7.501 -0.8542  0.0269 -0.7020
   71CHL1  H18A 7688   1.382   3.270   7.558 -1.1632  1.3909 -1.2344
   71CHL1  H18B 7689   1.321   3.242   7.393 -0.8356 -0.2334 -0.7338
   71CHL1  H18C 7690   1.208   3.287   7.532 -0.5942  1.9833 -3.5322
   71CHL1   C12 7691   1.384   2.994   7.470 -0.6449 -0.2166  0.2685
   71CHL1  H12A 7692   1.484   3.031   7.501 -1.4802  1.2003  1.3294
   71CHL1  H12B 7693   1.369   2.888   7.501 -3.1507 -0.2815 -0.9962
   71CHL1   C11 7694   1.388   2.995   7.320 -0.0852  1.0162  0.5727
   71CHL1  H11A 7695   1.424   3.099   7.303  1.9113  0.4116  1.0273
   71CHL1  H11B 7696   1.462   2.921   7.286 -1.6605 -0.9316  1.2511
   71CHL1    C9 7697   1.252   2.964   7.253 -1.2754  0.8114  0.2436
   71CHL1    H9 7698   1.239   2.854   7.265  2.2406  0.1767 -0.9701
   71CHL1   C10 7699   1.241   2.990   7.099 -0.2445 -0.1752  0.2549
   71CHL1   C19 7700   1.305   3.126   7.059 -0.1533  0.0604  0.0447
   71CHL1  H19A 7701   1.253   3.201   7.123  1.3213 -0.1695  1.5401
   71CHL1  H19B 7702   1.411   3.137   7.089  0.1716 -0.4875 -0.9009
   71CHL1  H19C 7703   1.287   3.143   6.951  1.0700 -2.5384 -0.6102
   71CHL1    C1 7704   1.330   2.883   7.028  0.0194 -0.4575 -0.7770
   71CHL1   H1A 7705   1.438   2.893   7.051 -0.4740  2.0526  0.5742
   71CHL1   H1B 7706   1.297   2.785   7.070  0.3105 -0.4858 -0.6137
   71CHL1    C2 7707   1.298   2.872   6.875  0.1342  0.4288 -0.1960
   71CHL1   H2A 7708   1.351   2.783   6.835  0.3382 -0.3614  1.7809
   71CHL1   H2B 7709   1.340   2.960   6.822  0.7067 -0.3547 -1.0673
   71CHL1   C20 7710   1.332   3.137   7.784 -0.2075 -0.2799 -0.1602
   71CHL1   H20 7711   1.347   3.240   7.747  1.3730 -0.4341  0.0187
   71CHL1   C21 7712   1.452   3.048   7.796 -1.1308 -0.7857 -1.2146
   71CHL1  H21A 7713   1.518   3.037   7.707  0.0340 -2.8136 -0.1525
   71CHL1  H21B 7714   1.425   2.946   7.832  0.4662 -0.7115  0.2796
   71CHL1  H21C 7715   1.517   3.089   7.876 -3.5005  0.0698  0.3462
   71CHL1   C22 7716   1.272   3.140   7.930 -0.1290 -0.1637  0.5556
   71CHL1  H22A 7717   1.173   3.190   7.926 -0.2044 -0.3126  0.5437
   71CHL1  H22B 7718   1.247   3.036   7.960 -0.8440 -0.1706 -0.0325
   71CHL1   C23 7719   1.347   3.213   8.047  0.1193 -0.2443 -0.3401
   71CHL1  H23A 7720   1.446   3.164   8.062  1.1655  1.2423 -2.1460
   71CHL1  H23B 7721   1.361   3.322   8.027  0.6404  0.0139  1.3038
   71CHL1   C24 7722   1.262   3.199   8.179  0.3352 -0.0776  0.1631
   71CHL1  H24A 7723   1.169   3.256   8.157 -0.1676 -1.5524 -1.6258
   71CHL1  H24B 7724   1.242   3.090   8.188  1.5595 -0.6624 -3.4417
   71CHL1   C25 7725   1.323   3.249   8.319  0.1582  0.2199  0.8478
   71CHL1   H25 7726   1.371   3.347   8.300 -1.8919  0.6710 -2.3125
   71CHL1   C26 7727   1.199   3.281   8.401 -0.8531  0.5373  0.1873
   71CHL1  H26A 7728   1.116   3.327   8.344 -1.4706 -0.1302  0.5454
   71CHL1  H26B 7729   1.168   3.180   8.436  0.0450 -0.5934 -2.1813
   71CHL1  H26C 7730   1.230   3.338   8.492 -1.4853 -1.4721  1.7029
   71CHL1   C27 7731   1.416   3.149   8.388  0.5766 -0.2213 -0.4623
   71CHL1  H27A 7732   1.486   3.107   8.312 -0.2949  0.7665 -1.8352
   71CHL1  H27B 7733   1.480   3.195   8.466 -0.5458 -0.0747  0.3800
   71CHL1  H27C 7734   1.353   3.066   8.426 -0.4161 -0.0321 -1.6520
   72CHL1    C3 7735   1.593   1.490   7.296 -0.7818  0.0411  0.5008
   72CHL1    H3 7736   1.572   1.599   7.301  1.1100  0.4554 -0.2147
   72CHL1    O3 7737   1.494   1.435   7.216 -0.6021  0.3022 -0.4539
   72CHL1   H3' 7738   1.497   1.475   7.129 -0.1120 -0.7877 -0.9449
   72CHL1    C4 7739   1.727   1.452   7.233  0.4762  0.3310  0.1798
   72CHL1   H4A 7740   1.730   1.342   7.216  1.4990  0.0159  2.1823
   72CHL1   H4B 7741   1.730   1.495   7.131 -1.2668  1.4500  0.5833
   72CHL1    C5 7742   1.846   1.496   7.317 -0.0722  0.8928  0.0318
   72CHL1    C6 7743   1.934   1.583   7.279  0.3859  0.1025  0.7111
   72CHL1    H6 7744   1.926   1.624   7.178  0.2901  1.6287  1.3333
   72CHL1    C7 7745   2.050   1.630   7.363 -0.2224 -0.7293  0.0367
   72CHL1   H7A 7746   2.138   1.620   7.295  0.6038 -0.3340  1.0241
   72CHL1   H7B 7747   2.039   1.735   7.399 -1.9395 -1.0529  0.5064
   72CHL1    C8 7748   2.072   1.538   7.486  0.0234  0.0349  0.0344
   72CHL1    H8 7749   2.118   1.441   7.457  0.0118  0.9313 -3.2527
   72CHL1   C14 7750   2.159   1.611   7.583 -0.1743  0.2284 -0.5630
   72CHL1   H14 7751   2.115   1.704   7.625 -0.8431 -0.2377 -0.2180
   72CHL1   C15 7752   2.291   1.672   7.530  0.3548  0.5999  0.5643
   72CHL1  H15A 7753   2.345   1.596   7.469  2.1406 -0.2242  3.0629
   72CHL1  H15B 7754   2.276   1.764   7.471 -1.2572 -0.5209 -0.8159
   72CHL1   C16 7755   2.376   1.700   7.660  0.0955 -0.0772  0.0759
   72CHL1  H16A 7756   2.478   1.660   7.645 -0.5155 -1.8318  0.5270
   72CHL1  H16B 7757   2.390   1.809   7.680  0.4652 -0.3662  1.4409
   72CHL1   C17 7758   2.288   1.649   7.778 -0.2068  0.4170 -0.8072
   72CHL1   H17 7759   2.220   1.728   7.817 -0.5494  0.2015 -0.9605
   72CHL1   C13 7760   2.200   1.539   7.714 -0.7120 -0.4670 -0.0074
   72CHL1   C18 7761   2.282   1.402   7.673  0.2038 -0.2177 -0.0052
   72CHL1  H18A 7762   2.322   1.343   7.758 -0.2586 -2.1594 -1.1077
   72CHL1  H18B 7763   2.209   1.332   7.625  1.3404 -0.9050 -0.7549
   72CHL1  H18C 7764   2.350   1.430   7.590 -1.6682  1.8673 -0.8852
   72CHL1   C12 7765   2.072   1.498   7.783  0.3244  0.2259 -0.2942
   72CHL1  H12A 7766   2.091   1.426   7.866 -2.6267 -1.4805 -1.0252
   72CHL1  H12B 7767   2.023   1.594   7.811  1.1728  0.8349 -0.8797
   72CHL1   C11 7768   1.961   1.434   7.689 -0.6235 -0.4513 -0.0290
   72CHL1  H11A 7769   1.995   1.330   7.668 -3.7463 -1.8013  1.2046
   72CHL1  H11B 7770   1.869   1.418   7.750 -0.2482 -1.0905  0.3765
   72CHL1    C9 7771   1.946   1.513   7.561  0.3668  0.2629  0.5855
   72CHL1    H9 7772   1.909   1.616   7.576 -1.4305  0.4417 -4.0349
   72CHL1   C10 7773   1.840   1.448   7.461 -0.5397  0.2609 -0.3021
   72CHL1   C19 7774   1.866   1.289   7.450 -0.3019  0.0517  0.3520
   72CHL1  H19A 7775   1.970   1.266   7.420  0.8513  2.3004  2.4678
   72CHL1  H19B 7776   1.843   1.236   7.545  0.3442 -0.3448  0.2928
   72CHL1  H19C 7777   1.800   1.240   7.376  2.5345 -1.2479 -1.4069
   72CHL1    C1 7778   1.696   1.478   7.525 -0.3695  0.5932 -0.7140
   72CHL1   H1A 7779   1.682   1.428   7.623 -0.9746  0.6606 -0.7607
   72CHL1   H1B 7780   1.684   1.587   7.543 -2.8692  0.2414 -0.1055
   72CHL1    C2 7781   1.583   1.431   7.433 -0.0147 -0.1203 -0.2180
   72CHL1   H2A 7782   1.489   1.454   7.488 -1.5684 -1.2445 -2.2982
   72CHL1   H2B 7783   1.594   1.321   7.428  0.8955 -0.0166 -0.5136
   72CHL1   C20 7784   2.380   1.615   7.897 -0.3732  0.1837 -0.0897
   72CHL1   H20 7785   2.460   1.550   7.855  0.4154  0.7998  0.4498
   72CHL1   C21 7786   2.305   1.518   8.001 -0.4035  0.0880 -0.2458
   72CHL1  H21A 7787   2.205   1.567   8.013 -0.9602 -1.5063  2.1203
   72CHL1  H21B 7788   2.342   1.517   8.106  0.0817  0.9195 -0.4046
   72CHL1  H21C 7789   2.290   1.420   7.951  1.0514 -0.7098  0.8581
   72CHL1   C22 7790   2.439   1.743   7.954  0.1046 -0.2225 -1.0596
   72CHL1  H22A 7791   2.505   1.804   7.888 -0.5131  1.4104 -0.1744
   72CHL1  H22B 7792   2.351   1.803   7.984 -0.1440 -1.1683  0.1399
   72CHL1   C23 7793   2.529   1.720   8.077  0.0903 -0.2552 -0.0464
   72CHL1  H23A 7794   2.468   1.684   8.162 -2.2618  1.9210 -0.7796
   72CHL1  H23B 7795   2.603   1.644   8.043  0.9597  0.8238 -0.6185
   72CHL1   C24 7796   2.603   1.852   8.124 -0.4358  0.5199  0.9873
   72CHL1  H24A 7797   2.678   1.879   8.047 -1.0845 -1.1817 -0.2709
   72CHL1  H24B 7798   2.539   1.936   8.157  1.0962  2.8138 -1.6581
   72CHL1   C25 7799   2.696   1.832   8.244 -0.7276  0.2596 -0.5021
   72CHL1   H25 7800   2.770   1.754   8.215 -0.3522  0.4488 -0.0667
   72CHL1   C26 7801   2.782   1.960   8.266  0.5221  0.0902  0.6562
   72CHL1  H26A 7802   2.714   2.045   8.289 -2.3719 -1.7767 -0.6444
   72CHL1  H26B 7803   2.843   1.946   8.358  0.8286  1.2361  0.6348
   72CHL1  H26C 7804   2.852   1.982   8.183 -1.1098  1.5919 -0.3431
   72CHL1   C27 7805   2.604   1.802   8.365 -0.1710 -0.1256 -0.2838
   72CHL1  H27A 7806   2.663   1.804   8.459  1.3292  2.6560 -1.2358
   72CHL1  H27B 7807   2.518   1.871   8.370 -0.1840 -0.2302  1.2548
   72CHL1  H27C 7808   2.558   1.701   8.365 -0.3525 -0.0470 -1.0958
   73CHL1    C3 7809   1.394   3.629   6.940 -0.5600  0.0092  0.1886
   73CHL1    H3 7810   1.376   3.738   6.953 -0.9262 -0.0677  0.3392
   73CHL1    O3 7811   1.358   3.601   6.803 -0.2314  0.3585  0.1039
   73CHL1   H3' 7812   1.264   3.619   6.796 -0.0740  1.3129  0.2546
   73CHL1    C4 7813   1.548   3.597   6.955 -0.2333 -0.6909  0.5226
   73CHL1   H4A 7814   1.556   3.490   6.925  0.0344  0.0788 -2.2196
   73CHL1   H4B 7815   1.611   3.656   6.886 -0.6919  1.6317  2.0334
   73CHL1    C5 7816   1.599   3.613   7.098 -0.0479 -0.0278  0.6276
   73CHL1    C6 7817   1.703   3.693   7.117  0.1350  0.5084 -0.0775
   73CHL1    H6 7818   1.752   3.735   7.028  2.6612  1.7160  1.8160
   73CHL1    C7 7819   1.771   3.717   7.252  0.0925 -0.3081  0.8674
   73CHL1   H7A 7820   1.880   3.697   7.246 -0.3323 -2.7670  0.7466
   73CHL1   H7B 7821   1.756   3.826   7.269 -1.7608 -0.4598  0.3149
   73CHL1    C8 7822   1.703   3.627   7.366  0.1437 -0.4438 -0.3839
   73CHL1    H8 7823   1.755   3.529   7.359 -0.8364 -1.0692  0.9708
   73CHL1   C14 7824   1.722   3.687   7.502 -0.3160 -0.6677 -0.1399
   73CHL1   H14 7825   1.664   3.781   7.508 -2.5148 -1.9623 -0.3474
   73CHL1   C15 7826   1.870   3.726   7.528  0.6110  0.6436 -0.3672
   73CHL1  H15A 7827   1.925   3.635   7.498  1.7755  0.8655  1.0320
   73CHL1  H15B 7828   1.913   3.818   7.482 -0.6970  0.4852 -1.9579
   73CHL1   C16 7829   1.871   3.743   7.685  0.3494  0.0950  0.1736
   73CHL1  H16A 7830   1.961   3.710   7.741  0.4915 -2.2578 -1.3561
   73CHL1  H16B 7831   1.848   3.851   7.703 -0.4909 -0.3825  2.1070
   73CHL1   C17 7832   1.742   3.678   7.744 -0.3305 -0.0490 -0.4404
   73CHL1   H17 7833   1.671   3.763   7.748  0.9599  1.0763 -0.8785
   73CHL1   C13 7834   1.685   3.592   7.624  1.0778 -0.7211 -0.3544
   73CHL1   C18 7835   1.756   3.456   7.611 -0.0330 -0.2075 -0.3115
   73CHL1  H18A 7836   1.729   3.396   7.521  1.5864 -1.8054  0.2281
   73CHL1  H18B 7837   1.866   3.469   7.620 -0.2641  0.3603  2.2191
   73CHL1  H18C 7838   1.720   3.384   7.688 -0.7071  2.0042  1.4830
   73CHL1   C12 7839   1.533   3.574   7.613  0.5742  0.0260  0.3069
   73CHL1  H12A 7840   1.502   3.497   7.686 -0.9879  2.3932  2.1755
   73CHL1  H12B 7841   1.484   3.669   7.642  1.3501  0.3650  0.5148
   73CHL1   C11 7842   1.491   3.522   7.476 -0.1664 -0.3759 -0.1286
   73CHL1  H11A 7843   1.530   3.418   7.469  2.8815  0.6959  0.3144
   73CHL1  H11B 7844   1.380   3.515   7.473 -0.2118  0.3906 -0.1999
   73CHL1    C9 7845   1.553   3.599   7.351 -0.5657  0.3626  0.4758
   73CHL1    H9 7846   1.505   3.699   7.355 -0.5211  0.3859  0.4301
   73CHL1   C10 7847   1.509   3.543   7.210 -0.1030 -0.6481  0.2969
   73CHL1   C19 7848   1.540   3.399   7.204 -0.1147  0.2046 -0.9484
   73CHL1  H19A 7849   1.521   3.360   7.102  1.4619  0.4023 -1.3374
   73CHL1  H19B 7850   1.646   3.385   7.235  0.8672  2.2696 -3.2373
   73CHL1  H19C 7851   1.476   3.349   7.281  1.6647  1.1297  1.1979
   73CHL1    C1 7852   1.357   3.562   7.180 -0.7178  0.4497  1.3047
   73CHL1   H1A 7853   1.302   3.499   7.253 -1.0353  0.8061  1.3759
   73CHL1   H1B 7854   1.336   3.669   7.202 -2.1975  0.4459 -0.0102
   73CHL1    C2 7855   1.310   3.540   7.032 -0.1370  0.2784 -0.2490
   73CHL1   H2A 7856   1.204   3.572   7.027  0.1968  1.7586  1.5632
   73CHL1   H2B 7857   1.326   3.431   7.014 -0.4166 -0.0601  1.4885
   73CHL1   C20 7858   1.754   3.618   7.880  0.2418  0.1415  0.6772
   73CHL1   H20 7859   1.851   3.564   7.879  0.8294  1.2023 -0.8945
   73CHL1   C21 7860   1.637   3.527   7.918  0.5901 -0.1224  0.7395
   73CHL1  H21A 7861   1.540   3.576   7.895 -0.1706 -1.0447  1.9065
   73CHL1  H21B 7862   1.623   3.505   8.026  0.1959  1.0740  0.9366
   73CHL1  H21C 7863   1.647   3.433   7.860  0.7037 -1.2436  2.5211
   73CHL1   C22 7864   1.777   3.726   7.991 -0.2673  0.7058  0.7217
   73CHL1  H22A 7865   1.850   3.801   7.955 -0.1820  0.3555  0.1519
   73CHL1  H22B 7866   1.679   3.777   8.007 -0.3456 -0.3690  4.0553
   73CHL1   C23 7867   1.815   3.673   8.132  0.3335 -0.0960 -0.1542
   73CHL1  H23A 7868   1.847   3.759   8.194  1.0357 -0.4171 -0.0637
   73CHL1  H23B 7869   1.737   3.613   8.184  1.6929 -1.4440  0.3780
   73CHL1   C24 7870   1.932   3.574   8.145 -0.5534 -0.3291  0.6390
   73CHL1  H24A 7871   1.951   3.537   8.248  3.6042  1.6580  0.6847
   73CHL1  H24B 7872   1.906   3.483   8.088 -3.5801  0.6692  0.3364
   73CHL1   C25 7873   2.069   3.627   8.081 -0.8028  0.2282 -0.4188
   73CHL1   H25 7874   2.054   3.635   7.972  0.9789 -1.4175 -0.8149
   73CHL1   C26 7875   2.103   3.761   8.139 -0.2557  0.6729  0.0864
   73CHL1  H26A 7876   2.046   3.840   8.085 -0.6847 -0.7320 -1.5520
   73CHL1  H26B 7877   2.087   3.775   8.248 -1.4862  0.8483 -0.1102
   73CHL1  H26C 7878   2.209   3.783   8.112  0.0927 -1.7847 -0.6714
   73CHL1   C27 7879   2.167   3.519   8.092 -0.5756 -0.3693 -1.0483
   73CHL1  H27A 7880   2.269   3.550   8.060 -0.3019 -0.2923 -0.0913
   73CHL1  H27B 7881   2.178   3.484   8.196 -3.5906 -0.6309 -0.7654
   73CHL1  H27C 7882   2.143   3.429   8.032  2.1545 -1.1693 -1.0325
   74CHL1    C3 7883   0.658   2.316   6.989 -0.1299 -0.4389 -0.0240
   74CHL1    H3 7884   0.635   2.223   7.046  0.0217 -0.7776 -0.5079
   74CHL1    O3 7885   0.628   2.288   6.853  0.0372 -0.3200 -0.1051
   74CHL1   H3' 7886   0.631   2.376   6.816  0.4484 -1.1728 -2.1653
   74CHL1    C4 7887   0.565   2.429   7.042 -0.4378 -0.4295 -0.5811
   74CHL1   H4A 7888   0.587   2.520   6.981  1.3765  0.9187  2.0035
   74CHL1   H4B 7889   0.463   2.389   7.022 -0.0027 -1.2135 -1.2772
   74CHL1    C5 7890   0.589   2.455   7.189  0.3687 -0.1598 -0.2403
   74CHL1    C6 7891   0.495   2.430   7.278 -0.1353  0.2042 -0.3476
   74CHL1    H6 7892   0.401   2.384   7.243 -0.6843  1.2915 -0.3230
   74CHL1    C7 7893   0.502   2.461   7.429  0.1935 -0.3248 -0.3148
   74CHL1   H7A 7894   0.413   2.514   7.467  0.2289 -1.6722  1.7501
   74CHL1   H7B 7895   0.513   2.366   7.486  1.2433 -0.2110 -0.3054
   74CHL1    C8 7896   0.633   2.543   7.463  0.1553 -0.4611 -0.7201
   74CHL1    H8 7897   0.621   2.648   7.429  1.8903  0.5050  1.5259
   74CHL1   C14 7898   0.661   2.526   7.613  0.6737 -0.2408  0.4457
   74CHL1   H14 7899   0.679   2.417   7.620  0.4129 -0.2434  1.0986
   74CHL1   C15 7900   0.552   2.550   7.722  0.3999 -0.3073 -0.5054
   74CHL1  H15A 7901   0.489   2.636   7.692 -0.1470 -0.1428  1.0827
   74CHL1  H15B 7902   0.494   2.456   7.721 -1.8630  1.0081  1.2752
   74CHL1   C16 7903   0.631   2.579   7.851  0.2430 -0.5006  0.1845
   74CHL1  H16A 7904   0.604   2.679   7.891 -3.4423 -0.1166 -2.9871
   74CHL1  H16B 7905   0.610   2.495   7.921 -0.6457 -0.7460 -0.3760
   74CHL1   C17 7906   0.780   2.576   7.807  0.1688 -0.3204 -0.7268
   74CHL1   H17 7907   0.803   2.467   7.810  0.9326 -0.1116  1.5435
   74CHL1   C13 7908   0.781   2.608   7.660 -0.2403  0.5354 -0.1442
   74CHL1   C18 7909   0.758   2.759   7.639 -0.6582  0.2567 -0.4953
   74CHL1  H18A 7910   0.745   2.788   7.532 -0.8863  1.5219 -0.1327
   74CHL1  H18B 7911   0.667   2.786   7.697  0.9927  0.6924  1.9553
   74CHL1  H18C 7912   0.850   2.809   7.675  1.8531 -3.3438 -1.6711
   74CHL1   C12 7913   0.901   2.558   7.581  0.5642 -0.4125  0.2945
   74CHL1  H12A 7914   0.991   2.613   7.614 -1.9225  3.3916  1.0336
   74CHL1  H12B 7915   0.914   2.451   7.609  2.2485  0.2069  1.9637
   74CHL1   C11 7916   0.886   2.571   7.427  0.6626  0.0777 -0.2626
   74CHL1  H11A 7917   0.875   2.679   7.407 -1.7665  0.1512  1.2616
   74CHL1  H11B 7918   0.971   2.534   7.365  0.8274 -1.0851  0.6291
   74CHL1    C9 7919   0.755   2.501   7.379  0.5957 -0.6272 -0.9990
   74CHL1    H9 7920   0.768   2.396   7.412 -1.7126  0.1570  2.7310
   74CHL1   C10 7921   0.729   2.504   7.225  0.5648 -0.5373 -0.3735
   74CHL1   C19 7922   0.752   2.650   7.166  0.0593 -0.2652  0.4282
   74CHL1  H19A 7923   0.742   2.639   7.056  0.4300  3.2596 -0.0394
   74CHL1  H19B 7924   0.679   2.717   7.216 -1.1564 -1.4450  0.2399
   74CHL1  H19C 7925   0.857   2.680   7.188  0.0242 -2.2179  3.5732
   74CHL1    C1 7926   0.827   2.395   7.165 -0.0743 -0.3377  0.8011
   74CHL1   H1A 7927   0.928   2.438   7.178  0.0672 -0.0088 -1.2237
   74CHL1   H1B 7928   0.839   2.306   7.231  0.3703 -1.6979 -1.0492
   74CHL1    C2 7929   0.804   2.350   7.021 -0.4672 -0.3316  0.4160
   74CHL1   H2A 7930   0.867   2.270   6.978 -0.2517  0.3964 -0.6372
   74CHL1   H2B 7931   0.832   2.438   6.959  0.7666 -1.9492 -1.3507
   74CHL1   C20 7932   0.880   2.646   7.896 -0.0556  0.2238 -0.2521
   74CHL1   H20 7933   0.975   2.661   7.842  1.8208  0.4433  2.9984
   74CHL1   C21 7934   0.923   2.550   8.008 -0.4340  0.4394 -0.5899
   74CHL1  H21A 7935   1.014   2.572   8.068 -0.9522  0.5211  0.1681
   74CHL1  H21B 7936   0.953   2.454   7.960 -0.9526  0.4709 -0.9877
   74CHL1  H21C 7937   0.831   2.530   8.066  0.7628  2.4631  2.0873
   74CHL1   C22 7938   0.839   2.786   7.962  0.1247 -0.6039  0.3467
   74CHL1  H22A 7939   0.796   2.868   7.899  1.6860 -0.7772 -0.9826
   74CHL1  H22B 7940   0.778   2.772   8.054 -0.3407 -1.2762 -0.0625
   74CHL1   C23 7941   0.973   2.860   8.019  0.3804  0.8242  0.6108
   74CHL1  H23A 7942   1.018   2.785   8.089  1.0236 -0.0370 -0.6989
   74CHL1  H23B 7943   1.040   2.873   7.932  1.5298 -0.6683  1.2349
   74CHL1   C24 7944   0.955   3.001   8.080 -0.6854  0.6667  0.7949
   74CHL1  H24A 7945   1.055   3.020   8.124 -0.6514  2.8410 -0.1896
   74CHL1  H24B 7946   0.937   3.067   7.993 -0.4322  2.6511  2.2294
   74CHL1   C25 7947   0.842   3.022   8.184  0.2650 -0.0915  0.0615
   74CHL1   H25 7948   0.751   2.967   8.152 -0.2123  0.2876  0.7597
   74CHL1   C26 7949   0.890   2.985   8.323 -0.2070 -0.8341 -0.1524
   74CHL1  H26A 7950   0.805   2.972   8.393  0.0059 -0.7524  0.1205
   74CHL1  H26B 7951   0.942   2.887   8.324 -0.4921 -0.9866 -0.1539
   74CHL1  H26C 7952   0.959   3.063   8.361  0.3294 -0.1434 -2.4803
   74CHL1   C27 7953   0.795   3.173   8.183  0.9402 -0.1789 -0.0743
   74CHL1  H27A 7954   0.884   3.240   8.193  1.1301 -0.6735  1.6750
   74CHL1  H27B 7955   0.751   3.195   8.083  2.0290 -0.3890 -0.6042
   74CHL1  H27C 7956   0.726   3.207   8.263  1.2770 -1.1469  0.6300
   75CHL1    C3 7957   3.815   4.120   6.810  0.6236 -0.2137  0.1783
   75CHL1    H3 7958   3.882   4.036   6.836  0.2804  0.0243  1.8576
   75CHL1    O3 7959   3.787   4.133   6.668 -0.3457  0.2871  0.0020
   75CHL1   H3' 7960   3.851   4.197   6.637  1.7608 -1.5876  0.2483
   75CHL1    C4 7961   3.692   4.102   6.895 -0.1571 -0.1679  0.1852
   75CHL1   H4A 7962   3.620   4.184   6.875  2.5772  2.4751  0.6557
   75CHL1   H4B 7963   3.644   4.006   6.868 -1.5769  0.5836 -0.0272
   75CHL1    C5 7964   3.714   4.101   7.043  0.3920 -0.6941 -0.3086
   75CHL1    C6 7965   3.694   3.990   7.119 -0.5995  0.5839  0.0753
   75CHL1    H6 7966   3.653   3.896   7.079  1.7691 -0.4298 -0.0394
   75CHL1    C7 7967   3.722   3.991   7.270 -0.1988 -0.8398  0.1976
   75CHL1   H7A 7968   3.647   3.932   7.328  0.5974 -1.8007  0.2747
   75CHL1   H7B 7969   3.818   3.936   7.284  0.8848  0.4743 -1.8400
   75CHL1    C8 7970   3.738   4.129   7.321 -0.4618  0.4553 -0.3693
   75CHL1    H8 7971   3.644   4.188   7.312 -0.1567  0.9802 -0.1606
   75CHL1   C14 7972   3.783   4.130   7.467 -0.5163  0.1446 -0.1612
   75CHL1   H14 7973   3.885   4.085   7.466 -0.0268  1.1907  0.8048
   75CHL1   C15 7974   3.693   4.054   7.567 -0.1472  0.4021 -0.3388
   75CHL1  H15A 7975   3.584   4.073   7.551 -0.3225 -1.8458 -2.0532
   75CHL1  H15B 7976   3.696   3.945   7.545 -1.4372  0.8610 -2.9618
   75CHL1   C16 7977   3.735   4.107   7.705  0.0226  0.2373  0.0385
   75CHL1  H16A 7978   3.639   4.141   7.750  0.1867 -0.3115  0.8011
   75CHL1  H16B 7979   3.778   4.033   7.776 -1.2049 -0.5816 -0.0641
   75CHL1   C17 7980   3.840   4.221   7.681  0.2233  0.0676 -0.3369
   75CHL1   H17 7981   3.942   4.179   7.673  0.8734  1.8742 -2.0313
   75CHL1   C13 7982   3.812   4.262   7.536 -0.0512  0.9275 -0.4120
   75CHL1   C18 7983   3.677   4.349   7.523 -0.2626 -0.3939  0.0077
   75CHL1  H18A 7984   3.590   4.294   7.565 -0.4750  0.1557  0.2960
   75CHL1  H18B 7985   3.686   4.443   7.582  0.7497 -1.3441  1.3908
   75CHL1  H18C 7986   3.644   4.382   7.423 -0.3292 -1.7520 -0.4290
   75CHL1   C12 7987   3.929   4.318   7.455  0.4009 -0.4804 -0.2753
   75CHL1  H12A 7988   3.972   4.416   7.485 -1.5683 -0.1115  1.5331
   75CHL1  H12B 7989   4.013   4.245   7.454  1.4582  0.6574 -4.9520
   75CHL1   C11 7990   3.896   4.335   7.303  0.3270 -0.3486 -0.0538
   75CHL1  H11A 7991   3.818   4.413   7.291 -0.6564 -1.4223 -0.7734
   75CHL1  H11B 7992   3.993   4.356   7.253 -0.0065  2.0109  0.2507
   75CHL1    C9 7993   3.835   4.208   7.236 -0.0395  0.0160 -0.3720
   75CHL1    H9 7994   3.923   4.140   7.229 -0.6430 -0.6500 -1.5541
   75CHL1   C10 7995   3.788   4.232   7.094  0.1433 -0.9396  0.0823
   75CHL1   C19 7996   3.681   4.346   7.080 -0.4118  0.1323  0.2826
   75CHL1  H19A 7997   3.628   4.362   6.984 -0.3867 -0.0757  0.2337
   75CHL1  H19B 7998   3.595   4.341   7.149 -0.9454 -2.1527 -0.4996
   75CHL1  H19C 7999   3.734   4.441   7.105  1.2345 -0.3276 -1.3010
   75CHL1    C1 8000   3.911   4.262   7.001  0.3032  0.0636 -0.2334
   75CHL1   H1A 8001   3.927   4.371   7.014 -0.9363  0.2235 -0.0484
   75CHL1   H1B 8002   4.004   4.208   7.028  0.5820  0.8400  0.4048
   75CHL1    C2 8003   3.885   4.248   6.849 -0.6567 -0.3425  1.1266
   75CHL1   H2A 8004   3.980   4.274   6.797 -1.3506 -2.1925 -1.1168
   75CHL1   H2B 8005   3.809   4.329   6.844 -0.6708 -0.1937  3.4171
   75CHL1   C20 8006   3.843   4.333   7.789 -0.6405 -0.8734  0.2242
   75CHL1   H20 8007   3.740   4.376   7.793 -0.5251 -0.6742  1.0821
   75CHL1   C21 8008   3.924   4.458   7.752 -0.1902  0.2864  0.2386
   75CHL1  H21A 8009   3.885   4.505   7.659  0.1902 -1.8094 -0.9988
   75CHL1  H21B 8010   4.033   4.442   7.758 -0.2757  0.3221  1.9556
   75CHL1  H21C 8011   3.907   4.540   7.825  2.1557 -0.6384  1.8834
   75CHL1   C22 8012   3.864   4.269   7.931  0.3877 -0.4969  0.2225
   75CHL1  H22A 8013   3.813   4.171   7.940  0.7935 -0.5084  2.5752
   75CHL1  H22B 8014   3.974   4.252   7.932  0.4204 -0.6179 -1.9165
   75CHL1   C23 8015   3.822   4.360   8.047 -0.6622 -0.1878  0.3757
   75CHL1  H23A 8016   3.887   4.449   8.040 -3.0023  1.7126  1.8429
   75CHL1  H23B 8017   3.714   4.385   8.043 -0.2883  1.3058 -0.5863
   75CHL1   C24 8018   3.856   4.317   8.188  0.2548  0.2240  0.5857
   75CHL1  H24A 8019   3.962   4.333   8.217  0.7085  3.2180 -2.3386
   75CHL1  H24B 8020   3.804   4.384   8.260 -0.8841 -1.4257  1.3126
   75CHL1   C25 8021   3.814   4.176   8.222 -0.4915  0.3554 -0.8874
   75CHL1   H25 8022   3.846   4.101   8.147 -1.4959 -0.6709 -0.2953
   75CHL1   C26 8023   3.873   4.136   8.357 -0.0474  0.7135  0.2461
   75CHL1  H26A 8024   3.867   4.025   8.364  0.5391  0.7223  1.0292
   75CHL1  H26B 8025   3.979   4.159   8.381 -0.6854  1.5689  2.3152
   75CHL1  H26C 8026   3.822   4.200   8.432 -1.0902  2.9368 -2.2881
   75CHL1   C27 8027   3.658   4.150   8.212 -0.0638  0.9079 -0.6713
   75CHL1  H27A 8028   3.620   4.165   8.109  0.2458  0.3656 -0.8653
   75CHL1  H27B 8029   3.634   4.046   8.243 -2.7145  0.0350 -5.2146
   75CHL1  H27C 8030   3.607   4.226   8.276 -0.9366 -0.5300  0.3832
   76CHL1    C3 8031   0.879   6.753   7.268  0.2171 -0.4967 -0.9376
   76CHL1    H3 8032   0.925   6.849   7.298 -0.8750 -0.0461 -0.6589
   76CHL1    O3 8033   0.835   6.733   7.136  0.5686 -0.4190 -0.4164
   76CHL1   H3' 8034   0.797   6.645   7.143  0.8058 -0.6285 -1.7373
   76CHL1    C4 8035   0.975   6.637   7.305  1.2026 -0.0128 -0.5570
   76CHL1   H4A 8036   0.910   6.547   7.300  0.5291  0.4791 -0.8648
   76CHL1   H4B 8037   1.057   6.638   7.231 -0.8354  1.3099 -2.8880
   76CHL1    C5 8038   1.032   6.646   7.450  0.4346 -0.1362  0.1929
   76CHL1    C6 8039   1.165   6.643   7.479 -0.1898  0.3257 -0.5812
   76CHL1    H6 8040   1.232   6.639   7.392  1.5338 -3.3672  0.7865
   76CHL1    C7 8041   1.223   6.627   7.618  0.6784  0.4045  0.2910
   76CHL1   H7A 8042   1.300   6.547   7.613 -0.4029 -0.5392 -2.9335
   76CHL1   H7B 8043   1.268   6.724   7.649  2.4685  0.2954 -1.7985
   76CHL1    C8 8044   1.103   6.598   7.726  0.2453  0.2766 -0.1947
   76CHL1    H8 8045   1.078   6.490   7.726  1.1081  0.0706 -1.4870
   76CHL1   C14 8046   1.152   6.642   7.861  0.0442  0.4209  0.1078
   76CHL1   H14 8047   1.162   6.752   7.858  1.1937  0.2979 -0.6366
   76CHL1   C15 8048   1.299   6.597   7.904  0.0824 -0.0148  0.2463
   76CHL1  H15A 8049   1.321   6.490   7.886 -2.8527 -0.6063 -0.0441
   76CHL1  H15B 8050   1.377   6.658   7.853 -0.7396  0.7885 -0.0667
   76CHL1   C16 8051   1.299   6.605   8.053 -0.9961 -0.7436 -0.6411
   76CHL1  H16A 8052   1.317   6.515   8.116  1.6479 -0.0891 -0.3957
   76CHL1  H16B 8053   1.381   6.674   8.080 -1.6313 -0.1300 -0.2757
   76CHL1   C17 8054   1.160   6.660   8.096  1.3323  0.7697 -0.6483
   76CHL1   H17 8055   1.174   6.770   8.101 -1.1993  1.0120  3.1606
   76CHL1   C13 8056   1.062   6.623   7.981  0.1667  0.3835 -0.3824
   76CHL1   C18 8057   1.037   6.471   8.002  0.2721  0.1897 -0.2649
   76CHL1  H18A 8058   0.979   6.425   7.918 -0.0209  0.3844 -0.1708
   76CHL1  H18B 8059   1.134   6.419   8.018  0.5012  0.6653 -0.1048
   76CHL1  H18C 8060   0.970   6.458   8.089  0.7435 -0.7211 -0.0347
   76CHL1   C12 8061   0.937   6.704   7.949 -0.4043 -0.7194  0.0663
   76CHL1  H12A 8062   0.861   6.673   8.024 -0.1217 -1.4029  0.0735
   76CHL1  H12B 8063   0.960   6.812   7.966 -3.2250 -0.0195 -0.3121
   76CHL1   C11 8064   0.879   6.686   7.804  0.0580 -0.4413  0.1188
   76CHL1  H11A 8065   0.813   6.598   7.788 -0.8409  0.5259 -1.6336
   76CHL1  H11B 8066   0.811   6.772   7.788  0.0930 -0.4474 -0.0654
   76CHL1    C9 8067   0.978   6.675   7.688  0.1728  0.0496  0.2948
   76CHL1    H9 8068   1.015   6.780   7.681 -0.5404  0.1632 -2.3159
   76CHL1   C10 8069   0.920   6.639   7.553 -0.4423  0.3935  0.1326
   76CHL1   C19 8070   0.858   6.490   7.559 -0.3007 -0.8764 -0.0394
   76CHL1  H19A 8071   0.940   6.421   7.587  1.0191  0.6738 -0.0183
   76CHL1  H19B 8072   0.777   6.476   7.633  0.1079  0.8430  0.7393
   76CHL1  H19C 8073   0.819   6.469   7.457 -0.3164 -1.5855  0.1063
   76CHL1    C1 8074   0.801   6.736   7.519 -0.9401  0.3307  0.1268
   76CHL1   H1A 8075   0.710   6.718   7.579  2.2938 -2.4980  4.5257
   76CHL1   H1B 8076   0.838   6.838   7.545 -2.7665  0.8961  0.5619
   76CHL1    C2 8077   0.763   6.744   7.371  0.6014 -0.0126  0.6192
   76CHL1   H2A 8078   0.697   6.830   7.348  0.0217 -1.2920 -2.9221
   76CHL1   H2B 8079   0.699   6.653   7.360  0.8563 -0.6113  3.6498
   76CHL1   C20 8080   1.134   6.622   8.242 -0.0557 -0.5276 -0.0116
   76CHL1   H20 8081   1.130   6.512   8.254  0.4731 -0.2394  2.9170
   76CHL1   C21 8082   0.997   6.687   8.287 -0.0307 -0.0574 -0.1254
   76CHL1  H21A 8083   0.910   6.674   8.219  2.3709 -0.7882 -3.1530
   76CHL1  H21B 8084   1.017   6.796   8.293 -0.2463  0.0280 -0.8512
   76CHL1  H21C 8085   0.964   6.646   8.385  0.4612  0.6255  0.3333
   76CHL1   C22 8086   1.243   6.672   8.334 -0.6139  0.4725  0.0551
   76CHL1  H22A 8087   1.345   6.636   8.310 -1.9372 -1.5018 -2.9498
   76CHL1  H22B 8088   1.244   6.783   8.346  0.0231  0.5947 -1.1460
   76CHL1   C23 8089   1.224   6.598   8.472 -0.6459  0.7294 -0.0707
   76CHL1  H23A 8090   1.118   6.599   8.506 -0.5638 -3.3882  0.5619
   76CHL1  H23B 8091   1.239   6.490   8.452 -2.6927  0.6094 -1.0544
   76CHL1   C24 8092   1.306   6.653   8.597  0.2183 -0.2995  0.0840
   76CHL1  H24A 8093   1.302   6.760   8.625  1.0206 -0.3968  0.5908
   76CHL1  H24B 8094   1.255   6.618   8.690 -1.7787 -0.9484 -1.2136
   76CHL1   C25 8095   1.452   6.598   8.608  0.5335 -0.0085 -0.1771
   76CHL1   H25 8096   1.504   6.614   8.511  1.3235 -0.0367  0.2367
   76CHL1   C26 8097   1.523   6.688   8.708  0.4240 -0.1261 -0.0838
   76CHL1  H26A 8098   1.479   6.680   8.810  0.1906 -2.3965 -0.3361
   76CHL1  H26B 8099   1.628   6.655   8.717  1.2604  2.1845 -1.0437
   76CHL1  H26C 8100   1.518   6.794   8.676 -0.5633  0.0486  0.5943
   76CHL1   C27 8101   1.464   6.447   8.634  0.2051  0.4624 -0.0862
   76CHL1  H27A 8102   1.434   6.426   8.739  1.4395  1.8106  0.5658
   76CHL1  H27B 8103   1.402   6.398   8.557  1.5262  1.0327 -1.5435
   76CHL1  H27C 8104   1.569   6.414   8.619 -0.4496 -1.1664 -1.1653
   77CHL1    C3 8105   1.671   4.576   6.822  0.0097  0.1198  0.0314
   77CHL1    H3 8106   1.698   4.468   6.825 -1.6311 -0.3986 -2.5049
   77CHL1    O3 8107   1.657   4.614   6.684 -0.8456  0.1295 -0.0589
   77CHL1   H3' 8108   1.688   4.533   6.642  0.7194 -0.8259  2.8178
   77CHL1    C4 8109   1.534   4.594   6.894 -0.1280 -0.1189 -0.5803
   77CHL1   H4A 8110   1.502   4.696   6.864 -3.1318 -0.4999  1.0778
   77CHL1   H4B 8111   1.462   4.526   6.843  0.5241 -0.2676 -1.2996
   77CHL1    C5 8112   1.539   4.572   7.046 -0.3639 -0.6156 -0.0742
   77CHL1    C6 8113   1.457   4.495   7.116  0.0494  0.3219  0.4416
   77CHL1    H6 8114   1.383   4.437   7.059  1.9873  1.2396 -3.1443
   77CHL1    C7 8115   1.450   4.491   7.271  0.5634 -0.2741 -0.8642
   77CHL1   H7A 8116   1.346   4.513   7.305  0.9902 -2.8380  2.3666
   77CHL1   H7B 8117   1.463   4.390   7.316 -1.4565 -1.3588 -2.6012
   77CHL1    C8 8118   1.552   4.591   7.345  0.4106  0.9231  0.1267
   77CHL1    H8 8119   1.494   4.685   7.358 -1.0166  0.4927 -2.7363
   77CHL1   C14 8120   1.591   4.535   7.485 -0.2024  0.4244 -0.6956
   77CHL1   H14 8121   1.655   4.446   7.469  1.2612  1.4177 -0.4150
   77CHL1   C15 8122   1.474   4.485   7.584  0.3346  0.1922  0.2244
   77CHL1  H15A 8123   1.392   4.558   7.568  0.4511  0.7634  2.1210
   77CHL1  H15B 8124   1.426   4.385   7.571  0.0674  0.6268 -2.4610
   77CHL1   C16 8125   1.541   4.497   7.730  0.1714  0.2091  0.3253
   77CHL1  H16A 8126   1.479   4.576   7.777  1.9642  0.5113  2.2628
   77CHL1  H16B 8127   1.529   4.402   7.786  0.9550  0.3720  0.7715
   77CHL1   C17 8128   1.683   4.560   7.702 -0.3940  0.3031  0.2170
   77CHL1   H17 8129   1.746   4.472   7.677  1.0961  0.6655  2.5294
   77CHL1   C13 8130   1.677   4.632   7.566 -0.5544  0.6326 -0.1866
   77CHL1   C18 8131   1.598   4.765   7.596  0.2862  0.7676  0.2498
   77CHL1  H18A 8132   1.669   4.842   7.633  1.0238 -0.2031  0.8531
   77CHL1  H18B 8133   1.556   4.809   7.503 -0.0895 -1.1566 -0.5152
   77CHL1  H18C 8134   1.512   4.748   7.663 -0.5592  1.5922 -0.6036
   77CHL1   C12 8135   1.802   4.664   7.479 -0.3661  0.1573  0.3959
   77CHL1  H12A 8136   1.857   4.744   7.533  1.0412  0.5361 -1.5268
   77CHL1  H12B 8137   1.865   4.573   7.481 -0.7865 -0.1630 -0.5802
   77CHL1   C11 8138   1.779   4.707   7.334 -0.9171 -0.1157  0.5439
   77CHL1  H11A 8139   1.737   4.809   7.331  0.4107  0.4153 -1.6642
   77CHL1  H11B 8140   1.880   4.718   7.288 -0.9181 -1.0114  0.3119
   77CHL1    C9 8141   1.678   4.621   7.260  0.1676  0.0658  0.0026
   77CHL1    H9 8142   1.734   4.525   7.255  2.0794  1.0902  1.1643
   77CHL1   C10 8143   1.641   4.662   7.115 -0.2332  0.2837  0.1930
   77CHL1   C19 8144   1.576   4.799   7.111  0.1244  0.3305  0.1034
   77CHL1  H19A 8145   1.634   4.877   7.165  0.2337  0.7208 -0.5692
   77CHL1  H19B 8146   1.574   4.840   7.008  1.0712  1.6569  0.6000
   77CHL1  H19C 8147   1.482   4.800   7.170  0.8852  0.3525  1.3290
   77CHL1    C1 8148   1.779   4.657   7.041 -0.0152 -0.3246  0.3890
   77CHL1   H1A 8149   1.841   4.747   7.064 -1.3267  0.6666  0.0746
   77CHL1   H1B 8150   1.839   4.565   7.061  1.4453 -0.0735 -2.5137
   77CHL1    C2 8151   1.773   4.670   6.888  0.0733  0.3809  0.4748
   77CHL1   H2A 8152   1.874   4.642   6.850  0.1045  0.6380  0.3658
   77CHL1   H2B 8153   1.745   4.774   6.861  2.0781  0.4428 -1.4982
   77CHL1   C20 8154   1.754   4.629   7.819 -0.2377 -0.2166 -0.7256
   77CHL1   H20 8155   1.727   4.737   7.822  0.5092 -0.0010 -1.6431
   77CHL1   C21 8156   1.899   4.609   7.787 -0.2159  0.0148 -0.2255
   77CHL1  H21A 8157   1.926   4.506   7.757 -0.3679 -0.0727 -0.0623
   77CHL1  H21B 8158   1.968   4.643   7.868 -1.3289  1.4991  0.1133
   77CHL1  H21C 8159   1.933   4.677   7.706  2.2244  0.1785  0.8778
   77CHL1   C22 8160   1.748   4.572   7.957  0.4974 -0.1648  0.2016
   77CHL1  H22A 8161   1.646   4.533   7.976  0.9384 -1.4485  0.0133
   77CHL1  H22B 8162   1.822   4.489   7.960 -1.3113 -1.8806 -1.2913
   77CHL1   C23 8163   1.795   4.675   8.065  0.2572 -0.4571  0.3513
   77CHL1  H23A 8164   1.887   4.725   8.027 -0.2998  1.1345  1.0842
   77CHL1  H23B 8165   1.715   4.751   8.065  1.3677  0.7602 -1.7171
   77CHL1   C24 8166   1.823   4.614   8.199  0.3496 -0.4918  0.2462
   77CHL1  H24A 8167   1.725   4.577   8.237 -0.3437  2.1194  1.1162
   77CHL1  H24B 8168   1.883   4.522   8.184  0.3567 -0.3150 -0.8531
   77CHL1   C25 8169   1.877   4.709   8.307  1.2256 -0.4238 -0.0550
   77CHL1   H25 8170   1.818   4.802   8.322 -1.2485 -2.4125  3.3051
   77CHL1   C26 8171   1.878   4.648   8.448  0.4794 -0.1687 -0.6865
   77CHL1  H26A 8172   1.772   4.622   8.471  1.1197 -3.1309 -0.9255
   77CHL1  H26B 8173   1.948   4.562   8.452  0.9713  0.1405 -2.2389
   77CHL1  H26C 8174   1.917   4.718   8.525  1.9194 -0.2489 -1.3241
   77CHL1   C27 8175   2.025   4.737   8.270 -0.6565 -0.1587 -0.4816
   77CHL1  H27A 8176   2.080   4.641   8.265 -1.7250 -0.8692  1.0672
   77CHL1  H27B 8177   2.039   4.796   8.177  2.7102 -1.2743 -0.7207
   77CHL1  H27C 8178   2.067   4.788   8.358 -1.1642  1.8723 -1.3869
   78CHL1    C3 8179   3.036   6.016   6.847 -0.1505 -0.6924 -0.3204
   78CHL1    H3 8180   3.108   6.100   6.850  0.4109 -1.2119  1.2180
   78CHL1    O3 8181   3.010   5.976   6.713  0.1045 -0.3456 -0.2460
   78CHL1   H3' 8182   3.039   5.885   6.703 -1.3210 -0.8373 -0.0202
   78CHL1    C4 8183   3.097   5.892   6.923 -0.0968  0.4235  0.9004
   78CHL1   H4A 8184   3.027   5.808   6.906  0.7879 -0.1590  0.1125
   78CHL1   H4B 8185   3.190   5.863   6.870 -0.1628 -0.4072  1.2337
   78CHL1    C5 8186   3.120   5.916   7.066  0.5654 -0.2132  0.5286
   78CHL1    C6 8187   3.242   5.906   7.128  1.3237  0.2602 -0.2459
   78CHL1    H6 8188   3.327   5.871   7.068  0.7928  0.1287 -0.9181
   78CHL1    C7 8189   3.262   5.937   7.273  0.1467  0.3193  0.2564
   78CHL1   H7A 8190   3.323   5.855   7.317 -1.7958 -1.4994 -0.3641
   78CHL1   H7B 8191   3.313   6.035   7.275  2.3851 -0.8191  2.4242
   78CHL1    C8 8192   3.133   5.942   7.355  0.5674 -0.8555  0.1038
   78CHL1    H8 8193   3.100   5.836   7.358 -0.0779 -0.6256  1.1931
   78CHL1   C14 8194   3.161   5.998   7.496 -0.0990 -0.0482  0.1175
   78CHL1   H14 8195   3.204   6.098   7.473 -2.4981  0.9002 -0.3052
   78CHL1   C15 8196   3.273   5.926   7.581  0.2539 -0.4743 -0.0188
   78CHL1  H15A 8197   3.251   5.817   7.575 -2.0383 -0.0676  0.6274
   78CHL1  H15B 8198   3.366   5.955   7.527  0.2186  1.6320  1.0213
   78CHL1   C16 8199   3.257   5.980   7.726  0.0138 -0.5370  0.7754
   78CHL1  H16A 8200   3.238   5.896   7.796 -2.8585 -0.1700  0.4879
   78CHL1  H16B 8201   3.346   6.041   7.752  0.1895 -0.6506  0.4558
   78CHL1   C17 8202   3.130   6.064   7.719 -0.7579 -0.8066  0.3203
   78CHL1   H17 8203   3.164   6.166   7.690 -0.8840 -0.7894  0.2370
   78CHL1   C13 8204   3.042   6.017   7.594 -0.0696  0.4538  0.4956
   78CHL1   C18 8205   2.975   5.882   7.621 -0.5259 -0.2685  0.0928
   78CHL1  H18A 8206   3.048   5.822   7.679  0.2150  3.6320  3.3938
   78CHL1  H18B 8207   2.880   5.896   7.677  0.0878  1.3674  0.7356
   78CHL1  H18C 8208   2.952   5.838   7.521 -1.8959 -1.8808  1.0890
   78CHL1   C12 8209   2.945   6.115   7.527  0.1412 -0.8536  0.3468
   78CHL1  H12A 8210   2.853   6.148   7.580  1.5382 -0.0006  2.2974
   78CHL1  H12B 8211   3.007   6.207   7.525 -1.3203  0.1495  0.5331
   78CHL1   C11 8212   2.912   6.079   7.384  0.7334 -0.0493  0.2200
   78CHL1  H11A 8213   2.840   5.994   7.387  1.4153 -0.6147  0.5903
   78CHL1  H11B 8214   2.841   6.154   7.343  0.2687 -0.4380  0.3015
   78CHL1    C9 8215   3.033   6.037   7.292  0.6109  0.3386  0.2401
   78CHL1    H9 8216   3.082   6.135   7.271 -1.3736  1.5389  1.0632
   78CHL1   C10 8217   2.997   5.980   7.144  0.2126 -0.0306  0.0116
   78CHL1   C19 8218   2.880   5.881   7.154 -0.0792 -0.1696  0.4538
   78CHL1  H19A 8219   2.902   5.804   7.231  1.5664 -1.9087 -1.7193
   78CHL1  H19B 8220   2.784   5.931   7.181 -0.1290 -0.3259  0.5731
   78CHL1  H19C 8221   2.860   5.822   7.062 -2.1487  1.1197  0.0362
   78CHL1    C1 8222   2.929   6.098   7.061 -0.6836 -0.5083 -0.1440
   78CHL1   H1A 8223   2.837   6.137   7.111 -0.8861 -1.1703  0.0131
   78CHL1   H1B 8224   2.997   6.185   7.073 -1.9691  0.3995  0.7901
   78CHL1    C2 8225   2.910   6.070   6.913 -0.3197 -0.0632 -0.7634
   78CHL1   H2A 8226   2.872   6.156   6.854  1.3923  0.6003 -0.8980
   78CHL1   H2B 8227   2.825   5.999   6.897  0.0042 -0.7672  0.6055
   78CHL1   C20 8228   3.048   6.075   7.844  0.3399 -0.1438  0.2613
   78CHL1   H20 8229   3.003   5.976   7.868 -1.4155  0.3479 -0.9898
   78CHL1   C21 8230   2.924   6.173   7.838 -0.4745  0.3189  0.6299
   78CHL1  H21A 8231   2.956   6.264   7.784 -1.2878  0.7843  0.9177
   78CHL1  H21B 8232   2.885   6.195   7.940 -0.7777  0.5698  0.4630
   78CHL1  H21C 8233   2.848   6.123   7.775 -0.2903  1.1455 -0.2640
   78CHL1   C22 8234   3.132   6.105   7.968 -0.2470  0.2411  0.8916
   78CHL1  H22A 8235   3.234   6.063   7.976  0.0901  1.3892  3.0251
   78CHL1  H22B 8236   3.140   6.215   7.978  1.3906  0.1398  0.7661
   78CHL1   C23 8237   3.064   6.058   8.104  0.3552 -0.1126 -0.5274
   78CHL1  H23A 8238   2.971   6.117   8.114 -0.0844 -0.6826 -1.2261
   78CHL1  H23B 8239   3.043   5.950   8.090 -1.6765  0.1849  0.1467
   78CHL1   C24 8240   3.152   6.072   8.233  0.6443 -0.6032  0.9304
   78CHL1  H24A 8241   3.220   5.985   8.239  0.2477 -0.8021  2.6115
   78CHL1  H24B 8242   3.204   6.170   8.229  1.0600 -0.8341  0.5737
   78CHL1   C25 8243   3.070   6.068   8.368  0.2089  0.5097 -0.3767
   78CHL1   H25 8244   2.990   6.144   8.355 -1.3118 -1.2434 -1.4467
   78CHL1   C26 8245   3.005   5.935   8.391  0.3029 -0.1915 -0.3516
   78CHL1  H26A 8246   2.951   5.910   8.297  0.9449  1.1077 -1.0760
   78CHL1  H26B 8247   3.075   5.848   8.393 -1.3346 -1.6109 -2.3460
   78CHL1  H26C 8248   2.939   5.931   8.480 -1.2918 -0.9818 -1.5356
   78CHL1   C27 8249   3.137   6.100   8.493 -0.6906  0.5046 -0.1677
   78CHL1  H27A 8250   3.190   6.198   8.494 -0.2046  0.2415 -0.4331
   78CHL1  H27B 8251   3.060   6.114   8.573 -1.2211 -2.1016 -0.1879
   78CHL1  H27C 8252   3.207   6.019   8.523 -0.4232  1.0215  0.6181
   79CHL1    C3 8253   2.120   6.416   7.144 -0.1182  0.1838  0.9113
   79CHL1    H3 8254   2.220   6.368   7.151 -0.4380 -0.3497  1.7951
   79CHL1    O3 8255   2.105   6.477   7.015 -0.0166 -0.2156 -0.0864
   79CHL1   H3' 8256   2.115   6.396   6.965 -1.9852 -0.7690  0.3639
   79CHL1    C4 8257   2.014   6.310   7.176  1.0123 -0.4777  0.7230
   79CHL1   H4A 8258   1.912   6.349   7.154  1.4579  0.0518 -0.4447
   79CHL1   H4B 8259   2.024   6.227   7.103 -0.7867  0.3059 -0.4346
   79CHL1    C5 8260   2.022   6.251   7.316  0.7566  0.3919  0.6003
   79CHL1    C6 8261   2.022   6.121   7.334 -0.3083  0.5582 -0.8088
   79CHL1    H6 8262   2.005   6.058   7.246  0.9279 -0.5198 -0.3024
   79CHL1    C7 8263   2.042   6.051   7.467 -0.1727  0.2909 -0.2371
   79CHL1   H7A 8264   1.961   5.980   7.495  0.2849  0.1566  0.7821
   79CHL1   H7B 8265   2.141   6.003   7.464 -0.8070 -1.0688  0.1769
   79CHL1    C8 8266   2.039   6.138   7.591 -0.8575 -0.0949 -1.1523
   79CHL1    H8 8267   1.933   6.153   7.622 -1.1709 -1.6074 -1.4473
   79CHL1   C14 8268   2.107   6.081   7.709 -0.2351 -0.1574  0.4225
   79CHL1   H14 8269   2.217   6.081   7.698 -0.3076 -2.2656 -0.4255
   79CHL1   C15 8270   2.067   5.935   7.745 -0.0148 -0.4846 -0.5962
   79CHL1  H15A 8271   1.959   5.908   7.742  0.4304 -2.3774 -0.0250
   79CHL1  H15B 8272   2.116   5.860   7.679  0.8003 -0.0279 -0.5153
   79CHL1   C16 8273   2.111   5.926   7.892 -1.3071  0.2073  0.2756
   79CHL1  H16A 8274   2.018   5.888   7.941 -0.4074 -0.3626  1.5468
   79CHL1  H16B 8275   2.193   5.854   7.910 -1.6113  0.3617  2.3970
   79CHL1   C17 8276   2.163   6.072   7.940 -0.1066 -0.0410 -0.0080
   79CHL1   H17 8277   2.269   6.076   7.907  0.0877  1.4006  0.7377
   79CHL1   C13 8278   2.091   6.163   7.842 -0.2301 -0.2323  0.4944
   79CHL1   C18 8279   1.940   6.175   7.878  0.0159  0.5538  0.3430
   79CHL1  H18A 8280   1.889   6.077   7.891  0.8358  0.0667 -0.1491
   79CHL1  H18B 8281   1.930   6.230   7.974 -1.5086 -1.2910  1.2840
   79CHL1  H18C 8282   1.871   6.237   7.816 -0.8823  0.1323  0.9085
   79CHL1   C12 8283   2.152   6.302   7.816 -0.0182 -0.5095  0.4878
   79CHL1  H12A 8284   2.138   6.371   7.902  2.9531 -1.1730  1.5783
   79CHL1  H12B 8285   2.262   6.291   7.805  0.1013  1.5416 -0.5707
   79CHL1   C11 8286   2.088   6.365   7.690 -0.4398 -0.0425 -0.2323
   79CHL1  H11A 8287   1.978   6.370   7.703 -0.1344  1.5701  2.1336
   79CHL1  H11B 8288   2.140   6.461   7.669  1.1189 -0.8099  0.0660
   79CHL1    C9 8289   2.098   6.277   7.563  0.2311 -0.2074 -0.3035
   79CHL1    H9 8290   2.205   6.260   7.540  0.3070 -0.8523  0.4955
   79CHL1   C10 8291   2.055   6.350   7.432  0.4510  0.3166 -0.0980
   79CHL1   C19 8292   1.909   6.409   7.462  0.1114  0.8307 -0.0940
   79CHL1  H19A 8293   1.840   6.329   7.495  1.6933  0.3981  2.2752
   79CHL1  H19B 8294   1.924   6.479   7.547 -3.3045  0.9752  0.4734
   79CHL1  H19C 8295   1.870   6.464   7.374  1.6691  1.4229 -0.4347
   79CHL1    C1 8296   2.150   6.467   7.390 -0.2089 -0.6608  0.1068
   79CHL1   H1A 8297   2.141   6.544   7.470 -2.1609 -2.4337  1.6460
   79CHL1   H1B 8298   2.255   6.432   7.383 -1.1872 -3.2058 -2.3865
   79CHL1    C2 8299   2.112   6.518   7.248 -0.4111  0.6764  0.2667
   79CHL1   H2A 8300   2.179   6.603   7.224  0.9794 -0.0708  1.3996
   79CHL1   H2B 8301   2.009   6.560   7.247 -2.0324 -3.1091  0.6820
   79CHL1   C20 8302   2.145   6.108   8.092  0.1544 -0.3131 -0.1063
   79CHL1   H20 8303   2.130   6.218   8.100  0.5961 -0.2996  0.6073
   79CHL1   C21 8304   2.267   6.064   8.173  0.2100 -0.1058  0.3560
   79CHL1  H21A 8305   2.282   5.955   8.154 -0.8242 -0.3582  0.9245
   79CHL1  H21B 8306   2.257   6.082   8.282  0.0310 -0.7946  0.4583
   79CHL1  H21C 8307   2.353   6.117   8.127 -1.8677  2.5878 -0.5488
   79CHL1   C22 8308   2.021   6.044   8.162  0.6580  0.2179  0.1631
   79CHL1  H22A 8309   1.931   6.032   8.098  1.4910 -0.5671 -0.8882
   79CHL1  H22B 8310   2.043   5.936   8.181  2.1200  0.7294  1.5445
   79CHL1   C23 8311   1.976   6.115   8.291 -0.6225 -0.1834  0.3049
   79CHL1  H23A 8312   2.059   6.140   8.360 -1.0063 -0.4292  0.8601
   79CHL1  H23B 8313   1.924   6.209   8.263 -0.6940 -0.0952  0.7312
   79CHL1   C24 8314   1.878   6.031   8.375 -0.0544 -0.5128 -0.4497
   79CHL1  H24A 8315   1.793   5.987   8.318 -1.4870 -0.9387  1.9727
   79CHL1  H24B 8316   1.935   5.942   8.411  0.4596  0.0928  0.2282
   79CHL1   C25 8317   1.830   6.106   8.496  0.8620 -0.3195 -0.4473
   79CHL1   H25 8318   1.803   6.209   8.464 -2.1082 -0.9628 -0.1932
   79CHL1   C26 8319   1.696   6.050   8.541  0.7025  0.4953 -0.2011
   79CHL1  H26A 8320   1.648   6.117   8.615 -0.9868 -0.1921 -0.6356
   79CHL1  H26B 8321   1.627   6.037   8.455  2.3191 -1.0577 -1.3132
   79CHL1  H26C 8322   1.718   5.951   8.586  2.2614  0.3109 -1.3319
   79CHL1   C27 8323   1.939   6.117   8.610 -0.1148 -0.3031  0.0641
   79CHL1  H27A 8324   2.027   6.183   8.593 -0.2043  1.2518  4.8030
   79CHL1  H27B 8325   1.888   6.162   8.698 -1.7442 -0.3360 -0.8363
   79CHL1  H27C 8326   1.978   6.016   8.636  1.0966 -0.2081 -1.3949
   80CHL1    C3 8327   0.028   3.170   7.026 -0.6142 -0.1451 -0.0543
   80CHL1    H3 8328  -0.045   3.096   7.065 -0.7662  0.4081  0.7231
   80CHL1    O3 8329   0.051   3.142   6.891 -0.3583 -0.6157 -0.3662
   80CHL1   H3' 8330  -0.027   3.182   6.852 -0.1237  0.0375 -0.1658
   80CHL1    C4 8331  -0.026   3.309   7.038  0.4586  0.2518  0.8629
   80CHL1   H4A 8332   0.037   3.384   6.986  1.1295 -0.4250  0.7002
   80CHL1   H4B 8333  -0.121   3.308   6.980  0.6506  2.0554  0.5130
   80CHL1    C5 8334  -0.052   3.331   7.185  0.0467  0.9884  0.6798
   80CHL1    C6 8335  -0.175   3.341   7.247  0.1655 -0.7147 -0.0608
   80CHL1    H6 8336  -0.258   3.333   7.175 -0.4312 -1.1458  0.6631
   80CHL1    C7 8337  -0.203   3.385   7.395 -0.3208  0.4294 -0.0064
   80CHL1   H7A 8338  -0.266   3.475   7.409  0.1945  0.6953  0.6705
   80CHL1   H7B 8339  -0.248   3.310   7.464 -0.2489 -0.0870 -0.5211
   80CHL1    C8 8340  -0.066   3.428   7.454 -0.0105 -0.4127 -0.7733
   80CHL1    H8 8341  -0.047   3.530   7.412 -2.4558  0.1218 -0.6984
   80CHL1   C14 8342  -0.084   3.445   7.610  0.5849  0.0413  0.1557
   80CHL1   H14 8343  -0.098   3.341   7.646  0.2520 -0.3696 -1.1532
   80CHL1   C15 8344  -0.197   3.540   7.665  0.0020  0.5772  0.6974
   80CHL1  H15A 8345  -0.206   3.634   7.606 -2.8106  0.7388  1.2896
   80CHL1  H15B 8346  -0.291   3.482   7.651  0.2818 -0.3033  2.3315
   80CHL1   C16 8347  -0.163   3.557   7.810  0.3212 -0.7395 -0.6113
   80CHL1  H16A 8348  -0.152   3.666   7.826 -2.5997  0.1279 -3.8506
   80CHL1  H16B 8349  -0.241   3.519   7.879  1.0488 -2.3681 -0.6544
   80CHL1   C17 8350  -0.018   3.514   7.831  0.4711  0.2925 -0.7809
   80CHL1   H17 8351  -0.024   3.406   7.858  1.9272  0.2131 -0.7399
   80CHL1   C13 8352   0.041   3.492   7.691 -0.3286 -0.1869  1.6427
   80CHL1   C18 8353   0.074   3.636   7.638 -0.5686 -0.1183 -0.0719
   80CHL1  H18A 8354   0.006   3.722   7.654 -1.4569 -0.2212 -2.9780
   80CHL1  H18B 8355   0.171   3.659   7.686 -0.0506 -2.1312 -0.0917
   80CHL1  H18C 8356   0.097   3.636   7.529 -1.8360  0.8505 -0.3436
   80CHL1   C12 8357   0.158   3.393   7.657  0.5888 -0.7540 -0.1227
   80CHL1  H12A 8358   0.255   3.419   7.706  0.2052 -0.1562  0.3293
   80CHL1  H12B 8359   0.127   3.301   7.710 -0.1534 -0.5811 -0.2522
   80CHL1   C11 8360   0.186   3.381   7.503  0.2567  0.1637  0.9425
   80CHL1  H11A 8361   0.236   3.473   7.466  0.0597  0.3747  1.1968
   80CHL1  H11B 8362   0.261   3.300   7.490 -1.1419 -0.5229 -3.5104
   80CHL1    C9 8363   0.057   3.343   7.423 -0.5725  0.8368 -0.4545
   80CHL1    H9 8364   0.026   3.242   7.458  0.1494 -0.0993 -2.4390
   80CHL1   C10 8365   0.072   3.332   7.269  0.0770  0.2650  0.6825
   80CHL1   C19 8366   0.148   3.459   7.226 -0.2692 -0.3557 -0.3766
   80CHL1  H19A 8367   0.252   3.468   7.262 -0.9309  2.4373  0.9358
   80CHL1  H19B 8368   0.172   3.456   7.118  0.1596  1.8069 -0.3549
   80CHL1  H19C 8369   0.105   3.557   7.254 -0.4801 -0.4704 -0.2941
   80CHL1    C1 8370   0.159   3.201   7.249  0.3899  0.0947  0.3228
   80CHL1   H1A 8371   0.265   3.223   7.276  0.6493  3.5848 -3.0365
   80CHL1   H1B 8372   0.107   3.118   7.302 -2.2287  0.6179 -1.3581
   80CHL1    C2 8373   0.161   3.156   7.101  0.2535 -0.1179  0.5166
   80CHL1   H2A 8374   0.207   3.056   7.084  0.7929  0.5976 -2.4616
   80CHL1   H2B 8375   0.233   3.227   7.054  2.5068 -1.7710  1.3729
   80CHL1   C20 8376   0.054   3.590   7.935  0.1111 -0.9470  0.1260
   80CHL1   H20 8377   0.089   3.687   7.894 -1.3716 -0.3394  0.2858
   80CHL1   C21 8378   0.179   3.508   7.969  0.4889  0.4300 -0.0957
   80CHL1  H21A 8379   0.227   3.558   8.056 -0.5293  0.7114  0.3163
   80CHL1  H21B 8380   0.253   3.500   7.886 -1.3857 -1.5566 -1.6385
   80CHL1  H21C 8381   0.152   3.402   7.989 -0.1089  0.5595 -0.2012
   80CHL1   C22 8382  -0.028   3.627   8.055 -0.3194  0.2756 -0.3433
   80CHL1  H22A 8383   0.042   3.683   8.121 -3.1293  1.5988  1.6243
   80CHL1  H22B 8384  -0.107   3.702   8.038  0.5961  1.1087 -1.0067
   80CHL1   C23 8385  -0.092   3.511   8.136 -0.4710  0.3030  0.0496
   80CHL1  H23A 8386  -0.136   3.437   8.066 -0.4887 -0.5062  0.9263
   80CHL1  H23B 8387  -0.015   3.458   8.196 -1.0132 -0.6646 -0.1143
   80CHL1   C24 8388  -0.201   3.570   8.234 -0.7448 -0.5342 -0.2029
   80CHL1  H24A 8389  -0.152   3.638   8.307 -0.4845  0.5998 -1.4217
   80CHL1  H24B 8390  -0.286   3.623   8.186 -0.5072 -0.8479 -0.9768
   80CHL1   C25 8391  -0.261   3.467   8.331 -0.4033  0.3826  0.1253
   80CHL1   H25 8392  -0.177   3.413   8.379 -0.1829 -0.5478 -1.2937
   80CHL1   C26 8393  -0.342   3.535   8.440 -0.4527 -0.0724  0.2349
   80CHL1  H26A 8394  -0.277   3.607   8.496  1.0067 -0.3280 -1.1072
   80CHL1  H26B 8395  -0.429   3.595   8.406 -1.2678 -0.6740  1.2230
   80CHL1  H26C 8396  -0.387   3.458   8.506  1.8786  0.2317  2.2536
   80CHL1   C27 8397  -0.354   3.363   8.267 -0.2079  0.1488 -0.4846
   80CHL1  H27A 8398  -0.312   3.289   8.196 -2.0383  0.3093 -1.7599
   80CHL1  H27B 8399  -0.385   3.296   8.350 -0.0739  0.5856 -0.0833
   80CHL1  H27C 8400  -0.451   3.406   8.232 -1.0498 -1.0170  0.3649
   81CHL1    C3 8401   5.151   3.789   6.745  0.4760 -0.4723  0.9029
   81CHL1    H3 8402   5.233   3.855   6.711  0.0388  0.7723  2.2418
   81CHL1    O3 8403   5.108   3.723   6.623 -0.5377 -0.0975  0.6600
   81CHL1   H3' 8404   5.024   3.687   6.649 -0.3606 -1.0132  0.0040
   81CHL1    C4 8405   5.210   3.683   6.848 -0.0237 -0.0939  0.1902
   81CHL1   H4A 8406   5.131   3.605   6.856 -0.8259  0.4612 -1.9565
   81CHL1   H4B 8407   5.302   3.639   6.804  0.0483 -1.4232  1.5978
   81CHL1    C5 8408   5.233   3.753   6.975 -0.5757  0.0276 -0.1263
   81CHL1    C6 8409   5.351   3.749   7.034  0.0105 -0.1331 -0.4895
   81CHL1    H6 8410   5.430   3.695   6.980 -0.1541 -0.0030 -0.8574
   81CHL1    C7 8411   5.388   3.803   7.169  0.2007 -0.0327  0.0138
   81CHL1   H7A 8412   5.452   3.738   7.232  0.0505  0.8204  1.0676
   81CHL1   H7B 8413   5.438   3.899   7.143  1.6439 -0.5956  0.6981
   81CHL1    C8 8414   5.262   3.835   7.257 -0.2218 -0.1017  0.1970
   81CHL1    H8 8415   5.213   3.743   7.294  1.4137 -0.4338  1.5833
   81CHL1   C14 8416   5.290   3.916   7.379  0.1451 -0.7566 -0.5967
   81CHL1   H14 8417   5.346   4.006   7.345 -1.5381  0.9338  1.0028
   81CHL1   C15 8418   5.403   3.854   7.464  0.0130 -0.5048  0.3205
   81CHL1  H15A 8419   5.386   3.748   7.490  0.9892 -0.5437  0.8253
   81CHL1  H15B 8420   5.504   3.871   7.420  0.4165  1.2190  1.8340
   81CHL1   C16 8421   5.392   3.948   7.594 -0.8064  0.4939  0.0224
   81CHL1  H16A 8422   5.372   3.875   7.675 -0.8819  2.4396  1.8189
   81CHL1  H16B 8423   5.478   4.018   7.605  0.2958 -0.2574 -3.1801
   81CHL1   C17 8424   5.265   4.035   7.582 -0.3400 -0.6950  0.4392
   81CHL1   H17 8425   5.300   4.131   7.537 -0.8304 -1.2780 -1.2154
   81CHL1   C13 8426   5.181   3.960   7.469  0.0530 -1.0527 -0.0303
   81CHL1   C18 8427   5.108   3.843   7.520  0.2769  0.1245  0.1318
   81CHL1  H18A 8428   5.024   3.878   7.584  0.0576 -2.2149  1.1690
   81CHL1  H18B 8429   5.060   3.781   7.441 -0.8260 -2.6320  2.8477
   81CHL1  H18C 8430   5.165   3.770   7.581 -1.7281 -0.8334  0.9447
   81CHL1   C12 8431   5.087   4.052   7.387 -0.5844  0.2711 -0.0150
   81CHL1  H12A 8432   4.997   4.096   7.434 -1.5192 -1.5448 -0.0406
   81CHL1  H12B 8433   5.146   4.140   7.354 -0.4069 -0.8878 -2.8738
   81CHL1   C11 8434   5.045   3.987   7.256  0.5145 -0.5891 -0.0428
   81CHL1  H11A 8435   4.964   3.912   7.271 -1.7131  1.6945 -0.3160
   81CHL1  H11B 8436   5.002   4.063   7.187 -1.2203 -0.3070  1.3296
   81CHL1    C9 8437   5.163   3.915   7.175 -0.3906  0.5561 -0.7282
   81CHL1    H9 8438   5.218   4.007   7.144  0.9888  0.0257  0.0655
   81CHL1   C10 8439   5.119   3.840   7.044 -0.0879  0.4056 -0.0007
   81CHL1   C19 8440   5.008   3.741   7.089 -0.3423  0.0825  0.1283
   81CHL1  H19A 8441   4.995   3.670   7.005 -2.1380  1.7261 -1.0191
   81CHL1  H19B 8442   5.036   3.686   7.182 -1.4443  1.0841  1.0826
   81CHL1  H19C 8443   4.908   3.786   7.106  0.7025  2.3083  0.5311
   81CHL1    C1 8444   5.066   3.942   6.941 -0.0172  0.8391 -0.3984
   81CHL1   H1A 8445   4.973   3.981   6.988  0.0053  2.2187 -1.4752
   81CHL1   H1B 8446   5.141   4.023   6.931  0.3950  0.7388  1.6821
   81CHL1    C2 8447   5.034   3.870   6.802  0.2278 -0.0183  0.2077
   81CHL1   H2A 8448   4.991   3.947   6.735  1.3764  1.1578  0.8002
   81CHL1   H2B 8449   4.955   3.793   6.814  0.2020  0.1026  0.8588
   81CHL1   C20 8450   5.206   4.070   7.720 -0.3780  0.2553 -0.4601
   81CHL1   H20 8451   5.175   3.973   7.766 -1.6154  0.7995 -0.1260
   81CHL1   C21 8452   5.081   4.160   7.698  0.2135 -0.0794 -0.1529
   81CHL1  H21A 8453   5.113   4.231   7.619 -1.4766 -1.6792 -2.3430
   81CHL1  H21B 8454   5.034   4.209   7.785 -3.5035 -3.5075 -0.0666
   81CHL1  H21C 8455   5.002   4.101   7.647 -1.1979  1.8605 -0.2469
   81CHL1   C22 8456   5.313   4.141   7.801  0.5292 -0.8709  1.2426
   81CHL1  H22A 8457   5.401   4.085   7.840  0.6668 -1.3686  0.2230
   81CHL1  H22B 8458   5.351   4.228   7.743 -0.4519 -1.1120  0.2379
   81CHL1   C23 8459   5.248   4.191   7.931 -0.5851 -0.2093  0.5651
   81CHL1  H23A 8460   5.189   4.282   7.903 -2.4900 -1.4462  0.5021
   81CHL1  H23B 8461   5.187   4.112   7.978  0.0504 -0.8075  0.3870
   81CHL1   C24 8462   5.358   4.234   8.029  0.2153 -0.4721  0.1568
   81CHL1  H24A 8463   5.401   4.143   8.076 -1.9471 -0.8567  1.4619
   81CHL1  H24B 8464   5.436   4.287   7.970  3.5577 -3.5446  1.6464
   81CHL1   C25 8465   5.296   4.323   8.140 -0.2813 -0.5707  0.3403
   81CHL1   H25 8466   5.194   4.287   8.168  0.8260 -1.5506  3.2658
   81CHL1   C26 8467   5.381   4.307   8.265  0.7317 -0.2703 -0.6933
   81CHL1  H26A 8468   5.482   4.350   8.249  1.0338  0.4241  2.8372
   81CHL1  H26B 8469   5.337   4.369   8.346  2.0815  1.4239 -1.2116
   81CHL1  H26C 8470   5.384   4.199   8.291 -1.0488 -0.0183  0.6108
   81CHL1   C27 8471   5.286   4.472   8.094  0.3448  0.3913  0.2145
   81CHL1  H27A 8472   5.216   4.484   8.009  0.8142  1.0920 -0.0779
   81CHL1  H27B 8473   5.254   4.536   8.179  1.4150  0.9057  0.2416
   81CHL1  H27C 8474   5.386   4.506   8.059  1.5325  0.0105  3.0692
   82CHL1    C3 8475   5.912   4.241   7.140 -0.2616  0.7067 -0.4260
   82CHL1    H3 8476   5.906   4.171   7.226  2.3354  2.1531  0.9999
   82CHL1    O3 8477   5.989   4.190   7.032 -0.0815  0.4041  0.1489
   82CHL1   H3' 8478   5.963   4.245   6.957 -0.1213 -0.0594 -0.1755
   82CHL1    C4 8479   5.765   4.267   7.106 -0.8977 -0.3801 -0.3390
   82CHL1   H4A 8480   5.770   4.338   7.020  2.9337  0.0889  0.1366
   82CHL1   H4B 8481   5.721   4.175   7.063 -1.3341  0.7911 -2.4446
   82CHL1    C5 8482   5.689   4.323   7.225  0.5237  1.0537 -0.1955
   82CHL1    C6 8483   5.581   4.259   7.279 -0.3730  0.5726 -0.8230
   82CHL1    H6 8484   5.542   4.169   7.228 -1.1221  0.6369 -0.3804
   82CHL1    C7 8485   5.504   4.311   7.395  0.9738  0.2522 -1.2209
   82CHL1   H7A 8486   5.394   4.300   7.390  1.1569 -1.7252 -1.1881
   82CHL1   H7B 8487   5.546   4.250   7.477 -1.2976  0.0866 -0.1530
   82CHL1    C8 8488   5.538   4.463   7.419 -0.2547  0.2426  0.0833
   82CHL1    H8 8489   5.483   4.528   7.348 -0.6730  0.2996  0.4566
   82CHL1   C14 8490   5.483   4.511   7.554 -0.0446  0.2187  0.2824
   82CHL1   H14 8491   5.545   4.459   7.630  0.8219  1.7965  0.6779
   82CHL1   C15 8492   5.334   4.481   7.587 -0.5958 -0.0796 -0.4693
   82CHL1  H15A 8493   5.273   4.515   7.501 -2.9562 -2.4031  0.2229
   82CHL1  H15B 8494   5.319   4.373   7.607 -1.3808 -0.0164 -0.6950
   82CHL1   C16 8495   5.316   4.567   7.708 -0.5463  0.5127 -0.8998
   82CHL1  H16A 8496   5.239   4.646   7.698 -3.0423 -1.5300  1.3586
   82CHL1  H16B 8497   5.288   4.516   7.803  1.1739  0.6886 -0.2795
   82CHL1   C17 8498   5.443   4.655   7.731 -0.1628 -0.2686 -0.3693
   82CHL1   H17 8499   5.506   4.598   7.803 -0.3189  1.4238  1.1224
   82CHL1   C13 8500   5.515   4.653   7.597 -0.7145 -0.4961 -0.4371
   82CHL1   C18 8501   5.454   4.750   7.498 -0.1633  0.1406 -0.0172
   82CHL1  H18A 8502   5.461   4.860   7.513 -0.2092 -0.0426  1.3720
   82CHL1  H18B 8503   5.492   4.738   7.394  0.6561 -2.2428  0.5253
   82CHL1  H18C 8504   5.345   4.732   7.495  0.0631 -1.0459 -1.6298
   82CHL1   C12 8505   5.674   4.675   7.598  0.2915  0.0342 -0.0658
   82CHL1  H12A 8506   5.710   4.775   7.629 -0.2156 -0.1294  1.0880
   82CHL1  H12B 8507   5.724   4.603   7.666  2.5652 -0.2027 -1.9555
   82CHL1   C11 8508   5.731   4.640   7.458 -0.1048 -0.1247  0.7337
   82CHL1  H11A 8509   5.693   4.711   7.382  0.3319 -1.0835 -0.4078
   82CHL1  H11B 8510   5.842   4.643   7.460  0.1345 -3.3400 -1.9944
   82CHL1    C9 8511   5.693   4.489   7.411  0.0508 -0.0867  0.5348
   82CHL1    H9 8512   5.751   4.432   7.487  3.4629  0.7159 -1.3319
   82CHL1   C10 8513   5.750   4.455   7.276 -0.1731  0.3003 -0.2587
   82CHL1   C19 8514   5.733   4.572   7.168  0.1580 -0.4026 -0.5614
   82CHL1  H19A 8515   5.788   4.542   7.077 -1.1339 -0.3089 -1.3843
   82CHL1  H19B 8516   5.627   4.583   7.135  0.3802 -1.7471 -1.7785
   82CHL1  H19C 8517   5.780   4.669   7.197 -0.1096 -0.7134  0.9833
   82CHL1    C1 8518   5.905   4.425   7.298 -0.1464  0.3436 -0.4859
   82CHL1   H1A 8519   5.954   4.517   7.335  2.0971 -0.9807 -0.0638
   82CHL1   H1B 8520   5.916   4.360   7.388  0.8894 -0.3064 -1.0645
   82CHL1    C2 8521   5.987   4.365   7.185  0.7401 -0.4196 -0.5841
   82CHL1   H2A 8522   6.086   4.343   7.229 -0.2463 -1.3074  1.2761
   82CHL1   H2B 8523   5.999   4.436   7.100 -1.4179  0.9158  0.1896
   82CHL1   C20 8524   5.408   4.793   7.789  0.4378  0.7530  0.1255
   82CHL1   H20 8525   5.341   4.856   7.726  2.7495  1.7332 -1.3964
   82CHL1   C21 8526   5.538   4.879   7.805  0.4904 -0.2301 -0.4082
   82CHL1  H21A 8527   5.525   4.975   7.859  3.0859  0.3607 -0.7807
   82CHL1  H21B 8528   5.568   4.903   7.701  1.3656  0.8640  0.0907
   82CHL1  H21C 8529   5.607   4.813   7.863  0.3806 -2.5328 -2.7962
   82CHL1   C22 8530   5.331   4.772   7.924  0.3485 -0.7618  0.2488
   82CHL1  H22A 8531   5.240   4.715   7.898  0.4515 -1.2092  0.8627
   82CHL1  H22B 8532   5.399   4.722   7.997  0.4056  0.1030  0.8001
   82CHL1   C23 8533   5.282   4.900   7.997 -0.0098  0.3095  0.0906
   82CHL1  H23A 8534   5.355   4.983   8.005 -3.0619  3.2024 -0.5314
   82CHL1  H23B 8535   5.220   4.948   7.918  1.2635 -1.2508 -1.8956
   82CHL1   C24 8536   5.194   4.872   8.118  1.2100  0.7284 -0.2575
   82CHL1  H24A 8537   5.115   4.798   8.090  0.4173  0.3263  2.8574
   82CHL1  H24B 8538   5.254   4.809   8.186  0.3156 -1.6524 -1.5702
   82CHL1   C25 8539   5.141   4.993   8.190 -0.1282 -0.1118 -0.6535
   82CHL1   H25 8540   5.230   5.056   8.209  1.5868 -2.5367 -0.4830
   82CHL1   C26 8541   5.047   5.071   8.099  0.6617 -0.3645  0.2571
   82CHL1  H26A 8542   5.100   5.079   8.002  0.1799 -1.5925 -0.1199
   82CHL1  H26B 8543   4.958   5.009   8.075  1.7083 -1.8824  0.2452
   82CHL1  H26C 8544   5.014   5.168   8.140 -0.3482 -0.1102 -1.0941
   82CHL1   C27 8545   5.095   4.960   8.337 -0.3798 -0.1061  0.2568
   82CHL1  H27A 8546   5.007   4.892   8.346 -2.0075  2.1944  2.6762
   82CHL1  H27B 8547   5.178   4.901   8.381  0.2910  0.0601 -0.7866
   82CHL1  H27C 8548   5.080   5.056   8.391  0.3174 -0.1233  0.4862
   83CHL1    C3 8549   2.139   5.674   6.960 -0.3096  0.0173 -0.5400
   83CHL1    H3 8550   2.248   5.659   6.944 -0.3983 -0.3764 -0.7933
   83CHL1    O3 8551   2.079   5.708   6.839  0.2503  0.5020 -0.5355
   83CHL1   H3' 8552   2.098   5.632   6.784  0.5456 -0.5219  0.9373
   83CHL1    C4 8553   2.057   5.555   7.027  0.2644 -0.1959 -0.0922
   83CHL1   H4A 8554   1.953   5.594   7.038  0.7961  0.4575  3.2237
   83CHL1   H4B 8555   2.057   5.472   6.953 -0.4645  1.0539 -1.5136
   83CHL1    C5 8556   2.113   5.509   7.160  0.3676 -0.1146 -0.7065
   83CHL1    C6 8557   2.152   5.382   7.182  0.3649  0.3652  0.5893
   83CHL1    H6 8558   2.123   5.309   7.105  2.4347 -2.5960  2.4882
   83CHL1    C7 8559   2.200   5.326   7.316 -0.8798 -0.7645 -0.4886
   83CHL1   H7A 8560   2.149   5.234   7.349  0.2974 -1.3362 -0.2263
   83CHL1   H7B 8561   2.310   5.308   7.310 -0.8689 -0.8782  0.0231
   83CHL1    C8 8562   2.181   5.430   7.427  0.6745  0.5571 -0.8571
   83CHL1    H8 8563   2.072   5.417   7.446  1.3936 -0.9259  2.7124
   83CHL1   C14 8564   2.255   5.386   7.556 -0.3658 -0.8095 -0.1947
   83CHL1   H14 8565   2.362   5.407   7.532 -0.6365  0.1008 -0.6061
   83CHL1   C15 8566   2.238   5.241   7.603  0.0357 -0.1203  0.3086
   83CHL1  H15A 8567   2.133   5.206   7.617 -0.5022  1.0882 -0.5463
   83CHL1  H15B 8568   2.286   5.180   7.524 -1.7881 -0.8301 -0.2866
   83CHL1   C16 8569   2.310   5.241   7.738  0.3139  0.1392 -0.3603
   83CHL1  H16A 8570   2.252   5.173   7.806  1.3906 -1.5802 -1.1196
   83CHL1  H16B 8571   2.418   5.218   7.730  0.2940 -0.3123  0.5469
   83CHL1   C17 8572   2.296   5.389   7.794  0.2574  0.3468  0.1091
   83CHL1   H17 8573   2.401   5.424   7.805  0.2163  0.7296 -0.6630
   83CHL1   C13 8574   2.225   5.474   7.677 -0.3085  0.1861 -0.7773
   83CHL1   C18 8575   2.077   5.472   7.709  0.1924 -0.1189 -0.5209
   83CHL1  H18A 8576   2.037   5.549   7.778  3.4872  1.0104  0.1961
   83CHL1  H18B 8577   2.022   5.484   7.613  0.1088  0.1980 -0.4335
   83CHL1  H18C 8578   2.041   5.370   7.736  2.2473 -0.2502  1.8773
   83CHL1   C12 8579   2.275   5.614   7.641  0.3037 -0.0163  1.0312
   83CHL1  H12A 8580   2.247   5.685   7.721  1.6610  2.8182 -0.9262
   83CHL1  H12B 8581   2.384   5.624   7.620  0.0948 -1.5267 -0.9249
   83CHL1   C11 8582   2.197   5.673   7.511 -0.3275  0.3659 -0.0275
   83CHL1  H11A 8583   2.095   5.694   7.549 -0.5217  4.6910 -2.5845
   83CHL1  H11B 8584   2.243   5.770   7.481  0.7156 -0.2376 -0.4160
   83CHL1    C9 8585   2.204   5.575   7.391  0.2007 -0.2831 -0.1195
   83CHL1    H9 8586   2.312   5.584   7.363 -0.1735 -2.1886 -2.3644
   83CHL1   C10 8587   2.127   5.615   7.262 -0.0839  0.5973  0.2147
   83CHL1   C19 8588   1.980   5.657   7.308  0.7002  0.4680 -0.0488
   83CHL1  H19A 8589   1.982   5.758   7.354 -3.3668  0.4544  0.3747
   83CHL1  H19B 8590   1.900   5.672   7.233 -1.4789 -0.1052  2.0911
   83CHL1  H19C 8591   1.941   5.578   7.377  0.2747 -0.6662 -1.5654
   83CHL1    C1 8592   2.200   5.736   7.192 -0.2916 -0.1844 -1.0235
   83CHL1   H1A 8593   2.203   5.813   7.272  1.0524 -2.7608  1.4908
   83CHL1   H1B 8594   2.309   5.722   7.174 -0.2732 -1.9786  0.4108
   83CHL1    C2 8595   2.132   5.788   7.062  0.0495 -0.1011 -0.0570
   83CHL1   H2A 8596   2.189   5.878   7.032 -0.6194  0.6372  0.8656
   83CHL1   H2B 8597   2.026   5.809   7.084 -0.1393 -0.3749 -0.6800
   83CHL1   C20 8598   2.252   5.398   7.934 -0.2853 -0.3802 -0.2750
   83CHL1   H20 8599   2.144   5.374   7.942  0.2354 -2.4333  0.8698
   83CHL1   C21 8600   2.268   5.540   7.991 -0.2517 -0.5778 -0.2853
   83CHL1  H21A 8601   2.228   5.544   8.094  0.0315 -1.0138 -0.1582
   83CHL1  H21B 8602   2.217   5.612   7.923 -0.3112  0.8209  1.2200
   83CHL1  H21C 8603   2.376   5.565   7.983 -0.4576  0.0757 -1.1574
   83CHL1   C22 8604   2.335   5.294   8.027 -0.4331  0.2882  0.6651
   83CHL1  H22A 8605   2.317   5.195   7.979  1.0386  0.7920 -0.9709
   83CHL1  H22B 8606   2.442   5.320   8.040  0.5082 -2.1994 -1.7040
   83CHL1   C23 8607   2.272   5.282   8.166  0.5380  0.1280 -0.9266
   83CHL1  H23A 8608   2.289   5.373   8.228 -0.3730 -1.8441  2.3871
   83CHL1  H23B 8609   2.164   5.266   8.146  1.0713 -2.0106 -2.2008
   83CHL1   C24 8610   2.330   5.169   8.254  0.1491  0.1215 -0.3568
   83CHL1  H24A 8611   2.322   5.076   8.194 -0.3161 -0.0856  0.0288
   83CHL1  H24B 8612   2.436   5.189   8.280 -0.7181  2.8129  1.2993
   83CHL1   C25 8613   2.260   5.151   8.389  0.2688 -0.3549  0.3552
   83CHL1   H25 8614   2.151   5.139   8.376  0.5619 -3.4978  0.4686
   83CHL1   C26 8615   2.302   5.024   8.463  0.4115 -0.3785 -0.2017
   83CHL1  H26A 8616   2.413   5.029   8.475  0.1991  1.7568  1.1869
   83CHL1  H26B 8617   2.259   5.035   8.564  1.3061 -0.1331  0.1605
   83CHL1  H26C 8618   2.257   4.931   8.422 -0.3633  0.7940 -2.0885
   83CHL1   C27 8619   2.282   5.278   8.481  1.0034 -0.0586  0.3128
   83CHL1  H27A 8620   2.227   5.272   8.577  3.9595 -2.0903  1.9581
   83CHL1  H27B 8621   2.392   5.289   8.490  1.1323  0.9711 -2.0165
   83CHL1  H27C 8622   2.234   5.363   8.428 -2.3894 -2.0473  0.0635
   84CHL1    C3 8623   3.899   1.921   6.894  0.1957 -0.1827  0.4302
   84CHL1    H3 8624   3.821   1.998   6.909  1.6125  1.1463  1.1104
   84CHL1    O3 8625   3.927   1.924   6.756 -0.2979  0.4165  0.6431
   84CHL1   H3' 8626   3.847   1.896   6.709 -0.0131 -0.2495  0.5475
   84CHL1    C4 8627   4.024   1.948   6.973 -0.5094  0.3199 -0.1948
   84CHL1   H4A 8628   4.103   1.871   6.959 -0.8543  0.0603 -0.6971
   84CHL1   H4B 8629   4.062   2.047   6.940  0.4277  0.2992  0.7842
   84CHL1    C5 8630   3.988   1.935   7.124 -0.1552  0.3636  0.0462
   84CHL1    C6 8631   4.011   2.042   7.197 -0.3636  0.3395  0.2475
   84CHL1    H6 8632   4.059   2.129   7.148 -0.4039 -0.5491 -1.3845
   84CHL1    C7 8633   3.990   2.044   7.348 -0.6215 -0.0703  0.3558
   84CHL1   H7A 8634   4.087   2.081   7.388 -0.7986  0.9289 -0.1183
   84CHL1   H7B 8635   3.918   2.126   7.367  1.5628  1.5093  2.1024
   84CHL1    C8 8636   3.944   1.904   7.408 -0.7276  0.4064  0.3102
   84CHL1    H8 8637   4.033   1.838   7.420 -1.1215 -0.3767 -1.0216
   84CHL1   C14 8638   3.879   1.933   7.543 -0.0540  0.0241 -0.2042
   84CHL1   H14 8639   3.787   1.993   7.522  0.5362  1.4011  1.0449
   84CHL1   C15 8640   3.952   2.018   7.652  0.5222 -0.8183 -0.1938
   84CHL1  H15A 8641   4.059   1.995   7.665  0.3124 -0.7795  1.6610
   84CHL1  H15B 8642   3.939   2.126   7.631 -2.5788 -0.9341  0.8643
   84CHL1   C16 8643   3.877   1.981   7.786 -0.2247  0.3408  0.1059
   84CHL1  H16A 8644   3.947   1.953   7.868 -0.3138  0.0850  0.0936
   84CHL1  H16B 8645   3.830   2.075   7.824  0.9685  0.3833  1.5085
   84CHL1   C17 8646   3.772   1.867   7.752  0.1740  0.8760 -0.5104
   84CHL1   H17 8647   3.676   1.920   7.733  0.3333  1.4246  0.1771
   84CHL1   C13 8648   3.827   1.806   7.620  0.4184 -0.2752  0.1956
   84CHL1   C18 8649   3.941   1.709   7.649 -0.3335  0.1896 -0.1451
   84CHL1  H18A 8650   3.901   1.622   7.705  1.4616 -0.4047  0.2406
   84CHL1  H18B 8651   3.986   1.685   7.550 -0.5874  0.2056 -0.2662
   84CHL1  H18C 8652   4.020   1.754   7.713  1.0623 -2.7298  0.2985
   84CHL1   C12 8653   3.719   1.745   7.522 -0.3213 -0.2306 -0.1098
   84CHL1  H12A 8654   3.681   1.649   7.562  0.6084 -1.0160 -1.0634
   84CHL1  H12B 8655   3.629   1.808   7.528 -0.3677 -0.5423  3.8841
   84CHL1   C11 8656   3.778   1.723   7.380 -0.1588  0.4451 -0.4416
   84CHL1  H11A 8657   3.857   1.645   7.382 -0.4401  0.1318 -1.4173
   84CHL1  H11B 8658   3.696   1.686   7.315  0.0218  0.7202 -0.8239
   84CHL1    C9 8659   3.845   1.846   7.319  0.6719 -0.0359  0.6066
   84CHL1    H9 8660   3.769   1.925   7.301 -0.0484 -0.8572  0.0148
   84CHL1   C10 8661   3.907   1.815   7.174  0.4147  0.3098 -0.4104
   84CHL1   C19 8662   4.011   1.695   7.176 -0.1452 -0.6481 -0.6270
   84CHL1  H19A 8663   4.061   1.682   7.077 -0.5044  1.5955 -1.1257
   84CHL1  H19B 8664   4.084   1.716   7.257 -1.2799  0.5524  0.1080
   84CHL1  H19C 8665   3.968   1.599   7.212  2.7797 -1.4240  0.9687
   84CHL1    C1 8666   3.794   1.780   7.070  0.3319  0.4197  0.0230
   84CHL1   H1A 8667   3.745   1.686   7.103  2.1764 -0.6605 -0.2316
   84CHL1   H1B 8668   3.719   1.862   7.080  1.3833  1.4609 -0.5348
   84CHL1    C2 8669   3.841   1.775   6.926 -0.4528 -0.0160  0.9584
   84CHL1   H2A 8670   3.751   1.765   6.861  0.0942  0.0711  0.1839
   84CHL1   H2B 8671   3.914   1.697   6.896 -2.3694 -1.1984 -0.7519
   84CHL1   C20 8672   3.730   1.770   7.868 -0.5996  0.0433 -0.4189
   84CHL1   H20 8673   3.690   1.675   7.827  0.7881 -0.0886 -1.5191
   84CHL1   C21 8674   3.622   1.835   7.955 -0.3057  0.1480 -0.8141
   84CHL1  H21A 8675   3.596   1.758   8.031 -1.2578 -0.4547 -1.7347
   84CHL1  H21B 8676   3.531   1.858   7.895  0.1271 -1.4254 -2.0977
   84CHL1  H21C 8677   3.666   1.927   8.001 -1.0868 -0.0307  0.3097
   84CHL1   C22 8678   3.840   1.715   7.959 -0.6329  0.4000  1.0003
   84CHL1  H22A 8679   3.928   1.691   7.896 -1.7349 -4.2459  1.0519
   84CHL1  H22B 8680   3.859   1.784   8.044 -1.8600  0.8594  0.9227
   84CHL1   C23 8681   3.804   1.580   8.019 -0.3176 -0.2552 -0.1714
   84CHL1  H23A 8682   3.705   1.587   8.069  0.5371 -0.4860  1.5760
   84CHL1  H23B 8683   3.800   1.504   7.938  1.4882 -0.5175 -0.0503
   84CHL1   C24 8684   3.908   1.541   8.130  0.0322 -0.1573  0.2206
   84CHL1  H24A 8685   4.014   1.542   8.098  0.9779 -4.0657  2.7960
   84CHL1  H24B 8686   3.909   1.627   8.200  0.0013 -0.2069  0.2827
   84CHL1   C25 8687   3.879   1.407   8.206  0.0807 -0.1011 -0.0334
   84CHL1   H25 8688   3.950   1.406   8.292  0.5574  0.9406 -0.4070
   84CHL1   C26 8689   3.734   1.397   8.265 -0.8007 -0.2166  0.1238
   84CHL1  H26A 8690   3.729   1.295   8.307  2.1711 -0.0993  0.8516
   84CHL1  H26B 8691   3.712   1.474   8.343 -0.2778  0.6646 -0.5891
   84CHL1  H26C 8692   3.655   1.427   8.192  0.7516 -0.8876 -1.8622
   84CHL1   C27 8693   3.914   1.276   8.131  0.0496 -0.9528  0.1858
   84CHL1  H27A 8694   3.882   1.191   8.195 -1.8431 -1.2189 -1.0888
   84CHL1  H27B 8695   3.854   1.269   8.038 -2.5673  0.1611  1.7362
   84CHL1  H27C 8696   4.023   1.273   8.110  0.2380 -1.1028  1.1643
   85CHL1    C3 8697   3.619   5.553   6.812 -0.1295  0.3781 -0.0063
   85CHL1    H3 8698   3.529   5.616   6.797 -0.9468 -0.7756  0.0800
   85CHL1    O3 8699   3.653   5.497   6.683 -0.4817 -0.1099  0.1402
   85CHL1   H3' 8700   3.673   5.405   6.701  1.4385  0.3270  0.2791
   85CHL1    C4 8701   3.730   5.650   6.857  0.7147  0.1815 -0.3870
   85CHL1   H4A 8702   3.826   5.598   6.839  2.2168  2.9683 -0.6267
   85CHL1   H4B 8703   3.726   5.739   6.791  2.0077  0.1481 -0.5152
   85CHL1    C5 8704   3.721   5.708   6.997  0.0703  0.4885  0.7005
   85CHL1    C6 8705   3.711   5.840   7.022 -0.5054  0.2703 -0.0434
   85CHL1    H6 8706   3.700   5.910   6.939 -0.3796  1.3710  0.8615
   85CHL1    C7 8707   3.701   5.892   7.163  0.2733 -0.8183 -0.1311
   85CHL1   H7A 8708   3.766   5.980   7.180 -0.6931  0.1862 -1.4933
   85CHL1   H7B 8709   3.594   5.923   7.169  0.7899  0.8053  1.0188
   85CHL1    C8 8710   3.736   5.787   7.277 -0.4519  0.2436  0.5467
   85CHL1    H8 8711   3.845   5.766   7.283 -0.6988 -1.3519 -0.2519
   85CHL1   C14 8712   3.676   5.841   7.409 -0.2057 -0.3272  0.1188
   85CHL1   H14 8713   3.567   5.843   7.390 -0.1809 -0.5684 -0.0532
   85CHL1   C15 8714   3.719   5.983   7.447 -0.0566 -1.0358 -0.4015
   85CHL1  H15A 8715   3.830   5.993   7.445 -0.1458 -0.1900 -1.2684
   85CHL1  H15B 8716   3.679   6.062   7.380 -1.0969 -0.6579  0.6500
   85CHL1   C16 8717   3.676   5.994   7.595  0.2310  0.4440  0.5252
   85CHL1  H16A 8718   3.746   6.052   7.659 -2.1580  2.5207  1.3237
   85CHL1  H16B 8719   3.575   6.041   7.598  0.9045  1.8181  2.0085
   85CHL1   C17 8720   3.648   5.846   7.639 -0.0223  0.2615  0.2094
   85CHL1   H17 8721   3.537   5.838   7.639  0.0100 -0.2572 -1.1218
   85CHL1   C13 8722   3.694   5.747   7.522  0.5816  0.3497 -0.5049
   85CHL1   C18 8723   3.845   5.734   7.550 -0.3788 -0.1548  0.1205
   85CHL1  H18A 8724   3.905   5.705   7.461  1.8389  0.6082  1.3067
   85CHL1  H18B 8725   3.899   5.827   7.579 -1.2344  0.5085 -0.4064
   85CHL1  H18C 8726   3.859   5.653   7.625 -0.0021 -2.0049 -1.9093
   85CHL1   C12 8727   3.603   5.626   7.494  0.5054 -0.0333 -0.3981
   85CHL1  H12A 8728   3.619   5.543   7.565 -0.2178 -0.8653 -1.1932
   85CHL1  H12B 8729   3.495   5.648   7.484  1.0592  1.7375 -3.1323
   85CHL1   C11 8730   3.655   5.557   7.364  0.1483 -0.4153  0.5443
   85CHL1  H11A 8731   3.758   5.518   7.382  0.8263  0.4614 -1.2840
   85CHL1  H11B 8732   3.588   5.474   7.332  1.3003 -0.1911 -2.6203
   85CHL1    C9 8733   3.663   5.653   7.243  0.1057 -0.2305 -0.1306
   85CHL1    H9 8734   3.559   5.688   7.230 -0.0391  0.7086  3.0472
   85CHL1   C10 8735   3.702   5.595   7.107  0.2090 -0.1077  0.3167
   85CHL1   C19 8736   3.834   5.519   7.117 -0.0517  0.2685 -0.0127
   85CHL1  H19A 8737   3.865   5.471   7.022  2.1387  0.7051  0.4521
   85CHL1  H19B 8738   3.922   5.580   7.145  0.8120 -1.9395  2.3449
   85CHL1  H19C 8739   3.822   5.433   7.187 -0.5749  0.2511 -0.1252
   85CHL1    C1 8740   3.594   5.504   7.055  0.3740 -0.4968 -0.2653
   85CHL1   H1A 8741   3.592   5.412   7.118  2.3457 -0.7524 -0.5367
   85CHL1   H1B 8742   3.499   5.559   7.066  1.0110  0.5264  0.2073
   85CHL1    C2 8743   3.610   5.440   6.913 -0.1958 -0.2450 -0.6934
   85CHL1   H2A 8744   3.522   5.373   6.899 -2.0479  2.4073 -2.1634
   85CHL1   H2B 8745   3.701   5.377   6.902 -0.7730 -1.1750 -0.2299
   85CHL1   C20 8746   3.680   5.810   7.787 -0.4642  0.3953 -0.3742
   85CHL1   H20 8747   3.791   5.822   7.791 -0.2451 -1.8924  0.9141
   85CHL1   C21 8748   3.657   5.661   7.815 -0.3075  0.3380 -0.1549
   85CHL1  H21A 8749   3.698   5.639   7.916  1.2122  1.2071 -0.5744
   85CHL1  H21B 8750   3.700   5.598   7.734 -0.5840 -0.8330  0.5936
   85CHL1  H21C 8751   3.551   5.630   7.821 -0.3694  0.8726  1.6398
   85CHL1   C22 8752   3.613   5.906   7.886  0.4666 -0.0583 -0.0268
   85CHL1  H22A 8753   3.667   6.002   7.870 -0.5603  0.6306  0.5642
   85CHL1  H22B 8754   3.503   5.922   7.875  0.5199 -0.6674 -1.5481
   85CHL1   C23 8755   3.640   5.865   8.031  0.8749 -0.5402  0.0944
   85CHL1  H23A 8756   3.594   5.765   8.051 -2.2336  0.4952 -1.5242
   85CHL1  H23B 8757   3.751   5.867   8.035  1.1070 -1.2314 -3.6321
   85CHL1   C24 8758   3.574   5.953   8.138 -0.3988  0.5519  0.7576
   85CHL1  H24A 8759   3.606   6.058   8.123  0.0265  0.2104 -0.8288
   85CHL1  H24B 8760   3.465   5.950   8.118 -0.0520  1.4558 -1.2929
   85CHL1   C25 8761   3.600   5.901   8.281  0.1495 -0.2194 -0.1722
   85CHL1   H25 8762   3.595   5.791   8.297 -2.4119 -0.0490  0.5346
   85CHL1   C26 8763   3.736   5.954   8.319 -0.1749  0.1985 -1.2630
   85CHL1  H26A 8764   3.746   6.064   8.303 -1.7002  0.4874 -0.4019
   85CHL1  H26B 8765   3.768   5.921   8.421 -1.0761 -1.1571 -1.4041
   85CHL1  H26C 8766   3.816   5.909   8.257  0.7589  0.3357 -0.1702
   85CHL1   C27 8767   3.495   5.970   8.376 -0.3490 -0.0206  0.3433
   85CHL1  H27A 8768   3.533   5.969   8.480 -0.4456 -1.0599  0.3754
   85CHL1  H27B 8769   3.475   6.074   8.343 -2.4660 -1.1422 -2.1713
   85CHL1  H27C 8770   3.397   5.917   8.377 -0.2687 -0.2163 -1.0701
   86CHL1    C3 8771   5.728   3.354   6.930 -0.3994 -0.4496  0.0993
   86CHL1    H3 8772   5.783   3.450   6.928 -1.1745  0.0206  1.2108
   86CHL1    O3 8773   5.725   3.294   6.800  0.9105 -0.7626 -0.1851
   86CHL1   H3' 8774   5.694   3.204   6.817  0.7063 -0.5871  0.3890
   86CHL1    C4 8775   5.808   3.267   7.035 -0.3459 -0.2606  0.2709
   86CHL1   H4A 8776   5.755   3.169   7.039 -1.0175  0.0947  0.2760
   86CHL1   H4B 8777   5.916   3.257   7.012 -0.1983 -0.5058  1.0588
   86CHL1    C5 8778   5.798   3.331   7.171  0.1854 -0.2379  0.7292
   86CHL1    C6 8779   5.904   3.365   7.248  1.1085  0.1874 -0.2001
   86CHL1    H6 8780   6.004   3.340   7.208  0.4099 -3.4430  0.1060
   86CHL1    C7 8781   5.905   3.416   7.387 -0.0904 -0.0689 -0.4246
   86CHL1   H7A 8782   5.979   3.365   7.452 -2.9151 -3.1958  0.4832
   86CHL1   H7B 8783   5.920   3.526   7.383  0.8311 -0.1949 -0.3501
   86CHL1    C8 8784   5.762   3.388   7.447 -0.1514  0.8476 -0.5465
   86CHL1    H8 8785   5.752   3.281   7.474  3.5769  0.7323  0.7869
   86CHL1   C14 8786   5.762   3.461   7.584  0.3677 -0.2936 -0.3011
   86CHL1   H14 8787   5.793   3.565   7.561 -0.3533 -0.3775 -1.7195
   86CHL1   C15 8788   5.852   3.403   7.696 -0.4547 -0.1523  1.0547
   86CHL1  H15A 8789   5.833   3.294   7.685  0.0019 -0.4933  3.3622
   86CHL1  H15B 8790   5.959   3.424   7.677 -1.2296  2.5103 -0.5270
   86CHL1   C16 8791   5.798   3.469   7.821 -0.7710 -0.1127 -0.4096
   86CHL1  H16A 8792   5.797   3.397   7.906 -1.1570 -0.3531 -0.6142
   86CHL1  H16B 8793   5.858   3.557   7.849 -1.5487  0.6847 -1.2365
   86CHL1   C17 8794   5.656   3.522   7.790 -0.4220 -0.0594  0.8138
   86CHL1   H17 8795   5.667   3.632   7.772  0.3688  0.0738  1.9800
   86CHL1   C13 8796   5.627   3.463   7.654 -0.3614 -0.4732  0.6426
   86CHL1   C18 8797   5.570   3.313   7.679  0.2951  0.5590 -0.2052
   86CHL1  H18A 8798   5.604   3.264   7.773 -0.6358 -0.5250 -0.4135
   86CHL1  H18B 8799   5.463   3.336   7.697 -1.1651 -3.1996 -3.3443
   86CHL1  H18C 8800   5.562   3.239   7.597 -0.3956  0.8146 -0.3713
   86CHL1   C12 8801   5.532   3.539   7.555  0.1072  0.0840  0.1434
   86CHL1  H12A 8802   5.427   3.552   7.591 -0.2879  2.3951 -1.7000
   86CHL1  H12B 8803   5.576   3.639   7.536  2.2381 -1.2601 -2.3026
   86CHL1   C11 8804   5.520   3.466   7.422 -0.1470 -0.1031 -0.4357
   86CHL1  H11A 8805   5.478   3.364   7.435  0.5826 -0.6623 -2.2745
   86CHL1  H11B 8806   5.447   3.526   7.363 -0.9426  0.5853  1.2181
   86CHL1    C9 8807   5.657   3.441   7.355  0.3405 -0.1888  0.1919
   86CHL1    H9 8808   5.691   3.542   7.322 -0.0766  0.1762  0.8673
   86CHL1   C10 8809   5.653   3.359   7.214  0.5556  0.4126  0.4352
   86CHL1   C19 8810   5.581   3.226   7.245 -0.0710  0.9027  0.1114
   86CHL1  H19A 8811   5.475   3.255   7.258 -0.2527 -0.7962  2.7348
   86CHL1  H19B 8812   5.580   3.162   7.154  1.4440  2.6527 -1.1749
   86CHL1  H19C 8813   5.621   3.175   7.335 -1.7403 -1.4450 -0.4499
   86CHL1    C1 8814   5.576   3.440   7.107 -0.3174 -0.0236 -0.3267
   86CHL1   H1A 8815   5.472   3.450   7.145 -1.4992  0.8958 -3.6656
   86CHL1   H1B 8816   5.613   3.545   7.115  0.2928 -0.3621  1.7650
   86CHL1    C2 8817   5.580   3.376   6.968  0.4699 -0.1024 -0.4606
   86CHL1   H2A 8818   5.524   3.436   6.893 -0.1705  0.0597  0.1449
   86CHL1   H2B 8819   5.538   3.273   6.972  0.5336 -0.0878  1.1210
   86CHL1   C20 8820   5.555   3.511   7.902  0.0866 -0.0158 -1.0683
   86CHL1   H20 8821   5.527   3.406   7.925  2.3608 -0.4858 -0.3077
   86CHL1   C21 8822   5.425   3.586   7.868 -0.4542  0.7281 -0.6448
   86CHL1  H21A 8823   5.353   3.568   7.950 -2.0603 -1.2634 -2.4353
   86CHL1  H21B 8824   5.374   3.544   7.779  0.4599  1.0227 -1.3264
   86CHL1  H21C 8825   5.448   3.693   7.848  1.0268  0.5476  0.0136
   86CHL1   C22 8826   5.604   3.550   8.044  0.3478 -0.0920  0.3003
   86CHL1  H22A 8827   5.516   3.545   8.110  0.3045 -0.1002  0.2416
   86CHL1  H22B 8828   5.686   3.493   8.091 -0.3523 -0.3267  1.2325
   86CHL1   C23 8829   5.646   3.701   8.062 -0.0192 -0.2028 -0.2547
   86CHL1  H23A 8830   5.753   3.698   8.033 -0.3312 -3.6326 -1.2018
   86CHL1  H23B 8831   5.601   3.773   7.989 -1.7565  0.3608  1.3153
   86CHL1   C24 8832   5.627   3.757   8.202  0.6088 -0.2324  0.5008
   86CHL1  H24A 8833   5.525   3.721   8.227  0.6026 -1.7213 -1.4924
   86CHL1  H24B 8834   5.691   3.699   8.273  1.6233  0.5400  0.2333
   86CHL1   C25 8835   5.637   3.912   8.210  0.0644  0.1967  0.1268
   86CHL1   H25 8836   5.575   3.956   8.129  0.0902 -0.5538 -0.3067
   86CHL1   C26 8837   5.578   3.963   8.344  0.5512 -0.0678 -0.4958
   86CHL1  H26A 8838   5.645   3.940   8.430 -1.6180 -0.2027  1.1981
   86CHL1  H26B 8839   5.564   4.073   8.354  0.1364 -0.1245 -0.4845
   86CHL1  H26C 8840   5.483   3.913   8.370  0.0012  0.7512 -0.9218
   86CHL1   C27 8841   5.780   3.959   8.192 -0.1753  0.6681 -0.1112
   86CHL1  H27A 8842   5.824   3.920   8.097  0.4073 -1.4088  0.9948
   86CHL1  H27B 8843   5.792   4.069   8.201  3.1292  0.1188  3.1961
   86CHL1  H27C 8844   5.846   3.912   8.268  2.4734 -1.4573 -3.5564
   87CHL1    C3 8845   6.082   1.372   6.952 -0.3902  0.7230  0.4632
   87CHL1    H3 8846   6.192   1.358   6.954 -0.4236  0.6994  3.7524
   87CHL1    O3 8847   6.046   1.282   6.844  0.1105 -0.4267  0.3067
   87CHL1   H3' 8848   6.111   1.300   6.775 -0.8022  0.8513 -0.2442
   87CHL1    C4 8849   6.020   1.326   7.077 -0.1656  0.1836 -0.3943
   87CHL1   H4A 8850   5.913   1.351   7.060 -0.8133 -1.6526  0.8329
   87CHL1   H4B 8851   6.040   1.219   7.099 -0.1156  0.4533  0.9333
   87CHL1    C5 8852   6.057   1.406   7.203  0.0830  0.1677  0.1614
   87CHL1    C6 8853   6.103   1.356   7.320 -0.3812 -0.1357 -0.8822
   87CHL1    H6 8854   6.111   1.249   7.344 -0.0507 -0.1505 -1.0572
   87CHL1    C7 8855   6.111   1.447   7.442 -0.1236  0.6182  0.6223
   87CHL1   H7A 8856   6.051   1.405   7.525  1.8478 -2.4752  0.5371
   87CHL1   H7B 8857   6.217   1.446   7.474  0.1130 -2.0818 -0.1305
   87CHL1    C8 8858   6.058   1.591   7.421  0.4058  0.0556  0.2317
   87CHL1    H8 8859   5.948   1.596   7.431  0.4320  1.3992  0.0400
   87CHL1   C14 8860   6.124   1.676   7.527 -0.4790 -0.0224  0.1725
   87CHL1   H14 8861   6.230   1.683   7.494  0.0593  1.9114  2.2539
   87CHL1   C15 8862   6.137   1.627   7.666 -0.1830 -0.2568 -0.2337
   87CHL1  H15A 8863   6.037   1.600   7.705  1.3742  0.9985  4.9770
   87CHL1  H15B 8864   6.210   1.550   7.699  0.0018 -0.0011 -0.0477
   87CHL1   C16 8865   6.166   1.754   7.744 -0.6899 -0.3490 -0.5206
   87CHL1  H16A 8866   6.084   1.762   7.818  0.7765  3.0024  0.8458
   87CHL1  H16B 8867   6.257   1.750   7.806 -0.1070 -1.6332 -1.4413
   87CHL1   C17 8868   6.175   1.880   7.648 -0.1595  0.1393  0.0671
   87CHL1   H17 8869   6.280   1.884   7.611 -0.7802  0.8263 -1.6777
   87CHL1   C13 8870   6.098   1.826   7.528 -0.7808  0.2091  0.0496
   87CHL1   C18 8871   5.950   1.853   7.552  0.4913 -0.0277  0.0639
   87CHL1  H18A 8872   5.891   1.807   7.470 -1.2099  1.7220  0.2891
   87CHL1  H18B 8873   5.923   1.823   7.655  2.3551 -1.7104  0.1031
   87CHL1  H18C 8874   5.931   1.962   7.538 -1.9569 -0.1491  2.2032
   87CHL1   C12 8875   6.151   1.871   7.391 -0.4829 -0.3809  0.5892
   87CHL1  H12A 8876   6.140   1.980   7.373 -2.2612 -1.0009 -2.4763
   87CHL1  H12B 8877   6.262   1.869   7.394 -0.3847  0.0005 -1.5931
   87CHL1   C11 8878   6.093   1.791   7.270 -0.5081 -0.9952 -0.6193
   87CHL1  H11A 8879   5.988   1.822   7.253 -0.7650 -1.1800  0.5287
   87CHL1  H11B 8880   6.159   1.831   7.190 -0.3185 -3.7553 -1.9066
   87CHL1    C9 8881   6.103   1.640   7.279 -0.3939  0.3301  0.1895
   87CHL1    H9 8882   6.211   1.615   7.275 -0.2078  1.2102 -0.6742
   87CHL1   C10 8883   6.033   1.560   7.173  0.6031  0.0821  0.5145
   87CHL1   C19 8884   5.883   1.595   7.183 -0.4891 -0.1221  0.5605
   87CHL1  H19A 8885   5.870   1.704   7.170  1.1290  0.2764  2.1749
   87CHL1  H19B 8886   5.823   1.553   7.099  0.7755  0.2306 -0.5334
   87CHL1  H19C 8887   5.847   1.546   7.276  0.7694 -2.5560 -0.2025
   87CHL1    C1 8888   6.086   1.596   7.033 -0.3378  0.3276  0.7659
   87CHL1   H1A 8889   6.057   1.701   7.010  4.1346  1.4500 -0.2268
   87CHL1   H1B 8890   6.196   1.595   7.044 -0.5475  0.0472  2.9203
   87CHL1    C2 8891   6.049   1.515   6.911 -0.2032 -0.4189 -0.1533
   87CHL1   H2A 8892   6.126   1.528   6.833 -1.5118 -2.4976 -1.8487
   87CHL1   H2B 8893   5.948   1.540   6.874 -0.0062  0.0754 -0.3580
   87CHL1   C20 8894   6.140   2.014   7.721 -0.7079 -1.1664  0.7739
   87CHL1   H20 8895   6.033   2.018   7.751 -0.8174 -0.0503  0.2475
   87CHL1   C21 8896   6.160   2.137   7.629  0.2559  0.1723 -0.2348
   87CHL1  H21A 8897   6.081   2.144   7.550 -0.7784 -1.8201  0.5848
   87CHL1  H21B 8898   6.261   2.140   7.584  0.0958  2.1562 -0.4934
   87CHL1  H21C 8899   6.138   2.223   7.696  0.3100 -0.7740  1.0135
   87CHL1   C22 8900   6.220   2.045   7.851  0.2451 -0.3556 -0.5813
   87CHL1  H22A 8901   6.218   1.950   7.909  1.3566  0.1533  0.3311
   87CHL1  H22B 8902   6.323   2.075   7.823 -0.8808  1.6135 -2.7470
   87CHL1   C23 8903   6.153   2.139   7.954  0.1384  0.5343  0.4000
   87CHL1  H23A 8904   6.133   2.242   7.915  0.1748  0.6551  0.7028
   87CHL1  H23B 8905   6.058   2.089   7.980  0.6134 -0.6470 -0.1062
   87CHL1   C24 8906   6.225   2.136   8.090  0.2418  0.6766  0.3905
   87CHL1  H24A 8907   6.247   2.033   8.125 -0.7457  0.2588 -0.2026
   87CHL1  H24B 8908   6.320   2.188   8.063  0.8937 -0.5994  0.1942
   87CHL1   C25 8909   6.141   2.203   8.207  0.1986  0.1218  0.5712
   87CHL1   H25 8910   6.056   2.132   8.220 -0.7192  0.7893 -1.5854
   87CHL1   C26 8911   6.220   2.183   8.341  0.7181  0.9424  0.2551
   87CHL1  H26A 8912   6.267   2.083   8.350 -0.0147  0.7577  2.3521
   87CHL1  H26B 8913   6.307   2.251   8.345  1.4576  0.1899 -2.1655
   87CHL1  H26C 8914   6.157   2.193   8.432  2.0706 -0.3017  1.3421
   87CHL1   C27 8915   6.097   2.351   8.182  0.0386  0.5751  0.0103
   87CHL1  H27A 8916   6.180   2.424   8.193  0.4529  0.3647 -1.5078
   87CHL1  H27B 8917   6.040   2.359   8.087  1.7554 -1.4461 -1.2429
   87CHL1  H27C 8918   6.021   2.372   8.260 -0.3061 -0.4606 -0.0339
   88CHL1    C3 8919   3.490   0.050   7.016 -0.1438 -0.0929  1.0928
   88CHL1    H3 8920   3.594   0.071   6.984 -0.3407 -1.5978 -0.6448
   88CHL1    O3 8921   3.405   0.042   6.903  0.5041 -0.4412 -0.4058
   88CHL1   H3' 8922   3.328  -0.009   6.929  0.9467 -1.4412 -0.9842
   88CHL1    C4 8923   3.479  -0.080   7.106  0.3089 -0.6874  0.3282
   88CHL1   H4A 8924   3.371  -0.101   7.125 -0.2807  1.3455 -0.5855
   88CHL1   H4B 8925   3.514  -0.162   7.040  0.5429  0.7787 -1.4270
   88CHL1    C5 8926   3.552  -0.066   7.241  0.6893 -0.0567  0.4465
   88CHL1    C6 8927   3.650  -0.152   7.280 -0.0762 -0.1240  0.3577
   88CHL1    H6 8928   3.687  -0.229   7.212 -3.2301 -1.5383  0.1770
   88CHL1    C7 8929   3.716  -0.145   7.419 -0.4904 -1.1501 -0.1891
   88CHL1   H7A 8930   3.732  -0.246   7.461  0.6710 -1.0194 -0.2959
   88CHL1   H7B 8931   3.818  -0.101   7.416 -0.6589 -0.7335  0.1109
   88CHL1    C8 8932   3.638  -0.059   7.523  0.4195 -0.3952  0.3773
   88CHL1    H8 8933   3.544  -0.109   7.556 -0.7628  0.4872 -1.5800
   88CHL1   C14 8934   3.725  -0.013   7.643  0.4313 -0.6415 -0.0441
   88CHL1   H14 8935   3.806   0.047   7.597 -0.6070  1.5501  0.9398
   88CHL1   C15 8936   3.805  -0.121   7.722 -0.2235 -0.1582 -0.2429
   88CHL1  H15A 8937   3.747  -0.210   7.754  1.2471 -0.2177  2.4806
   88CHL1  H15B 8938   3.880  -0.158   7.649 -1.6348 -0.3995 -1.5767
   88CHL1   C16 8939   3.862  -0.040   7.840  0.6428 -0.5866 -1.2359
   88CHL1  H16A 8940   3.834  -0.095   7.932 -2.1841 -0.9336 -2.2674
   88CHL1  H16B 8941   3.972  -0.020   7.835  0.2510  1.7590 -1.2672
   88CHL1   C17 8942   3.788   0.095   7.851 -0.1138 -0.1987 -0.2401
   88CHL1   H17 8943   3.842   0.177   7.800 -3.0209  1.0650 -1.4258
   88CHL1   C13 8944   3.670   0.076   7.750  0.9154 -0.5263  0.1003
   88CHL1   C18 8945   3.557   0.004   7.824  0.4880  0.0830 -0.0059
   88CHL1  H18A 8946   3.494   0.070   7.887 -1.1694 -1.9260  0.4873
   88CHL1  H18B 8947   3.485  -0.020   7.742 -1.6689  1.4029  1.4631
   88CHL1  H18C 8948   3.605  -0.085   7.870  1.4831 -1.1476 -3.2630
   88CHL1   C12 8949   3.627   0.212   7.679 -0.2962  0.9349  0.5332
   88CHL1  H12A 8950   3.575   0.285   7.744  0.1625  1.0188  0.8063
   88CHL1  H12B 8951   3.718   0.262   7.639  0.4673 -0.9602 -0.1780
   88CHL1   C11 8952   3.533   0.185   7.555 -0.2167 -0.4555 -0.0832
   88CHL1  H11A 8953   3.431   0.160   7.590 -0.9286 -1.9943 -3.1014
   88CHL1  H11B 8954   3.528   0.277   7.492  0.4977 -1.9058 -2.2920
   88CHL1    C9 8955   3.590   0.074   7.453 -0.3479  0.1773 -0.5237
   88CHL1    H9 8956   3.679   0.119   7.404 -0.4210  0.5322 -0.3341
   88CHL1   C10 8957   3.504   0.054   7.330  0.1869  0.1884  0.2690
   88CHL1   C19 8958   3.356   0.006   7.375  0.1639  1.0724  0.0617
   88CHL1  H19A 8959   3.363  -0.083   7.441  1.7829  0.1268 -1.3509
   88CHL1  H19B 8960   3.310   0.085   7.438 -2.3744 -0.3372  0.0436
   88CHL1  H19C 8961   3.278  -0.021   7.301  0.2755 -1.9534  0.9452
   88CHL1    C1 8962   3.504   0.188   7.243  0.0582 -0.3027  0.5472
   88CHL1   H1A 8963   3.451   0.271   7.295  0.0535  1.2890 -1.9156
   88CHL1   H1B 8964   3.609   0.217   7.225 -0.6358  1.8296 -0.1860
   88CHL1    C2 8965   3.439   0.166   7.107  0.2532 -0.3133 -0.1367
   88CHL1   H2A 8966   3.439   0.256   7.043 -0.4679  1.9347  2.9422
   88CHL1   H2B 8967   3.331   0.150   7.129 -0.3632  0.7051 -2.3282
   88CHL1   C20 8968   3.755   0.144   7.994 -0.0090 -0.8843  0.0847
   88CHL1   H20 8969   3.707   0.062   8.053 -0.7524 -1.5574 -1.4462
   88CHL1   C21 8970   3.670   0.279   8.003 -0.3461 -0.2082 -1.0859
   88CHL1  H21A 8971   3.725   0.365   7.959 -1.2608  0.9364 -0.0553
   88CHL1  H21B 8972   3.645   0.316   8.105 -2.1005 -0.5666 -1.3579
   88CHL1  H21C 8973   3.567   0.279   7.961 -0.1734  0.8830 -1.5371
   88CHL1   C22 8974   3.882   0.183   8.080 -0.0836  0.0126  0.2460
   88CHL1  H22A 8975   3.939   0.266   8.032  0.4977 -0.8563 -0.5860
   88CHL1  H22B 8976   3.839   0.232   8.169  0.7203 -1.4562  1.4520
   88CHL1   C23 8977   3.983   0.073   8.122 -0.0120 -1.4079 -1.0318
   88CHL1  H23A 8978   3.931  -0.015   8.165 -1.3819  0.2466  0.7623
   88CHL1  H23B 8979   4.039   0.026   8.038  0.9829  0.5908 -1.5289
   88CHL1   C24 8980   4.083   0.136   8.221  0.5645 -0.0093 -0.5990
   88CHL1  H24A 8981   4.173   0.156   8.159  0.1159 -1.4630 -1.7445
   88CHL1  H24B 8982   4.037   0.222   8.275 -0.8575 -0.6540 -0.7485
   88CHL1   C25 8983   4.128   0.045   8.339  0.2605  0.1746  0.6445
   88CHL1   H25 8984   4.153  -0.054   8.294 -1.1343  0.2309 -0.2730
   88CHL1   C26 8985   4.252   0.100   8.403  0.2375  0.0163 -0.8141
   88CHL1  H26A 8986   4.278   0.044   8.495  2.0194 -0.4557 -1.5796
   88CHL1  H26B 8987   4.340   0.110   8.336  1.6172 -0.9241  0.8335
   88CHL1  H26C 8988   4.234   0.205   8.433  2.3072 -0.2552  1.5820
   88CHL1   C27 8989   4.015   0.018   8.437 -0.1205  0.4464 -0.0656
   88CHL1  H27A 8990   4.042  -0.057   8.514  0.4098  0.7950  0.0932
   88CHL1  H27B 8991   3.984   0.112   8.488 -0.2848  1.2633 -1.6577
   88CHL1  H27C 8992   3.925  -0.025   8.390 -0.8459  0.9871  0.7924
   89CHL1    C3 8993   0.226   2.748   7.055 -0.3942  0.1807 -0.1387
   89CHL1    H3 8994   0.225   2.857   7.033  1.5289  0.1655 -0.3620
   89CHL1    O3 8995   0.288   2.687   6.939 -0.3515  0.2467 -0.9912
   89CHL1   H3' 8996   0.217   2.634   6.904 -1.2909  1.0284 -0.2851
   89CHL1    C4 8997   0.315   2.708   7.183 -0.2519  0.2833  0.0180
   89CHL1   H4A 8998   0.303   2.597   7.186 -2.0405  0.4575  0.3190
   89CHL1   H4B 8999   0.424   2.722   7.171  0.2968 -0.8731  3.2339
   89CHL1    C5 9000   0.250   2.781   7.310 -0.4724  0.2275  0.0957
   89CHL1    C6 9001   0.332   2.864   7.383  0.1176  0.3994 -1.0390
   89CHL1    H6 9002   0.438   2.881   7.362  0.3799  0.5238  0.3525
   89CHL1    C7 9003   0.276   2.937   7.508 -0.3245 -0.4251  0.6602
   89CHL1   H7A 9004   0.349   2.932   7.591 -0.5465  3.1235  1.1419
   89CHL1   H7B 9005   0.247   3.044   7.494  0.6030  0.1875  3.1938
   89CHL1    C8 9006   0.138   2.872   7.556 -0.2689  0.4615 -0.3270
   89CHL1    H8 9007   0.166   2.774   7.600 -2.3230 -0.7721 -1.6687
   89CHL1   C14 9008   0.071   2.966   7.656  0.4737 -0.4539  0.1543
   89CHL1   H14 9009   0.051   3.059   7.598  0.4277 -0.2458  0.4987
   89CHL1   C15 9010   0.133   3.017   7.786 -0.1784  0.1644 -0.2808
   89CHL1  H15A 9011   0.183   2.936   7.843  0.7188  0.6120 -0.4218
   89CHL1  H15B 9012   0.210   3.095   7.766 -2.8166  2.4867 -1.5992
   89CHL1   C16 9013   0.017   3.081   7.864  0.0035 -0.2610  0.2117
   89CHL1  H16A 9014   0.016   3.031   7.963  2.9022  1.7423  1.3342
   89CHL1  H16B 9015   0.025   3.191   7.879  1.6027 -0.1350 -1.3983
   89CHL1   C17 9016  -0.111   3.045   7.786  0.6264  1.1916 -0.2537
   89CHL1   H17 9017  -0.128   3.128   7.713 -0.1928  2.1658  1.0202
   89CHL1   C13 9018  -0.070   2.923   7.702  0.0185 -0.1657  0.4471
   89CHL1   C18 9019  -0.061   2.795   7.783 -0.9859 -0.1029  0.5888
   89CHL1  H18A 9020  -0.010   2.819   7.879  0.8939  0.9589 -0.6540
   89CHL1  H18B 9021  -0.162   2.750   7.796 -1.4227  0.1393 -1.7603
   89CHL1  H18C 9022   0.002   2.725   7.725 -0.3747 -0.1542  1.3115
   89CHL1   C12 9023  -0.158   2.893   7.579 -0.2341 -0.0597  0.0745
   89CHL1  H12A 9024  -0.260   2.851   7.594 -1.0987  0.8927 -2.9217
   89CHL1  H12B 9025  -0.177   2.988   7.525  0.5154 -0.3540 -0.7007
   89CHL1   C11 9026  -0.093   2.793   7.480  1.5388  0.2377  0.0366
   89CHL1  H11A 9027  -0.089   2.692   7.526  0.6619  1.4129  2.7912
   89CHL1  H11B 9028  -0.168   2.803   7.399  2.0336  1.6138 -0.2568
   89CHL1    C9 9029   0.044   2.838   7.435 -0.3541  0.0882  0.3911
   89CHL1    H9 9030   0.016   2.931   7.382  1.5266 -0.1734 -1.1121
   89CHL1   C10 9031   0.097   2.747   7.327  0.7878  0.1795  0.2156
   89CHL1   C19 9032   0.094   2.602   7.373 -0.4432  0.8959  0.7087
   89CHL1  H19A 9033   0.153   2.536   7.305 -2.1576 -0.7728  0.8047
   89CHL1  H19B 9034   0.142   2.599   7.473 -0.7154 -0.8006  0.8158
   89CHL1  H19C 9035  -0.002   2.547   7.368  0.6449 -1.1299  1.2731
   89CHL1    C1 9036   0.016   2.760   7.190  0.5136 -0.8323 -0.1648
   89CHL1   H1A 9037  -0.088   2.724   7.204  0.0095  1.5838  2.6263
   89CHL1   H1B 9038  -0.002   2.867   7.169  0.7551 -1.0260 -1.4678
   89CHL1    C2 9039   0.083   2.692   7.071  0.0532 -0.2659  0.0794
   89CHL1   H2A 9040   0.020   2.722   6.984 -0.2482  0.5203  0.5709
   89CHL1   H2B 9041   0.074   2.584   7.093  0.2594 -0.0735  1.1113
   89CHL1   C20 9042  -0.241   3.035   7.869  0.0057 -0.2006  0.2128
   89CHL1   H20 9043  -0.306   2.959   7.820 -2.6037  0.4163  2.5984
   89CHL1   C21 9044  -0.297   3.177   7.870  0.3530  0.2182 -0.7052
   89CHL1  H21A 9045  -0.226   3.245   7.922 -0.8597  0.5066  0.5942
   89CHL1  H21B 9046  -0.399   3.180   7.914  0.1305 -0.7570 -1.1517
   89CHL1  H21C 9047  -0.311   3.198   7.762 -0.9736 -0.0740 -0.6010
   89CHL1   C22 9048  -0.227   2.996   8.014 -0.3551  0.0991 -0.2589
   89CHL1  H22A 9049  -0.164   2.905   8.019 -1.6751 -0.8280 -0.5032
   89CHL1  H22B 9050  -0.158   3.069   8.063  1.0838 -0.1400 -1.8745
   89CHL1   C23 9051  -0.361   2.982   8.092 -0.0149 -0.4915  0.4629
   89CHL1  H23A 9052  -0.411   3.077   8.120 -2.2890 -1.2390 -0.8788
   89CHL1  H23B 9053  -0.431   2.922   8.030  0.5535 -3.0301  2.2072
   89CHL1   C24 9054  -0.333   2.913   8.222  0.1306  0.0171  0.2980
   89CHL1  H24A 9055  -0.239   2.953   8.266 -0.0145 -0.0732  0.6971
   89CHL1  H24B 9056  -0.421   2.928   8.288 -0.8230 -2.0347 -0.4538
   89CHL1   C25 9057  -0.319   2.765   8.214 -0.1950 -0.0633 -0.3445
   89CHL1   H25 9058  -0.250   2.736   8.132  0.7455 -2.2655  1.1651
   89CHL1   C26 9059  -0.262   2.708   8.340  0.0726 -0.4181 -0.3700
   89CHL1  H26A 9060  -0.341   2.693   8.416 -1.3776 -0.4996 -1.8586
   89CHL1  H26B 9061  -0.218   2.607   8.326 -1.3505 -1.0342 -0.4465
   89CHL1  H26C 9062  -0.175   2.768   8.377 -1.3430  1.8653 -0.6391
   89CHL1   C27 9063  -0.455   2.693   8.188 -0.0355 -0.5071  0.3932
   89CHL1  H27A 9064  -0.525   2.684   8.273 -0.4350 -0.2192  0.0903
   89CHL1  H27B 9065  -0.505   2.748   8.105  0.8000 -1.1969 -0.5945
   89CHL1  H27C 9066  -0.441   2.585   8.166 -2.2988 -1.3238  2.7430
   90CHL1    C3 9067   0.112   4.940   6.959  0.2149 -0.4688  0.7639
   90CHL1    H3 9068   0.125   4.832   6.978 -0.2757 -0.6927 -0.1507
   90CHL1    O3 9069   0.111   4.967   6.822  0.0278  1.3055  0.4735
   90CHL1   H3' 9070   0.141   5.058   6.820 -1.7215  1.9359  1.8094
   90CHL1    C4 9071  -0.022   4.980   7.019  0.2556 -0.1938 -0.4108
   90CHL1   H4A 9072  -0.025   5.088   6.991 -0.2709 -1.0443 -3.8932
   90CHL1   H4B 9073  -0.108   4.945   6.958  0.2754  0.1858 -0.6631
   90CHL1    C5 9074  -0.023   4.956   7.169 -0.2994  0.4506 -0.2532
   90CHL1    C6 9075  -0.124   4.886   7.228 -0.4314  0.1100  0.0531
   90CHL1    H6 9076  -0.198   4.837   7.162  2.4033 -3.5669 -0.5578
   90CHL1    C7 9077  -0.124   4.852   7.375  0.0900  0.5250 -0.0891
   90CHL1   H7A 9078  -0.224   4.857   7.424  0.4056 -0.9023  0.7453
   90CHL1   H7B 9079  -0.103   4.743   7.387  1.5950  0.6491 -1.4470
   90CHL1    C8 9080  -0.026   4.936   7.455  0.1023 -0.3757  0.2464
   90CHL1    H8 9081  -0.070   5.037   7.468  1.7898  0.7773 -2.4839
   90CHL1   C14 9082  -0.009   4.872   7.591  0.5400 -0.2097 -0.2335
   90CHL1   H14 9083   0.029   4.769   7.574  2.9795  0.5778  0.2758
   90CHL1   C15 9084  -0.140   4.848   7.681 -0.3139 -0.1160 -0.1097
   90CHL1  H15A 9085  -0.216   4.927   7.662  0.4174  0.2142 -1.7975
   90CHL1  H15B 9086  -0.177   4.747   7.651 -0.6762 -0.1740  0.5392
   90CHL1   C16 9087  -0.086   4.841   7.824  0.4772  0.8843 -0.7486
   90CHL1  H16A 9088  -0.127   4.930   7.876 -2.6584 -0.5278 -0.7155
   90CHL1  H16B 9089  -0.116   4.749   7.878  0.2753  1.3982  0.0181
   90CHL1   C17 9090   0.068   4.867   7.813  0.0885  0.6856  0.2769
   90CHL1   H17 9091   0.118   4.769   7.794  2.2912  1.5040  1.7217
   90CHL1   C13 9092   0.093   4.945   7.680  0.3557 -0.7120  0.3901
   90CHL1   C18 9093   0.051   5.098   7.694  0.0512  0.0160  0.3059
   90CHL1  H18A 9094  -0.040   5.107   7.758  0.5755  1.6231  0.8560
   90CHL1  H18B 9095   0.132   5.146   7.753  0.1312 -1.1755  1.1930
   90CHL1  H18C 9096   0.026   5.136   7.592  0.0184  0.7284  0.5747
   90CHL1   C12 9097   0.231   4.936   7.620 -0.1603 -0.1141  0.0698
   90CHL1  H12A 9098   0.305   4.995   7.677  1.1732 -1.9426  0.2604
   90CHL1  H12B 9099   0.251   4.827   7.619 -1.8368 -0.4770 -3.2534
   90CHL1   C11 9100   0.226   4.995   7.478 -1.1593  0.3340 -0.3413
   90CHL1  H11A 9101   0.213   5.105   7.486  1.3648  0.6088  0.2208
   90CHL1  H11B 9102   0.322   4.964   7.430 -1.3383  0.3707 -0.7260
   90CHL1    C9 9103   0.110   4.936   7.391 -0.0469  0.2731  0.2516
   90CHL1    H9 9104   0.137   4.829   7.384 -0.1303  0.0857  2.3304
   90CHL1   C10 9105   0.102   5.005   7.249  0.4181  0.2057  0.1978
   90CHL1   C19 9106   0.070   5.153   7.254  0.1277 -0.4107 -0.7664
   90CHL1  H19A 9107  -0.024   5.172   7.310  0.3438  1.9337 -1.1605
   90CHL1  H19B 9108   0.142   5.205   7.320  0.8672 -3.0672  0.6098
   90CHL1  H19C 9109   0.061   5.202   7.155 -0.3040 -0.5379 -0.7937
   90CHL1    C1 9110   0.241   4.990   7.171 -0.3240 -0.2708  0.2910
   90CHL1   H1A 9111   0.322   5.046   7.223 -0.9936  2.3021 -1.3508
   90CHL1   H1B 9112   0.275   4.884   7.174 -0.3899 -0.2494  2.4412
   90CHL1    C2 9113   0.227   5.023   7.019 -0.0471  0.2651  1.1669
   90CHL1   H2A 9114   0.328   5.012   6.974 -1.7222 -1.3381 -2.4186
   90CHL1   H2B 9115   0.205   5.132   7.014 -0.8229  0.0346 -0.9048
   90CHL1   C20 9116   0.125   4.926   7.941 -0.8475 -0.0213  0.2812
   90CHL1   H20 9117   0.110   5.036   7.934 -1.6594 -0.2044 -0.9706
   90CHL1   C21 9118   0.276   4.888   7.946 -0.2575 -0.3295 -0.1482
   90CHL1  H21A 9119   0.327   4.937   8.031  0.7968 -2.6715  0.6222
   90CHL1  H21B 9120   0.332   4.898   7.851 -0.0862 -2.2381 -0.2765
   90CHL1  H21C 9121   0.286   4.780   7.969  1.0479 -0.0517  0.5860
   90CHL1   C22 9122   0.056   4.873   8.080  0.4734 -0.6560 -0.0446
   90CHL1  H22A 9123  -0.054   4.878   8.083  0.4990 -0.5533  1.0143
   90CHL1  H22B 9124   0.076   4.763   8.085  2.4229 -0.2453  3.0287
   90CHL1   C23 9125   0.102   4.946   8.204  0.2407  0.2181 -0.3241
   90CHL1  H23A 9126   0.208   4.972   8.186  1.4207 -3.2535  1.2502
   90CHL1  H23B 9127   0.044   5.038   8.226 -1.6274 -1.1689  0.7585
   90CHL1   C24 9128   0.091   4.848   8.325 -0.2079  0.1720  0.5526
   90CHL1  H24A 9129  -0.005   4.795   8.341 -0.9829  1.6388  0.8027
   90CHL1  H24B 9130   0.173   4.774   8.314 -0.5175 -0.0056 -0.6172
   90CHL1   C25 9131   0.127   4.906   8.466  0.6663 -0.5424  0.8956
   90CHL1   H25 9132   0.222   4.960   8.452  1.4748 -2.0032  0.6299
   90CHL1   C26 9133   0.011   4.991   8.531 -0.2772  0.2136 -0.5366
   90CHL1  H26A 9134  -0.077   4.924   8.549  0.6494 -0.5880  1.1146
   90CHL1  H26B 9135   0.034   5.025   8.634  0.8639 -0.1092 -0.6869
   90CHL1  H26C 9136  -0.017   5.084   8.478  4.8309  1.8700 -0.5148
   90CHL1   C27 9137   0.161   4.792   8.572  0.5109  0.2196 -0.9581
   90CHL1  H27A 9138   0.259   4.747   8.545  0.5885 -0.1724 -0.0505
   90CHL1  H27B 9139   0.165   4.832   8.675 -0.3352 -2.2444  0.0769
   90CHL1  H27C 9140   0.083   4.714   8.567  2.0133 -1.4159  0.3548
   91CHL1    C3 9141   1.324   6.339   7.357 -0.5088 -0.2604 -0.1118
   91CHL1    H3 9142   1.333   6.435   7.412 -0.8163  0.0649 -0.6161
   91CHL1    O3 9143   1.331   6.379   7.218  0.8907 -0.6592 -0.1347
   91CHL1   H3' 9144   1.240   6.384   7.189 -0.5183 -3.7322  3.4687
   91CHL1    C4 9145   1.451   6.256   7.387 -0.2678  0.5101 -0.0474
   91CHL1   H4A 9146   1.449   6.157   7.337  3.6361  1.3748 -2.0989
   91CHL1   H4B 9147   1.541   6.313   7.356  0.1531  0.3635  0.8861
   91CHL1    C5 9148   1.447   6.223   7.534 -0.3566 -0.3074 -1.3180
   91CHL1    C6 9149   1.550   6.255   7.613 -0.2195 -0.1150 -0.6248
   91CHL1    H6 9150   1.631   6.310   7.562 -2.7258  1.4065 -3.0592
   91CHL1    C7 9151   1.567   6.210   7.754  0.2677 -0.1858 -0.0080
   91CHL1   H7A 9152   1.670   6.169   7.761  0.4123  0.5874  2.9269
   91CHL1   H7B 9153   1.556   6.295   7.825  0.7653 -0.3345  0.2465
   91CHL1    C8 9154   1.460   6.113   7.797 -1.3204 -0.3528 -0.3604
   91CHL1    H8 9155   1.487   6.010   7.765  4.1309  1.1137 -1.0452
   91CHL1   C14 9156   1.456   6.105   7.943 -0.5243 -0.2079 -0.2489
   91CHL1   H14 9157   1.438   6.209   7.977 -0.5682 -0.3508  0.1592
   91CHL1   C15 9158   1.589   6.059   8.014  0.0543  0.4658 -0.4054
   91CHL1  H15A 9159   1.632   5.969   7.965 -1.3299  0.4793 -1.7157
   91CHL1  H15B 9160   1.668   6.137   8.017  0.5019  0.0123 -0.4036
   91CHL1   C16 9161   1.548   6.026   8.160  0.4155 -0.6603  0.0427
   91CHL1  H16A 9162   1.597   5.928   8.175  0.5739 -0.6063 -0.1137
   91CHL1  H16B 9163   1.582   6.102   8.233 -1.6152  2.1808 -1.8411
   91CHL1   C17 9164   1.388   6.020   8.150 -0.1341  0.1533 -0.4036
   91CHL1   H17 9165   1.345   6.120   8.177  2.4743  1.0543  0.5047
   91CHL1   C13 9166   1.350   6.010   8.004 -0.0602  0.3568  0.2826
   91CHL1   C18 9167   1.362   5.855   7.965  0.5062  0.4381  0.5208
   91CHL1  H18A 9168   1.270   5.811   8.009 -0.6237 -0.2917 -2.3906
   91CHL1  H18B 9169   1.343   5.840   7.856  1.2227  0.3509  0.4039
   91CHL1  H18C 9170   1.450   5.798   8.003  0.5383  1.5780  2.1764
   91CHL1   C12 9171   1.216   6.068   7.956  0.4807 -0.3145 -0.2608
   91CHL1  H12A 9172   1.130   6.007   7.991  0.8543  0.2148  1.6395
   91CHL1  H12B 9173   1.204   6.173   7.991 -1.7321 -0.4915 -0.4267
   91CHL1   C11 9174   1.204   6.074   7.799 -0.6468  0.5233 -0.4533
   91CHL1  H11A 9175   1.192   5.971   7.760  1.5101  0.2365 -0.4333
   91CHL1  H11B 9176   1.114   6.136   7.780 -0.0274  1.5771  0.0267
   91CHL1    C9 9177   1.324   6.151   7.743 -0.8624 -0.1590 -0.5571
   91CHL1    H9 9178   1.310   6.258   7.765 -3.1665 -0.1457 -1.9107
   91CHL1   C10 9179   1.323   6.154   7.586  0.2134  0.5119 -0.2358
   91CHL1   C19 9180   1.309   6.012   7.528 -0.6187  1.2966 -0.0844
   91CHL1  H19A 9181   1.394   5.953   7.568 -1.7684 -0.2651  0.0955
   91CHL1  H19B 9182   1.212   5.966   7.558 -0.1905  0.4012 -0.0827
   91CHL1  H19C 9183   1.312   6.034   7.419  1.3819 -1.2940 -0.5966
   91CHL1    C1 9184   1.199   6.232   7.546  0.0119 -0.0589 -0.8984
   91CHL1   H1A 9185   1.104   6.177   7.565 -0.5344  1.1192 -0.1774
   91CHL1   H1B 9186   1.208   6.326   7.604  1.6883 -1.4047  1.1317
   91CHL1    C2 9187   1.196   6.271   7.394  0.9500  0.2776  0.2570
   91CHL1   H2A 9188   1.112   6.339   7.372  0.3361 -0.9135 -1.1851
   91CHL1   H2B 9189   1.175   6.182   7.330  0.9467 -0.2080  0.9281
   91CHL1   C20 9190   1.328   5.930   8.263 -0.0275  0.2178  0.2508
   91CHL1   H20 9191   1.327   5.829   8.217  1.3787  1.2809 -2.2245
   91CHL1   C21 9192   1.182   5.974   8.290  0.3091  0.2584  0.6534
   91CHL1  H21A 9193   1.117   5.990   8.201  1.0178  0.9485  0.2524
   91CHL1  H21B 9194   1.173   6.069   8.347  0.5042  2.1355 -2.3521
   91CHL1  H21C 9195   1.130   5.884   8.329  0.5132 -0.8123 -1.4762
   91CHL1   C22 9196   1.401   5.924   8.393 -0.7840  0.1156 -0.2957
   91CHL1  H22A 9197   1.496   5.871   8.369 -0.3529  0.6737  0.1938
   91CHL1  H22B 9198   1.427   6.027   8.425  2.0997  0.2482 -2.8894
   91CHL1   C23 9199   1.334   5.848   8.504  0.2273 -0.5496 -0.0455
   91CHL1  H23A 9200   1.235   5.894   8.526 -0.0254 -1.0679 -0.0811
   91CHL1  H23B 9201   1.318   5.749   8.456  1.9132 -2.1947  2.6673
   91CHL1   C24 9202   1.427   5.826   8.628 -0.0354  0.2204 -0.5405
   91CHL1  H24A 9203   1.512   5.765   8.592  0.2434  0.6392 -0.5930
   91CHL1  H24B 9204   1.453   5.925   8.672  0.5993 -0.7597  1.3680
   91CHL1   C25 9205   1.351   5.743   8.737 -0.7040 -0.0798 -0.3347
   91CHL1   H25 9206   1.302   5.654   8.693  0.8395 -0.2989 -1.6655
   91CHL1   C26 9207   1.449   5.681   8.839  0.0241  0.5115 -0.2546
   91CHL1  H26A 9208   1.503   5.590   8.806  1.8603  1.0081  1.3493
   91CHL1  H26B 9209   1.518   5.766   8.857  0.2887  0.4486 -0.9506
   91CHL1  H26C 9210   1.387   5.656   8.928  0.9094 -0.2573  0.1542
   91CHL1   C27 9211   1.251   5.825   8.810  0.1364  0.2684  0.1801
   91CHL1  H27A 9212   1.172   5.861   8.741 -0.3291  2.3624  1.7648
   91CHL1  H27B 9213   1.201   5.753   8.878 -0.3394  0.4656  0.0400
   91CHL1  H27C 9214   1.295   5.906   8.873 -0.2490  0.8034 -0.2375
   92CHL1    C3 9215   3.771   1.383   6.973  0.7883  0.2394 -0.2340
   92CHL1    H3 9216   3.827   1.467   7.021 -0.3008  0.6652  0.3053
   92CHL1    O3 9217   3.805   1.390   6.836 -0.7481 -0.1565  0.3698
   92CHL1   H3' 9218   3.765   1.311   6.800  0.8697 -2.0979  2.5962
   92CHL1    C4 9219   3.807   1.245   7.043  0.0073  1.0251 -0.0369
   92CHL1   H4A 9220   3.742   1.172   6.991  1.4494 -0.3141  0.0104
   92CHL1   H4B 9221   3.911   1.217   7.016 -0.5213  0.2012 -1.2379
   92CHL1    C5 9222   3.773   1.238   7.190 -0.0433 -0.0865 -0.6641
   92CHL1    C6 9223   3.872   1.217   7.288 -0.1482 -0.4892  0.7071
   92CHL1    H6 9224   3.979   1.207   7.264  0.3377  2.4129  1.5030
   92CHL1    C7 9225   3.826   1.219   7.435 -0.1928 -0.2075  0.4567
   92CHL1   H7A 9226   3.883   1.137   7.484 -2.7574 -1.5693  1.2517
   92CHL1   H7B 9227   3.861   1.312   7.484  0.7379  0.5290 -1.5445
   92CHL1    C8 9228   3.670   1.203   7.458 -0.7300 -0.2753 -0.5443
   92CHL1    H8 9229   3.639   1.101   7.428 -1.2717 -0.1762 -0.3143
   92CHL1   C14 9230   3.633   1.235   7.602 -1.2806 -0.2674 -0.3793
   92CHL1   H14 9231   3.675   1.337   7.614  1.2803 -1.4514  1.1792
   92CHL1   C15 9232   3.711   1.155   7.707  0.5542 -0.1788 -0.4207
   92CHL1  H15A 9233   3.703   1.046   7.688 -1.1622 -0.1872  0.2556
   92CHL1  H15B 9234   3.820   1.179   7.713  0.0596  1.6167  2.1883
   92CHL1   C16 9235   3.632   1.184   7.834 -0.1948  0.5839 -0.2347
   92CHL1  H16A 9236   3.631   1.088   7.891 -0.1106 -0.0953 -1.3493
   92CHL1  H16B 9237   3.688   1.253   7.901 -1.4407  0.1219  1.3052
   92CHL1   C17 9238   3.493   1.247   7.792 -0.0590 -0.1468  0.2715
   92CHL1   H17 9239   3.505   1.356   7.810  0.2964 -0.1496  0.0457
   92CHL1   C13 9240   3.487   1.224   7.639  0.3180 -0.7000  0.0172
   92CHL1   C18 9241   3.435   1.084   7.601 -0.3382 -0.8937  0.0632
   92CHL1  H18A 9242   3.454   1.058   7.495 -0.9233 -2.0783  0.2418
   92CHL1  H18B 9243   3.490   1.007   7.660  3.0903  0.4958 -1.2200
   92CHL1  H18C 9244   3.324   1.074   7.605 -0.3271 -0.9393  0.3326
   92CHL1   C12 9245   3.413   1.333   7.560  0.3306 -0.0709 -0.8508
   92CHL1  H12A 9246   3.303   1.329   7.572  0.0984  1.9196 -2.1080
   92CHL1  H12B 9247   3.438   1.437   7.590  1.1323 -0.7294  0.8389
   92CHL1   C11 9248   3.441   1.317   7.412  0.1922 -0.1650  0.0514
   92CHL1  H11A 9249   3.385   1.224   7.385  1.1497 -0.2523 -1.7492
   92CHL1  H11B 9250   3.397   1.409   7.369  2.2457  0.4564 -0.7958
   92CHL1    C9 9251   3.593   1.300   7.370 -0.0065 -0.4165 -0.3457
   92CHL1    H9 9252   3.629   1.403   7.389  0.3915 -0.5709 -0.2437
   92CHL1   C10 9253   3.623   1.277   7.224 -0.1802  0.8435 -0.7804
   92CHL1   C19 9254   3.534   1.155   7.180  0.0189 -0.3997 -0.2896
   92CHL1  H19A 9255   3.562   1.068   7.243 -5.0034 -2.0824 -0.1817
   92CHL1  H19B 9256   3.425   1.173   7.195 -0.0592 -1.6216  0.7667
   92CHL1  H19C 9257   3.559   1.137   7.073  1.3051 -2.3192  0.2980
   92CHL1    C1 9258   3.580   1.402   7.139  0.3482 -0.2520 -0.1446
   92CHL1   H1A 9259   3.469   1.404   7.139  0.3304 -0.4244 -1.5738
   92CHL1   H1B 9260   3.625   1.493   7.182  1.0389 -1.0424  0.8292
   92CHL1    C2 9261   3.617   1.404   6.990 -0.7413  0.2451  0.0268
   92CHL1   H2A 9262   3.603   1.500   6.935  1.4233 -0.5608 -2.0096
   92CHL1   H2B 9263   3.576   1.319   6.933  1.8199  0.0469 -1.5868
   92CHL1   C20 9264   3.382   1.195   7.886 -0.3941 -0.2882  0.6052
   92CHL1   H20 9265   3.373   1.086   7.869  0.3039 -0.0017 -1.6769
   92CHL1   C21 9266   3.237   1.247   7.845 -0.0101 -0.1223 -0.7614
   92CHL1  H21A 9267   3.159   1.230   7.921  2.0789  3.2158  2.2932
   92CHL1  H21B 9268   3.201   1.190   7.757  0.4241 -0.7439 -0.5376
   92CHL1  H21C 9269   3.237   1.356   7.821  0.0861  0.2774  1.0238
   92CHL1   C22 9270   3.413   1.212   8.041 -0.2621  0.2059  0.2360
   92CHL1  H22A 9271   3.516   1.187   8.075 -0.6057  0.8632  1.7689
   92CHL1  H22B 9272   3.410   1.322   8.052 -0.7195  0.2976 -0.6758
   92CHL1   C23 9273   3.307   1.145   8.132 -0.5577 -0.3069  0.0290
   92CHL1  H23A 9274   3.202   1.174   8.108 -0.5247 -1.4859 -1.6448
   92CHL1  H23B 9275   3.312   1.036   8.111 -0.2197 -0.9639  3.3294
   92CHL1   C24 9276   3.329   1.164   8.280  0.6534 -0.2206 -0.3597
   92CHL1  H24A 9277   3.433   1.127   8.296  0.6112 -0.3291 -0.3427
   92CHL1  H24B 9278   3.309   1.262   8.327  1.6861  0.0089 -0.3761
   92CHL1   C25 9279   3.233   1.069   8.362  0.8143 -0.3582  0.8333
   92CHL1   H25 9280   3.127   1.093   8.340  1.6532  1.2931 -1.6832
   92CHL1   C26 9281   3.261   0.917   8.327 -0.0016  0.1876 -0.4976
   92CHL1  H26A 9282   3.241   0.847   8.411 -0.7090  0.6260 -0.2932
   92CHL1  H26B 9283   3.194   0.883   8.245 -1.2648 -1.3061  1.1129
   92CHL1  H26C 9284   3.365   0.893   8.296  0.6963  2.0729  0.2730
   92CHL1   C27 9285   3.253   1.092   8.510 -0.1639  0.1162 -0.1050
   92CHL1  H27A 9286   3.176   1.033   8.563 -2.2062  3.4788  0.8132
   92CHL1  H27B 9287   3.353   1.063   8.548 -0.6859 -0.3589  0.8886
   92CHL1  H27C 9288   3.233   1.201   8.523  1.9806  0.6423 -0.9376
   93CHL1    C3 9289   2.524   5.425   6.935 -0.3200 -0.6563 -0.2290
   93CHL1    H3 9290   2.423   5.462   6.965 -1.4300 -1.2888 -3.0873
   93CHL1    O3 9291   2.514   5.433   6.791  0.5507 -0.3555 -0.2273
   93CHL1   H3' 9292   2.495   5.341   6.771 -0.5755  0.0242 -0.8990
   93CHL1    C4 9293   2.636   5.520   6.991 -0.2573  0.0250 -0.0925
   93CHL1   H4A 9294   2.737   5.495   6.953 -0.9340 -1.6688 -0.8142
   93CHL1   H4B 9295   2.619   5.625   6.959 -1.2480  0.1418  0.8078
   93CHL1    C5 9296   2.645   5.504   7.140 -0.4987 -0.1764 -0.0240
   93CHL1    C6 9297   2.632   5.612   7.226 -0.3185 -0.4466  0.3353
   93CHL1    H6 9298   2.607   5.712   7.188  0.5664 -1.5024 -3.2149
   93CHL1    C7 9299   2.663   5.603   7.371 -0.1972  0.1882  0.2793
   93CHL1   H7A 9300   2.733   5.685   7.394  1.3176 -1.1859  0.6595
   93CHL1   H7B 9301   2.573   5.608   7.435 -0.0823 -0.8313  0.5364
   93CHL1    C8 9302   2.731   5.476   7.411 -0.3870 -0.7597  0.3163
   93CHL1    H8 9303   2.839   5.491   7.387 -0.5850  0.9834  0.4510
   93CHL1   C14 9304   2.714   5.455   7.563 -0.0171  0.2780  0.4449
   93CHL1   H14 9305   2.606   5.437   7.583 -0.4073 -0.0398 -1.7672
   93CHL1   C15 9306   2.743   5.572   7.656  0.3151 -0.5572 -0.2871
   93CHL1  H15A 9307   2.843   5.609   7.627  1.6261 -2.5473  1.5113
   93CHL1  H15B 9308   2.662   5.648   7.652 -2.2879 -3.2763 -1.3003
   93CHL1   C16 9309   2.738   5.509   7.800 -0.0086 -0.0422 -0.6358
   93CHL1  H16A 9310   2.832   5.539   7.853 -0.7952  0.3054  0.5839
   93CHL1  H16B 9311   2.655   5.543   7.865 -0.4241  0.2192 -1.2950
   93CHL1   C17 9312   2.732   5.351   7.780 -0.8842 -0.1969 -0.1454
   93CHL1   H17 9313   2.622   5.334   7.780 -0.9373  0.1332  0.0306
   93CHL1   C13 9314   2.774   5.332   7.629 -0.2833  0.1453  0.5266
   93CHL1   C18 9315   2.925   5.331   7.626  0.3645 -0.1665 -0.7058
   93CHL1  H18A 9316   2.970   5.230   7.640 -0.7173 -0.7461 -1.3134
   93CHL1  H18B 9317   2.969   5.352   7.526 -0.6185  0.9831 -0.9054
   93CHL1  H18C 9318   2.980   5.397   7.697 -0.1233  0.9514 -1.3560
   93CHL1   C12 9319   2.716   5.215   7.554 -0.3070 -0.1285 -0.5557
   93CHL1  H12A 9320   2.741   5.115   7.596 -0.7966 -0.0948 -0.1843
   93CHL1  H12B 9321   2.605   5.216   7.557 -0.3992 -2.6114 -1.9807
   93CHL1   C11 9322   2.741   5.218   7.399  0.1072  0.5269 -0.1767
   93CHL1  H11A 9323   2.846   5.218   7.365  0.0448  0.3721 -0.3675
   93CHL1  H11B 9324   2.696   5.129   7.349 -0.4101  1.0048 -0.5604
   93CHL1    C9 9325   2.679   5.349   7.342  0.2253  0.1488 -0.1698
   93CHL1    H9 9326   2.570   5.353   7.362  0.8379 -1.1105  4.0654
   93CHL1   C10 9327   2.682   5.367   7.189 -0.3329  0.6030  0.2843
   93CHL1   C19 9328   2.825   5.325   7.143 -0.2007  0.9315  0.2708
   93CHL1  H19A 9329   2.835   5.338   7.034  0.0780 -1.1273  0.0325
   93CHL1  H19B 9330   2.896   5.388   7.202  0.5538 -0.7953  1.2428
   93CHL1  H19C 9331   2.832   5.216   7.160 -2.5415  0.3129 -2.4512
   93CHL1    C1 9332   2.577   5.271   7.127  0.6603  0.0445 -0.0681
   93CHL1   H1A 9333   2.602   5.165   7.150  1.7910  0.3290 -0.0084
   93CHL1   H1B 9334   2.475   5.284   7.171 -0.1084 -0.1284 -1.7400
   93CHL1    C2 9335   2.555   5.281   6.976 -0.7382  0.6271  0.8122
   93CHL1   H2A 9336   2.471   5.217   6.942 -0.2311  1.1008 -1.4181
   93CHL1   H2B 9337   2.644   5.252   6.916 -3.3898  0.3957 -3.2741
   93CHL1   C20 9338   2.813   5.277   7.892  0.0352 -0.2342  0.1354
   93CHL1   H20 9339   2.921   5.305   7.884  0.2006 -0.5515  1.2023
   93CHL1   C21 9340   2.787   5.132   7.868 -0.3840 -0.4083  0.4125
   93CHL1  H21A 9341   2.842   5.091   7.782 -0.4353 -0.2562  0.3082
   93CHL1  H21B 9342   2.679   5.108   7.855 -0.3310 -0.9832  0.9706
   93CHL1  H21C 9343   2.823   5.069   7.953  0.7697 -0.9280 -0.4530
   93CHL1   C22 9344   2.761   5.314   8.029 -0.1590 -0.8743  0.5975
   93CHL1  H22A 9345   2.733   5.419   8.051  2.4968 -0.2495  1.2346
   93CHL1  H22B 9346   2.682   5.240   8.053  1.3435 -2.9239 -0.6291
   93CHL1   C23 9347   2.876   5.281   8.132  0.1917 -0.1770 -0.4305
   93CHL1  H23A 9348   2.877   5.171   8.144  0.1258 -0.4523 -2.7042
   93CHL1  H23B 9349   2.981   5.307   8.108 -0.5665  1.8665 -1.7083
   93CHL1   C24 9350   2.853   5.343   8.272 -0.5297 -0.0506 -0.3241
   93CHL1  H24A 9351   2.940   5.323   8.339 -0.9616  1.4372  0.7111
   93CHL1  H24B 9352   2.851   5.451   8.247  1.7327  0.5837  1.9225
   93CHL1   C25 9353   2.723   5.297   8.333 -0.6620  0.0881 -0.4583
   93CHL1   H25 9354   2.652   5.296   8.248  0.3016 -3.6403 -1.3064
   93CHL1   C26 9355   2.728   5.155   8.388 -0.7935  0.1099 -0.1206
   93CHL1  H26A 9356   2.626   5.112   8.397 -1.1350  0.7687 -0.8122
   93CHL1  H26B 9357   2.787   5.087   8.323 -0.8284  0.5507 -0.6210
   93CHL1  H26C 9358   2.768   5.147   8.491 -0.4042 -0.6543 -0.3284
   93CHL1   C27 9359   2.685   5.403   8.437 -0.2919  0.3581  0.2315
   93CHL1  H27A 9360   2.749   5.396   8.528  0.2218 -0.5490 -0.1831
   93CHL1  H27B 9361   2.683   5.504   8.390 -0.3794 -0.4449 -1.5264
   93CHL1  H27C 9362   2.582   5.382   8.471  0.0008 -0.3551  0.6915
   94CHL1    C3 9363   4.586   1.871   6.808 -0.6922  0.3671 -0.1172
   94CHL1    H3 9364   4.670   1.944   6.811 -1.1084  0.8331  0.2054
   94CHL1    O3 9365   4.567   1.856   6.665 -0.1156 -0.7446 -0.2168
   94CHL1   H3' 9366   4.491   1.797   6.655 -0.9793 -0.0715  2.1581
   94CHL1    C4 9367   4.623   1.735   6.875  0.5141 -1.1651  0.1303
   94CHL1   H4A 9368   4.549   1.668   6.826  0.9730 -0.6717 -1.2382
   94CHL1   H4B 9369   4.718   1.697   6.833 -0.1476 -2.1013 -0.5426
   94CHL1    C5 9370   4.620   1.744   7.030 -0.1356  0.2024  0.1806
   94CHL1    C6 9371   4.716   1.699   7.108 -0.0583 -0.5251 -0.3014
   94CHL1    H6 9372   4.809   1.665   7.060 -0.4812 -2.4224  0.1634
   94CHL1    C7 9373   4.711   1.691   7.257  0.4765 -0.2201  0.8412
   94CHL1   H7A 9374   4.721   1.587   7.295 -0.2956  0.2459  2.3712
   94CHL1   H7B 9375   4.799   1.746   7.299  2.1076 -1.1258 -1.2747
   94CHL1    C8 9376   4.579   1.738   7.329  0.1844  0.2692  0.0991
   94CHL1    H8 9377   4.504   1.657   7.331  0.4795  0.0056  1.4929
   94CHL1   C14 9378   4.607   1.780   7.474 -0.0829  0.0724 -0.1317
   94CHL1   H14 9379   4.663   1.875   7.460 -1.1475  0.4914 -1.6878
   94CHL1   C15 9380   4.692   1.692   7.570 -0.2342 -0.1010  0.6877
   94CHL1  H15A 9381   4.667   1.584   7.560 -0.5775  0.1596 -1.4270
   94CHL1  H15B 9382   4.797   1.727   7.566 -0.8606  1.5928 -2.2338
   94CHL1   C16 9383   4.641   1.727   7.710 -0.1955  0.2894 -0.6449
   94CHL1  H16A 9384   4.601   1.636   7.758 -0.4346  0.9204  0.3579
   94CHL1  H16B 9385   4.726   1.770   7.767 -3.0461  3.6396  1.2991
   94CHL1   C17 9386   4.533   1.837   7.694 -0.2714  0.3299 -0.2463
   94CHL1   H17 9387   4.571   1.941   7.692 -0.1406  0.4137  3.2088
   94CHL1   C13 9388   4.475   1.817   7.551  0.0853  0.5147 -0.2163
   94CHL1   C18 9389   4.370   1.703   7.546  0.1219  0.3836 -0.5795
   94CHL1  H18A 9390   4.276   1.734   7.596  1.1975  0.7677  1.2401
   94CHL1  H18B 9391   4.351   1.662   7.444 -1.0854 -2.7535  0.8363
   94CHL1  H18C 9392   4.388   1.618   7.616 -0.0648  1.7708  1.1699
   94CHL1   C12 9393   4.414   1.936   7.470 -0.6585  0.0238  0.4591
   94CHL1  H12A 9394   4.322   1.978   7.517 -1.0197  1.5449 -1.4986
   94CHL1  H12B 9395   4.491   2.016   7.477 -0.3863 -0.1525 -0.4404
   94CHL1   C11 9396   4.388   1.909   7.313 -0.3763 -0.5949  0.4563
   94CHL1  H11A 9397   4.305   1.837   7.309  0.0265 -0.9947 -1.1818
   94CHL1  H11B 9398   4.361   2.009   7.271 -2.3697 -1.8511 -1.3327
   94CHL1    C9 9399   4.515   1.851   7.251  0.3814 -0.4725  0.1198
   94CHL1    H9 9400   4.587   1.935   7.252 -1.2920  0.9781  0.4137
   94CHL1   C10 9401   4.495   1.814   7.095 -0.6397 -0.6638  0.4438
   94CHL1   C19 9402   4.363   1.728   7.080 -0.0513  0.1185  0.6924
   94CHL1  H19A 9403   4.351   1.685   6.978  2.1478  0.0798  0.4207
   94CHL1  H19B 9404   4.378   1.646   7.154  1.2824 -0.1345  0.1544
   94CHL1  H19C 9405   4.270   1.780   7.112 -0.8501 -1.1847  0.5494
   94CHL1    C1 9406   4.479   1.946   7.014  0.4732 -0.2644 -0.0034
   94CHL1   H1A 9407   4.392   2.000   7.057 -1.4793 -1.9470 -1.6879
   94CHL1   H1B 9408   4.571   2.008   7.021 -1.3926  2.4422  1.4921
   94CHL1    C2 9409   4.461   1.931   6.866  0.3221 -0.7626  0.0874
   94CHL1   H2A 9410   4.447   2.027   6.812  0.0332 -0.6560  0.3552
   94CHL1   H2B 9411   4.377   1.865   6.838 -1.2282  0.7508  1.0556
   94CHL1   C20 9412   4.427   1.842   7.808  0.0741 -0.4173  0.4070
   94CHL1   H20 9413   4.369   1.747   7.811  0.2992 -0.5527  0.5168
   94CHL1   C21 9414   4.322   1.953   7.788  0.4679 -0.2755  0.0087
   94CHL1  H21A 9415   4.275   1.984   7.884  0.3274  2.1260 -0.8213
   94CHL1  H21B 9416   4.243   1.935   7.711  2.4622  0.3265 -2.2505
   94CHL1  H21C 9417   4.371   2.038   7.736  0.1287  0.0292  0.1892
   94CHL1   C22 9418   4.493   1.850   7.947  0.3522  0.2645  0.0917
   94CHL1  H22A 9419   4.585   1.787   7.952  0.6708  0.8089  1.3385
   94CHL1  H22B 9420   4.525   1.955   7.962  0.8773 -0.2603  2.8844
   94CHL1   C23 9421   4.411   1.781   8.055 -0.5555 -0.0755 -0.2462
   94CHL1  H23A 9422   4.313   1.833   8.057 -0.0558  0.8639  0.0112
   94CHL1  H23B 9423   4.398   1.675   8.024 -1.8984  0.3861 -1.3262
   94CHL1   C24 9424   4.461   1.788   8.198  0.2462  0.1896  0.0555
   94CHL1  H24A 9425   4.474   1.896   8.223  1.1514  0.3276 -0.9776
   94CHL1  H24B 9426   4.380   1.749   8.264 -1.2733 -0.2016 -2.0116
   94CHL1   C25 9427   4.584   1.699   8.233 -0.3435  0.1213 -0.3360
   94CHL1   H25 9428   4.669   1.735   8.171 -0.6187  1.9843  0.3534
   94CHL1   C26 9429   4.621   1.723   8.379  0.3749 -0.2108  0.0977
   94CHL1  H26A 9430   4.537   1.689   8.442 -0.3206 -0.3237 -0.8936
   94CHL1  H26B 9431   4.715   1.669   8.406 -0.1607 -0.8155  0.7706
   94CHL1  H26C 9432   4.623   1.832   8.402  0.6597 -0.4101  1.0437
   94CHL1   C27 9433   4.565   1.552   8.199  0.1239  0.5121 -0.3031
   94CHL1  H27A 9434   4.546   1.527   8.092  2.2806  1.1119 -0.8629
   94CHL1  H27B 9435   4.667   1.508   8.208  0.7479  1.7718 -1.1331
   94CHL1  H27C 9436   4.484   1.508   8.261 -1.2860  1.4262 -1.4645
   95CHL1    C3 9437   4.174   0.979   6.683 -0.6895  0.4031 -0.0182
   95CHL1    H3 9438   4.212   1.082   6.702 -0.6059  0.4341 -0.3593
   95CHL1    O3 9439   4.162   0.973   6.545  0.3159 -0.0984  0.0785
   95CHL1   H3' 9440   4.146   0.882   6.519  0.4599 -1.0069  2.9958
   95CHL1    C4 9441   4.271   0.866   6.729  0.0747 -0.1007 -0.5531
   95CHL1   H4A 9442   4.249   0.761   6.702 -1.3341 -1.2607  4.6174
   95CHL1   H4B 9443   4.368   0.889   6.680  0.6723 -3.0106 -0.8185
   95CHL1    C5 9444   4.300   0.878   6.874  0.2762 -0.1257 -0.7991
   95CHL1    C6 9445   4.417   0.901   6.930  0.8331  0.6504 -1.2377
   95CHL1    H6 9446   4.502   0.913   6.861  0.0353 -1.1359 -2.5787
   95CHL1    C7 9447   4.442   0.896   7.077 -0.1366  0.7853 -0.1390
   95CHL1   H7A 9448   4.533   0.838   7.101  0.1172  0.9055 -0.7845
   95CHL1   H7B 9449   4.445   0.998   7.121 -1.1492  0.4001  0.8210
   95CHL1    C8 9450   4.324   0.829   7.154  0.2942  0.2954  0.8004
   95CHL1    H8 9451   4.319   0.720   7.136 -1.0549  0.8429 -2.4759
   95CHL1   C14 9452   4.336   0.852   7.301 -0.5349  1.2764  0.0699
   95CHL1   H14 9453   4.320   0.961   7.314 -1.1415  1.1215  0.6903
   95CHL1   C15 9454   4.468   0.810   7.374 -0.0940  0.3003  0.4633
   95CHL1  H15A 9455   4.499   0.713   7.332 -2.0362  0.6229 -1.7671
   95CHL1  H15B 9456   4.553   0.878   7.348 -1.3684  1.4005 -0.8786
   95CHL1   C16 9457   4.432   0.815   7.521 -0.4180 -0.2825  0.2061
   95CHL1  H16A 9458   4.463   0.718   7.564  3.6436  0.1232 -1.5374
   95CHL1  H16B 9459   4.485   0.894   7.579 -0.3309 -0.9577  1.0435
   95CHL1   C17 9460   4.281   0.836   7.530 -0.1096 -0.3165  0.0656
   95CHL1   H17 9461   4.268   0.945   7.543 -0.3979 -0.3598  0.1448
   95CHL1   C13 9462   4.227   0.796   7.390  0.3759 -0.1413  0.3317
   95CHL1   C18 9463   4.216   0.640   7.387 -0.3199 -0.5497 -0.4615
   95CHL1  H18A 9464   4.133   0.610   7.455  1.0449 -2.6576  0.3095
   95CHL1  H18B 9465   4.199   0.607   7.282 -0.1352  1.7717 -1.2460
   95CHL1  H18C 9466   4.301   0.587   7.435 -0.8752  0.3206  1.5499
   95CHL1   C12 9467   4.103   0.870   7.342 -0.5222  0.9142  0.3589
   95CHL1  H12A 9468   4.015   0.844   7.405 -2.0131  0.2374 -1.9248
   95CHL1  H12B 9469   4.112   0.980   7.355 -0.8343  0.9115  0.6158
   95CHL1   C11 9470   4.064   0.843   7.194 -0.4923  0.0371 -0.5135
   95CHL1  H11A 9471   4.031   0.737   7.184  0.2331 -0.3130  0.7068
   95CHL1  H11B 9472   3.974   0.906   7.183  0.0227  1.1648  1.5305
   95CHL1    C9 9473   4.183   0.882   7.102 -0.2887 -0.2256 -0.3342
   95CHL1    H9 9474   4.191   0.992   7.106  0.6795 -0.1839 -2.4247
   95CHL1   C10 9475   4.170   0.846   6.950  0.1882 -0.4837 -0.2101
   95CHL1   C19 9476   4.116   0.701   6.929  0.2037 -0.8311 -0.0513
   95CHL1  H19A 9477   4.191   0.629   6.970 -0.3281 -0.8944  0.8229
   95CHL1  H19B 9478   4.022   0.684   6.986  0.0461  1.8539  0.5385
   95CHL1  H19C 9479   4.101   0.678   6.822 -0.4335  0.4608 -0.2451
   95CHL1    C1 9480   4.054   0.942   6.903 -0.4320  0.2646 -0.3812
   95CHL1   H1A 9481   3.953   0.915   6.940 -0.4763  0.5692 -0.2826
   95CHL1   H1B 9482   4.084   1.042   6.939 -2.9698  0.9096  0.0173
   95CHL1    C2 9483   4.042   0.950   6.746  0.1256  0.3700  0.0881
   95CHL1   H2A 9484   3.986   1.040   6.714 -1.6689 -0.4415  0.8857
   95CHL1   H2B 9485   3.996   0.857   6.706  0.6267 -0.1954  0.8216
   95CHL1   C20 9486   4.231   0.775   7.666 -0.4987 -0.0114 -0.0118
   95CHL1   H20 9487   4.243   0.664   7.669 -0.4698  0.0178  0.9947
   95CHL1   C21 9488   4.079   0.809   7.679  0.1433  0.4996 -0.3688
   95CHL1  H21A 9489   4.037   0.772   7.775  2.3237  0.9622  0.7986
   95CHL1  H21B 9490   4.031   0.746   7.601 -2.4299  1.4322  0.4218
   95CHL1  H21C 9491   4.063   0.918   7.671  1.1893  0.6081 -1.0190
   95CHL1   C22 9492   4.313   0.825   7.795 -0.1649 -0.3558 -0.0173
   95CHL1  H22A 9493   4.276   0.758   7.876  0.1692 -2.4654 -1.5421
   95CHL1  H22B 9494   4.421   0.810   7.773  0.0544 -1.9179  1.8657
   95CHL1   C23 9495   4.276   0.972   7.837  0.0995  0.6878  0.2842
   95CHL1  H23A 9496   4.292   1.042   7.752  0.3838  0.0276 -0.2134
   95CHL1  H23B 9497   4.167   0.980   7.857  0.0952  1.5889 -0.0732
   95CHL1   C24 9498   4.361   1.032   7.955 -0.0232  0.4321 -0.4041
   95CHL1  H24A 9499   4.376   0.952   8.031 -2.4412  0.3657  0.0257
   95CHL1  H24B 9500   4.464   1.065   7.926  0.4411 -0.2488  0.4349
   95CHL1   C25 9501   4.303   1.153   8.032 -0.6148  0.1739 -0.0168
   95CHL1   H25 9502   4.213   1.120   8.088 -1.4103 -0.8448 -1.8553
   95CHL1   C26 9503   4.410   1.204   8.134  0.1743 -0.2607  0.5202
   95CHL1  H26A 9504   4.370   1.305   8.158  0.2793 -0.6385  2.3670
   95CHL1  H26B 9505   4.421   1.148   8.229  1.0705 -0.3440  0.3670
   95CHL1  H26C 9506   4.507   1.230   8.088 -0.2622  1.5793  0.6117
   95CHL1   C27 9507   4.271   1.268   7.934  0.4178  0.5544  0.4254
   95CHL1  H27A 9508   4.191   1.232   7.865 -0.5530  1.1995  1.2040
   95CHL1  H27B 9509   4.221   1.354   7.982  0.1981  0.5972  0.1240
   95CHL1  H27C 9510   4.361   1.295   7.874 -0.3046 -1.6275 -1.7576
   96CHL1    C3 9511   4.769   0.061   6.706 -0.3419  0.6375  0.2094
   96CHL1    H3 9512   4.880   0.062   6.715 -0.1084 -3.0011 -1.6544
   96CHL1    O3 9513   4.733   0.094   6.574  0.7256  0.0579  0.6159
   96CHL1   H3' 9514   4.761   0.186   6.573  1.1988 -0.0728  1.0883
   96CHL1    C4 9515   4.724  -0.075   6.745  0.2250 -0.2107 -0.0023
   96CHL1   H4A 9516   4.615  -0.084   6.727  0.3421 -0.2924 -0.6769
   96CHL1   H4B 9517   4.780  -0.153   6.689 -0.0511 -2.6442  2.9473
   96CHL1    C5 9518   4.760  -0.102   6.890  0.0710  0.3267 -0.1033
   96CHL1    C6 9519   4.835  -0.209   6.925 -0.4674  0.3022 -0.3249
   96CHL1    H6 9520   4.869  -0.279   6.847 -0.9906 -2.1847  1.6124
   96CHL1    C7 9521   4.867  -0.251   7.064  0.0713  0.1392  0.2086
   96CHL1   H7A 9522   4.852  -0.359   7.085 -0.2121  0.4203  1.4864
   96CHL1   H7B 9523   4.974  -0.224   7.080 -0.0395  1.6339 -1.4644
   96CHL1    C8 9524   4.775  -0.171   7.167  0.2243  0.1206 -0.7697
   96CHL1    H8 9525   4.672  -0.212   7.167 -0.1757  1.1004 -1.6783
   96CHL1   C14 9526   4.835  -0.183   7.305  0.0031 -0.0296  0.6599
   96CHL1   H14 9527   4.935  -0.134   7.300 -0.0210 -0.1516 -1.4844
   96CHL1   C15 9528   4.886  -0.326   7.352  1.0459  0.6395  0.8353
   96CHL1  H15A 9529   4.821  -0.408   7.315  0.2140  1.8242 -0.3815
   96CHL1  H15B 9530   4.985  -0.352   7.308  2.0353  2.8834  1.6990
   96CHL1   C16 9531   4.895  -0.307   7.500  0.4763  0.0987 -0.4060
   96CHL1  H16A 9532   4.826  -0.373   7.557 -1.6629  1.5833 -1.2214
   96CHL1  H16B 9533   5.003  -0.314   7.527  0.9506  2.3426 -1.5963
   96CHL1   C17 9534   4.859  -0.161   7.533 -0.1279 -0.4508 -0.1085
   96CHL1   H17 9535   4.944  -0.095   7.503 -0.7833 -0.4621 -2.1230
   96CHL1   C13 9536   4.768  -0.119   7.420 -0.0309  0.4083 -0.8515
   96CHL1   C18 9537   4.631  -0.189   7.438  0.2436 -0.9370 -0.6234
   96CHL1  H18A 9538   4.584  -0.138   7.525 -1.5265 -1.8940 -1.0128
   96CHL1  H18B 9539   4.559  -0.182   7.354  0.8052 -0.6348 -1.0806
   96CHL1  H18C 9540   4.643  -0.291   7.480  2.1748 -0.6213 -0.3348
   96CHL1   C12 9541   4.752   0.032   7.393  0.1663 -0.2846  0.3836
   96CHL1  H12A 9542   4.678   0.080   7.460  1.6826  1.0812  1.1269
   96CHL1  H12B 9543   4.852   0.082   7.397  0.2002 -0.4344  1.6702
   96CHL1   C11 9544   4.698   0.057   7.249  0.1568  0.2924  0.1131
   96CHL1  H11A 9545   4.596   0.016   7.266 -0.2161  2.2191  2.7471
   96CHL1  H11B 9546   4.701   0.166   7.226  0.6546 -0.0078 -1.2917
   96CHL1    C9 9547   4.771  -0.021   7.136 -0.5852 -0.1160  0.3216
   96CHL1    H9 9548   4.876   0.016   7.134 -0.4095 -0.4858  2.1743
   96CHL1   C10 9549   4.709   0.002   7.000  0.4043  0.2225  0.0050
   96CHL1   C19 9550   4.557  -0.020   7.016 -0.5970 -0.5932 -0.2359
   96CHL1  H19A 9551   4.524  -0.116   7.061  0.5939 -0.8314  0.1537
   96CHL1  H19B 9552   4.502   0.062   7.067  0.4668 -0.0115 -0.0028
   96CHL1  H19C 9553   4.521  -0.021   6.911  1.3177 -0.9150 -0.9108
   96CHL1    C1 9554   4.743   0.145   6.948 -0.1595  0.4692 -0.7181
   96CHL1   H1A 9555   4.697   0.228   7.006  1.1379  0.4348  0.3708
   96CHL1   H1B 9556   4.848   0.170   6.972  0.0372 -0.6354 -0.4286
   96CHL1    C2 9557   4.707   0.167   6.801 -0.6608 -0.2948  0.8382
   96CHL1   H2A 9558   4.743   0.270   6.779  0.4827 -1.0162 -0.7767
   96CHL1   H2B 9559   4.598   0.161   6.780 -0.7378  0.9095  0.8904
   96CHL1   C20 9560   4.829  -0.144   7.686 -0.0497  0.1836  0.9924
   96CHL1   H20 9561   4.762  -0.227   7.717  1.6270 -1.7322 -0.4717
   96CHL1   C21 9562   4.769  -0.007   7.712  0.6054  0.4114 -0.2989
   96CHL1  H21A 9563   4.831   0.071   7.663 -2.1375  1.8708 -1.5764
   96CHL1  H21B 9564   4.756   0.019   7.819  0.3724  1.8169 -0.6534
   96CHL1  H21C 9565   4.665   0.008   7.676  0.4794  0.2912  0.0139
   96CHL1   C22 9566   4.960  -0.163   7.769 -0.5788  0.0660 -0.6593
   96CHL1  H22A 9567   5.052  -0.135   7.712 -1.9876  0.4773 -2.7707
   96CHL1  H22B 9568   4.943  -0.097   7.856  0.5379 -0.4266 -0.0583
   96CHL1   C23 9569   4.978  -0.307   7.825  0.5773 -0.0120  0.7697
   96CHL1  H23A 9570   4.889  -0.332   7.887 -0.1337  0.7713  0.0739
   96CHL1  H23B 9571   4.972  -0.380   7.742  1.4484 -0.2292  0.8986
   96CHL1   C24 9572   5.100  -0.315   7.916 -0.4193  0.3173 -0.1690
   96CHL1  H24A 9573   5.191  -0.269   7.873  1.3122 -1.5970  1.3500
   96CHL1  H24B 9574   5.078  -0.268   8.014  0.3848 -1.1153  0.7267
   96CHL1   C25 9575   5.134  -0.458   7.942 -0.6313  0.5553  0.8662
   96CHL1   H25 9576   5.149  -0.498   7.839  2.2926 -0.9097  1.7969
   96CHL1   C26 9577   5.266  -0.483   8.014 -0.5313 -0.1558 -0.3124
   96CHL1  H26A 9578   5.350  -0.439   7.956 -0.1366 -2.1611 -1.2836
   96CHL1  H26B 9579   5.257  -0.445   8.119 -2.4051  0.4694 -0.6820
   96CHL1  H26C 9580   5.287  -0.592   8.008  0.0101 -0.0336 -0.6047
   96CHL1   C27 9581   5.021  -0.530   8.014  0.2201  0.4782  0.3584
   96CHL1  H27A 9582   5.005  -0.492   8.117 -0.3749 -1.3634  0.9655
   96CHL1  H27B 9583   4.919  -0.528   7.969  0.9666 -0.3864 -1.4160
   96CHL1  H27C 9584   5.044  -0.638   8.027  3.4039  0.9178 -1.2712
   97OSM      N 9585   2.011   1.215  11.034  0.8260 -0.1407  0.3870
   97OSM    C15 9586   2.020   1.116  10.929 -0.6529 -0.4918 -0.6551
   97OSM   H15A 9587   2.036   1.017  10.970 -0.1425 -0.3170 -0.4249
   97OSM   H15B 9588   2.089   1.132  10.848 -1.7708  0.3360 -1.4440
   97OSM   H15C 9589   1.925   1.109  10.879 -1.8297 -1.7186  1.6848
   97OSM    C14 9590   2.008   1.344  10.962  0.6639  0.3279 -0.2203
   97OSM   H14A 9591   1.931   1.342  10.887 -0.5602  2.2997  0.9284
   97OSM   H14B 9592   2.094   1.363  10.899  0.2655 -1.0649 -1.1948
   97OSM   H14C 9593   2.001   1.426  11.033  0.1442  0.0761  0.0207
   97OSM    C13 9594   1.885   1.188  11.104 -0.1172  0.1221  0.2080
   97OSM   H13A 9595   1.800   1.191  11.038 -1.3000 -0.0105  1.7012
   97OSM   H13B 9596   1.870   1.267  11.176 -0.9567  0.7818 -0.6892
   97OSM   H13C 9597   1.875   1.092  11.153 -1.0549  0.0049 -0.2192
   97OSM    C12 9598   2.142   1.211  11.117  0.3095 -0.0624  0.7492
   97OSM   H12A 9599   2.164   1.118  11.168  0.0843 -0.8067 -0.4908
   97OSM   H12B 9600   2.129   1.280  11.199  1.1162 -1.3246  1.9810
   97OSM    C11 9601   2.273   1.239  11.045  0.4059  0.2146  0.0733
   97OSM   H11A 9602   2.352   1.275  11.115  1.5198 -1.1835 -0.4433
   97OSM   H11B 9603   2.253   1.330  10.984 -2.3461 -0.6726 -0.4092
   97OSM      P 9604   2.438   1.049  11.003 -0.1810 -0.1710 -0.0669
   97OSM    O13 9605   2.568   1.126  11.010  0.2553 -0.5049 -0.4456
   97OSM    O14 9606   2.407   0.967  11.124  0.0152 -0.2242 -0.1806
   97OSM    O11 9607   2.448   0.955  10.876  0.1812  0.0021 -0.2914
   97OSM    O12 9608   2.315   1.135  10.965  0.5677 -0.4389  0.4297
   97OSM    C1S 9609   2.330   0.895  10.831 -0.4007 -0.0318 -0.5787
   97OSM    H1S 9610   2.238   0.957  10.838 -0.6718 -0.5008  0.1388
   97OSM    H1T 9611   2.313   0.799  10.885  0.4990 -0.5889 -1.2796
   97OSM     NF 9612   2.200   0.825  10.621  0.1762 -0.2270 -0.5159
   97OSM    HNF 9613   2.170   0.730  10.627 -0.6069 -0.2502 -3.5869
   97OSM    C2S 9614   2.333   0.857  10.672 -0.6010  0.6980 -0.2405
   97OSM    H2S 9615   2.376   0.945  10.620  1.4059 -0.8956 -1.3138
   97OSM    C3S 9616   2.443   0.744  10.655  0.6543  0.3698 -0.5326
   97OSM    H3S 9617   2.420   0.662  10.726 -2.6341 -0.6774 -2.7162
   97OSM     O3 9618   2.577   0.788  10.699  0.5383  0.3960 -0.4004
   97OSM    HO3 9619   2.552   0.854  10.764 -1.0674  0.3388 -0.9222
   97OSM    C4S 9620   2.459   0.699  10.519 -0.2830 -0.1368  0.0599
   97OSM    H4S 9621   2.491   0.783  10.456  0.2725 -0.4645 -0.0983
   97OSM    C5S 9622   2.434   0.575  10.474  0.4695  0.2153 -0.7876
   97OSM    H5S 9623   2.382   0.502  10.538 -1.2164  1.0577 -1.1660
   97OSM    C6S 9624   2.448   0.530  10.329  0.4510  0.1565  0.1411
   97OSM    H6S 9625   2.351   0.507  10.278  0.3562  3.5038 -1.2731
   97OSM    H6T 9626   2.499   0.432  10.321 -0.6392 -0.4362  0.2647
   97OSM    C7S 9627   2.520   0.615  10.226 -0.2861 -0.0634  0.5755
   97OSM    H7S 9628   2.627   0.625  10.253 -0.4863  0.8043  1.0462
   97OSM    H7T 9629   2.487   0.721  10.219  0.4200  0.1236 -0.0565
   97OSM    C8S 9630   2.508   0.541  10.086 -1.0738 -0.0557 -0.5738
   97OSM    H8S 9631   2.402   0.516  10.068 -0.6728 -0.4970 -2.3746
   97OSM    H8T 9632   2.570   0.448  10.083 -0.8828  0.0764 -0.7889
   97OSM    C9S 9633   2.550   0.632   9.963  0.1473  0.8777 -1.0148
   97OSM    H9S 9634   2.659   0.643   9.977 -0.2950  0.8013  2.9985
   97OSM    H9T 9635   2.505   0.730   9.991 -0.3271  1.1453 -2.6448
   97OSM   C10S 9636   2.503   0.590   9.824 -0.4713 -0.2107 -0.6318
   97OSM   H10S 9637   2.397   0.614   9.802  0.0669 -0.6048 -3.8514
   97OSM   H10T 9638   2.520   0.480   9.813 -0.1647 -0.5201  2.2958
   97OSM   C11S 9639   2.596   0.652   9.716  0.5644 -0.2292  0.1091
   97OSM   H11S 9640   2.705   0.634   9.730  0.8228  0.8007 -0.5270
   97OSM   H11T 9641   2.593   0.762   9.735  0.0285 -0.5052  1.7233
   97OSM   C12S 9642   2.541   0.630   9.578  0.4322  0.3843  0.0153
   97OSM   H12S 9643   2.570   0.723   9.525 -1.1734  0.7961 -0.1436
   97OSM   H12T 9644   2.431   0.639   9.591  0.1918 -0.1741 -1.5471
   97OSM   C13S 9645   2.601   0.505   9.500 -0.0071 -0.6767 -0.2283
   97OSM   H13S 9646   2.637   0.428   9.572 -0.6095  0.5016  1.3491
   97OSM   H13T 9647   2.686   0.525   9.431 -0.0487  0.6036  0.0833
   97OSM   C14S 9648   2.493   0.444   9.410  0.0588 -0.4350  0.1150
   97OSM   H14S 9649   2.456   0.519   9.337 -1.3812  0.3416  1.6170
   97OSM   H14T 9650   2.404   0.422   9.472 -0.3106 -0.3126 -0.3676
   97OSM   C15S 9651   2.531   0.309   9.345 -0.2064 -0.6089 -0.1263
   97OSM   H15S 9652   2.561   0.237   9.424  1.2815  0.3057  0.1791
   97OSM   H15T 9653   2.623   0.311   9.282  0.2949 -0.7653  0.5825
   97OSM   C16S 9654   2.420   0.257   9.248 -0.1435 -0.1435  0.3806
   97OSM   H16S 9655   2.373   0.346   9.201 -0.5894  0.4661  1.9575
   97OSM   H16T 9656   2.343   0.200   9.304  0.2413  0.6387  1.7324
   97OSM   C17S 9657   2.465   0.151   9.143 -0.0142  0.9711  0.2436
   97OSM   H17S 9658   2.542   0.194   9.076 -1.3406  1.9703 -0.6543
   97OSM   H17T 9659   2.371   0.146   9.084  1.7079  0.5192 -2.5457
   97OSM   C18S 9660   2.491   0.011   9.197 -0.1033  0.1568  0.7295
   97OSM   H18S 9661   2.584   0.008   9.257 -1.7213  2.2091  3.4456
   97OSM   H18T 9662   2.492  -0.062   9.113  2.5274  0.2169  0.6478
   97OSM   H18U 9663   2.410  -0.022   9.265 -0.7095 -1.4928 -0.7495
   97OSM    C1F 9664   2.106   0.927  10.622  0.6436  0.1867 -0.4314
   97OSM     OF 9665   2.140   1.043  10.633  0.4045 -0.5211  0.9082
   97OSM    C2F 9666   1.963   0.886  10.599 -0.3905  0.5429 -0.2495
   97OSM    H2F 9667   1.916   0.889  10.700 -0.5077  0.3687 -0.2976
   97OSM    H2G 9668   1.956   0.788  10.547 -2.8555 -0.0780  1.1638
   97OSM    C3F 9669   1.872   0.992  10.524  0.0199 -0.1251  0.0052
   97OSM    H3F 9670   1.879   1.090  10.577 -0.5706  1.5795 -2.9528
   97OSM    H3G 9671   1.770   0.952  10.539 -0.6187  1.2825 -0.5027
   97OSM    C4F 9672   1.908   1.001  10.377  0.4564  0.1157  0.3044
   97OSM    H4F 9673   2.017   1.016  10.361  0.4525 -0.8291 -0.6832
   97OSM    H4G 9674   1.853   1.084  10.327  3.9280  0.2813 -3.5289
   97OSM    C5F 9675   1.860   0.884  10.291  0.2287  0.2803 -0.2110
   97OSM    H5F 9676   1.750   0.894  10.277  0.2222  1.0138  0.3629
   97OSM    H5G 9677   1.876   0.789  10.346  0.5866  1.2814  1.4337
   97OSM    C6F 9678   1.921   0.873  10.146 -0.0860 -0.5335 -0.3318
   97OSM    H6F 9679   1.859   0.792  10.100  2.6269 -1.3420 -2.6926
   97OSM    H6G 9680   2.025   0.835  10.156  0.6447  1.3189 -0.6662
   97OSM    C7F 9681   1.926   1.004  10.069  0.5658 -0.3855  0.0584
   97OSM    H7F 9682   1.994   1.079  10.115 -2.0118  0.3761  2.7426
   97OSM    H7G 9683   1.824   1.047  10.081 -0.1848 -2.2016  0.3627
   97OSM    C8F 9684   1.969   0.985   9.916  0.3835  0.2512  0.8134
   97OSM    H8F 9685   1.943   1.076   9.859  0.4383 -0.4389 -0.3160
   97OSM    H8G 9686   1.916   0.901   9.868  1.0953 -0.0172  0.4896
   97OSM    C9F 9687   2.116   0.947   9.913  0.0722 -0.3770  0.1462
   97OSM    H9F 9688   2.168   0.911  10.003  2.0210 -0.3753 -0.9610
   97OSM   C10F 9689   2.191   0.954   9.800 -0.7152  0.6721  0.4770
   97OSM   H10F 9690   2.298   0.930   9.811 -0.7547  0.0628 -0.4148
   97OSM   C11F 9691   2.161   0.992   9.656 -0.2914 -0.4894 -0.5471
   97OSM   H11F 9692   2.258   1.019   9.609  0.5255 -1.0983  0.7834
   97OSM   H11G 9693   2.104   1.087   9.646  0.8160  0.1028 -1.3915
   97OSM   C12F 9694   2.082   0.874   9.582 -0.2945 -0.9143 -0.9034
   97OSM   H12F 9695   1.981   0.876   9.629 -0.5464  1.8923 -1.4891
   97OSM   H12G 9696   2.124   0.776   9.613 -0.6962 -0.2250  1.9909
   97OSM   C13F 9697   2.088   0.884   9.428  0.6443  0.2049 -0.5612
   97OSM   H13F 9698   2.048   0.980   9.389  0.1359  0.6027  0.9446
   97OSM   H13G 9699   2.026   0.804   9.380 -0.8220  0.0461  1.5228
   97OSM   C14F 9700   2.234   0.865   9.381 -0.8512 -0.2880  0.3128
   97OSM   H14F 9701   2.271   0.770   9.425  0.2036 -1.2188 -2.4913
   97OSM   H14G 9702   2.291   0.953   9.416 -0.1686 -1.4448  2.1860
   97OSM   C15F 9703   2.250   0.848   9.230 -0.0885  0.8138  0.4583
   97OSM   H15F 9704   2.186   0.928   9.186  1.9581  2.5402  0.5454
   97OSM   H15G 9705   2.194   0.755   9.205 -0.0694  0.6184  1.1429
   97OSM   C16F 9706   2.385   0.870   9.173 -0.4946 -0.6493  1.0170
   97OSM   H16F 9707   2.463   0.827   9.239  1.3503  1.7115  0.4236
   97OSM   H16G 9708   2.394   0.980   9.171 -0.1064 -0.6869 -1.0200
   97OSM   C17F 9709   2.405   0.817   9.028  0.3902 -0.0481  0.4891
   97OSM   H17F 9710   2.348   0.871   8.949  1.0515  0.2897  0.2460
   97OSM   H17G 9711   2.354   0.718   9.021 -0.0845  0.3406 -1.9600
   97OSM   C18F 9712   2.551   0.794   8.983  0.2853  0.8131 -0.8443
   97OSM   H18F 9713   2.593   0.702   9.029 -0.2012  0.7655 -0.4850
   97OSM   H18G 9714   2.612   0.883   9.008  0.7674 -0.2401  1.8885
   97OSM   H18H 9715   2.561   0.793   8.873 -2.5918 -1.2453 -1.1532
   98OSM      N 9716   1.816   0.475  11.237 -0.2666  0.8103  0.3351
   98OSM    C15 9717   1.751   0.612  11.218  0.4593 -0.7026  0.2620
   98OSM   H15A 9718   1.776   0.676  11.302 -1.7239  0.6546 -0.0708
   98OSM   H15B 9719   1.643   0.610  11.226  0.1816  4.8975 -0.0450
   98OSM   H15C 9720   1.781   0.657  11.124 -0.8244 -1.1615 -0.3811
   98OSM    C14 9721   1.966   0.494  11.223  0.6826  0.2985 -1.2210
   98OSM   H14A 9722   2.018   0.559  11.292  1.4641  0.2809 -1.7905
   98OSM   H14B 9723   1.993   0.533  11.126 -0.1716  2.1896 -0.7145
   98OSM   H14C 9724   2.015   0.398  11.228  2.2802  1.1182 -0.9302
   98OSM    C13 9725   1.787   0.424  11.369  0.4095 -0.3714 -0.2101
   98OSM   H13A 9726   1.811   0.501  11.440 -0.8288  1.1377 -1.3685
   98OSM   H13B 9727   1.846   0.336  11.388 -1.4646 -1.5403  0.2871
   98OSM   H13C 9728   1.680   0.410  11.373  0.1510  0.7801 -2.0692
   98OSM    C12 9729   1.768   0.378  11.128 -0.2073  0.4773 -0.7291
   98OSM   H12A 9730   1.797   0.425  11.035  2.0614 -1.8201 -1.2495
   98OSM   H12B 9731   1.661   0.382  11.142  0.2156  1.8496  2.6618
   98OSM    C11 9732   1.818   0.228  11.133 -0.1011  0.4909  0.2795
   98OSM   H11A 9733   1.761   0.174  11.055  0.3100  1.7202 -0.9088
   98OSM   H11B 9734   1.786   0.195  11.234  0.9763  0.1507  0.5160
   98OSM      P 9735   2.042   0.209  10.991 -0.3084  0.3511 -0.0857
   98OSM    O13 9736   2.052   0.345  10.938 -0.3136  0.5813 -0.3083
   98OSM    O14 9737   2.165   0.133  11.022 -0.1858  0.0850 -0.1168
   98OSM    O11 9738   1.947   0.118  10.914 -0.0658  0.3814  0.0752
   98OSM    O12 9739   1.960   0.212  11.127 -0.8373 -0.5815  0.0207
   98OSM    C1S 9740   1.883   0.162  10.789  0.0444  0.1951 -0.3616
   98OSM    H1S 9741   1.925   0.259  10.755  0.4841  1.3875  3.3495
   98OSM    H1T 9742   1.778   0.183  10.816 -0.1171 -2.4875  1.2854
   98OSM     NF 9743   1.798   0.101  10.575  0.2938 -0.9464  0.3350
   98OSM    HNF 9744   1.712   0.051  10.563  0.2395 -0.5418 -1.0673
   98OSM    C2S 9745   1.879   0.052  10.678 -0.7971  0.3080  0.6037
   98OSM    H2S 9746   1.982   0.043  10.635 -1.2071 -1.4197 -0.0408
   98OSM    C3S 9747   1.844  -0.094  10.725 -0.6108 -0.2356  0.0460
   98OSM    H3S 9748   1.739  -0.087  10.760 -0.3141 -0.1358  0.9248
   98OSM     O3 9749   1.924  -0.143  10.830 -0.5973  0.9311  0.1958
   98OSM    HO3 9750   1.977  -0.063  10.836  0.7946 -0.0443  1.3559
   98OSM    C4S 9751   1.841  -0.195  10.601 -0.3279 -0.2943 -0.0116
   98OSM    H4S 9752   1.749  -0.208  10.542 -1.0534  0.4130  0.9620
   98OSM    C5S 9753   1.958  -0.249  10.552 -0.5878 -0.5718  0.3167
   98OSM    H5S 9754   2.057  -0.216  10.587 -0.3538  1.8251 -2.4348
   98OSM    C6S 9755   1.983  -0.325  10.421 -0.0561  0.3643 -0.0492
   98OSM    H6S 9756   1.996  -0.432  10.450 -1.1381  0.4175  0.6721
   98OSM    H6T 9757   2.077  -0.285  10.376  0.7984  1.3549  2.5066
   98OSM    C7S 9758   1.880  -0.301  10.309  0.3169  0.5707 -0.2282
   98OSM    H7S 9759   1.866  -0.194  10.282  0.2512  0.2867 -1.3193
   98OSM    H7T 9760   1.780  -0.336  10.343  1.2098  0.3159  2.2908
   98OSM    C8S 9761   1.891  -0.375  10.176 -0.2520  0.4579 -0.1508
   98OSM    H8S 9762   1.906  -0.484  10.186  1.0631  0.5381 -1.0338
   98OSM    H8T 9763   1.985  -0.343  10.126  1.6194 -1.0622  2.2761
   98OSM    C9S 9764   1.773  -0.349  10.086 -0.2350 -0.6495  0.3350
   98OSM    H9S 9765   1.767  -0.240  10.068  0.8181 -0.2060  2.5716
   98OSM    H9T 9766   1.671  -0.370  10.125 -1.1034  1.5666 -0.6337
   98OSM   C10S 9767   1.774  -0.416   9.949 -0.8670 -0.0777  0.0035
   98OSM   H10S 9768   1.743  -0.522   9.954  1.6544 -0.7714  1.2386
   98OSM   H10T 9769   1.872  -0.412   9.898 -0.5850  2.8774  0.6779
   98OSM   C11S 9770   1.662  -0.328   9.866 -0.5725 -0.5647  0.6566
   98OSM   H11S 9771   1.698  -0.223   9.875 -1.0992 -0.5439  3.1120
   98OSM   H11T 9772   1.564  -0.320   9.917 -0.8216  2.1730 -0.1514
   98OSM   C12S 9773   1.642  -0.368   9.712  0.4243  0.7764 -0.2462
   98OSM   H12S 9774   1.618  -0.475   9.699  0.1704  0.6458  1.1348
   98OSM   H12T 9775   1.730  -0.332   9.655  0.1808  2.6418  0.5171
   98OSM   C13S 9776   1.531  -0.280   9.652  0.0807  0.2251  0.0825
   98OSM   H13S 9777   1.551  -0.178   9.692  2.2046  0.6729 -2.0684
   98OSM   H13T 9778   1.432  -0.314   9.690 -0.7470  2.4806  0.0182
   98OSM   C14S 9779   1.532  -0.284   9.494  0.3421 -0.2958  0.0083
   98OSM   H14S 9780   1.626  -0.246   9.449  0.2955 -0.5054 -0.2644
   98OSM   H14T 9781   1.452  -0.213   9.462  1.7141  2.2317  1.9609
   98OSM   C15S 9782   1.477  -0.413   9.441 -0.4109 -0.4249 -0.0899
   98OSM   H15S 9783   1.382  -0.438   9.494  0.3711 -1.6752  0.7408
   98OSM   H15T 9784   1.550  -0.495   9.461  3.1306  2.3091 -1.3601
   98OSM   C16S 9785   1.449  -0.400   9.289 -0.4603 -0.5530 -0.2950
   98OSM   H16S 9786   1.399  -0.495   9.261  1.4699 -1.7914  0.3499
   98OSM   H16T 9787   1.552  -0.379   9.251  0.7647 -0.8987  2.7146
   98OSM   C17S 9788   1.353  -0.284   9.250 -0.7232  0.4831  0.4532
   98OSM   H17S 9789   1.389  -0.183   9.281  1.2048 -0.5213  1.5783
   98OSM   H17T 9790   1.262  -0.301   9.313 -0.2164  0.0610  1.0873
   98OSM   C18S 9791   1.327  -0.284   9.098 -0.4205 -0.1840  0.1661
   98OSM   H18S 9792   1.402  -0.231   9.036  0.8753 -0.5680  1.3658
   98OSM   H18T 9793   1.227  -0.242   9.073 -0.6257 -0.3426  0.7144
   98OSM   H18U 9794   1.323  -0.388   9.059  2.1649 -1.3171  2.7213
   98OSM    C1F 9795   1.821   0.207  10.502 -0.6304  0.6243 -1.0953
   98OSM     OF 9796   1.926   0.264  10.510 -0.1352 -0.2699  0.0563
   98OSM    C2F 9797   1.703   0.259  10.422 -0.5965  0.0052  0.6097
   98OSM    H2F 9798   1.637   0.318  10.489 -1.4288  1.1650 -1.2003
   98OSM    H2G 9799   1.638   0.174  10.393  0.4092  0.1581 -2.1769
   98OSM    C3F 9800   1.755   0.351  10.312 -0.0697 -0.5219 -0.1935
   98OSM    H3F 9801   1.838   0.316  10.247  1.6379  2.3689  0.3669
   98OSM    H3G 9802   1.801   0.437  10.366 -0.2229 -1.0724  0.8182
   98OSM    C4F 9803   1.639   0.391  10.221 -0.1477  0.0124 -0.3034
   98OSM    H4F 9804   1.573   0.446  10.291 -1.3937 -0.3966 -1.1510
   98OSM    H4G 9805   1.589   0.300  10.183  0.0937 -0.0603 -0.4501
   98OSM    C5F 9806   1.687   0.489  10.113 -0.8685 -0.1166 -0.8180
   98OSM    H5F 9807   1.769   0.432  10.064  2.0655  0.6709  2.9089
   98OSM    H5G 9808   1.725   0.579  10.166 -2.0391 -0.8552  1.3200
   98OSM    C6F 9809   1.576   0.524  10.012  0.1241 -0.1297  0.3306
   98OSM    H6F 9810   1.476   0.544  10.056  0.9829  2.0406  1.3428
   98OSM    H6G 9811   1.569   0.448   9.931 -1.5177  0.9707 -0.5925
   98OSM    C7F 9812   1.614   0.661   9.945 -0.5800  0.6735 -0.0575
   98OSM    H7F 9813   1.656   0.729  10.022  0.5171 -1.4276  1.2401
   98OSM    H7G 9814   1.522   0.699   9.894 -0.6913  1.8003  0.9651
   98OSM    C8F 9815   1.707   0.641   9.820 -0.5454 -0.1886  0.2502
   98OSM    H8F 9816   1.800   0.595   9.860  0.7790 -0.2621 -2.7829
   98OSM    H8G 9817   1.732   0.747   9.797  0.8826 -0.9330 -1.7961
   98OSM    C9F 9818   1.662   0.581   9.688 -0.3274 -0.1018  0.3895
   98OSM    H9F 9819   1.557   0.548   9.691  0.4230 -2.4972  1.4641
   98OSM   C10F 9820   1.738   0.542   9.588  0.4683 -0.3787  0.7540
   98OSM   H10F 9821   1.690   0.485   9.507  0.4647 -0.3570  0.7406
   98OSM   C11F 9822   1.886   0.551   9.575  0.4874 -0.5580  1.4770
   98OSM   H11F 9823   1.919   0.574   9.679 -0.2834  0.1667  1.5704
   98OSM   H11G 9824   1.910   0.640   9.512  0.4420 -1.5042  0.1119
   98OSM   C12F 9825   1.957   0.427   9.523 -0.3879  0.8022 -0.1165
   98OSM   H12F 9826   1.930   0.335   9.579 -1.3361  0.1482 -1.6430
   98OSM   H12G 9827   2.067   0.441   9.538 -0.4510 -0.3832  1.5621
   98OSM   C13F 9828   1.940   0.413   9.369  0.5972 -0.0212 -0.5685
   98OSM   H13F 9829   1.830   0.407   9.351  0.7483 -0.8767 -1.2440
   98OSM   H13G 9830   1.983   0.318   9.330 -0.0023 -1.4332  2.0415
   98OSM   C14F 9831   1.989   0.521   9.270  0.2317 -0.2457 -0.0424
   98OSM   H14F 9832   2.091   0.556   9.294  0.3016  0.0792 -0.8008
   98OSM   H14G 9833   1.923   0.610   9.280 -1.4445 -1.7007  2.4337
   98OSM   C15F 9834   2.002   0.461   9.128  0.0520 -0.0930  0.2214
   98OSM   H15F 9835   1.923   0.388   9.103 -0.2088  0.3845 -0.3495
   98OSM   H15G 9836   2.095   0.400   9.127  0.0069 -0.1766  0.9290
   98OSM   C16F 9837   2.011   0.547   9.007 -0.6390  0.6336 -0.5328
   98OSM   H16F 9838   2.089   0.626   9.016  0.8562 -0.7478 -1.0690
   98OSM   H16G 9839   1.913   0.594   8.984 -1.7651 -1.2665  0.2765
   98OSM   C17F 9840   2.065   0.455   8.888 -0.2065  0.1844 -0.0543
   98OSM   H17F 9841   2.018   0.490   8.794 -3.7795 -1.8347  0.8621
   98OSM   H17G 9842   2.014   0.359   8.913 -2.7665  1.2112 -1.1162
   98OSM   C18F 9843   2.213   0.450   8.876  0.1835 -0.2717 -0.5761
   98OSM   H18F 9844   2.242   0.383   8.793 -0.3985 -0.1647 -0.8684
   98OSM   H18G 9845   2.247   0.413   8.976  1.0168 -1.0809 -1.1563
   98OSM   H18H 9846   2.257   0.550   8.860  1.5493 -0.9381 -1.0768
   99OSM      N 9847   4.756   1.415  10.796 -0.4936 -0.4668 -0.2960
   99OSM    C15 9848   4.708   1.285  10.850  0.3255  0.2889  0.8271
   99OSM   H15A 9849   4.784   1.209  10.849 -0.8100 -0.9117 -3.5597
   99OSM   H15B 9850   4.631   1.244  10.786  2.5306 -2.5107 -0.1318
   99OSM   H15C 9851   4.648   1.307  10.937 -0.0061  3.1102 -0.0490
   99OSM    C14 9852   4.852   1.472  10.894  0.2031  0.0145 -0.3773
   99OSM   H14A 9853   4.802   1.490  10.988 -3.7707 -2.4923 -1.9042
   99OSM   H14B 9854   4.881   1.564  10.845 -1.0100 -0.5642 -2.2447
   99OSM   H14C 9855   4.948   1.421  10.900  0.1047 -0.0657  0.5862
   99OSM    C13 9856   4.814   1.394  10.664  0.2352  0.4454  0.4684
   99OSM   H13A 9857   4.734   1.370  10.595  0.7523 -0.3738  0.1526
   99OSM   H13B 9858   4.880   1.309  10.663 -0.1162  0.1742  0.7597
   99OSM   H13C 9859   4.848   1.488  10.622 -1.9565 -0.4714 -3.6209
   99OSM    C12 9860   4.641   1.525  10.775  0.0996 -0.5762 -0.6643
   99OSM   H12A 9861   4.703   1.608  10.747 -2.1366  1.2145 -0.3811
   99OSM   H12B 9862   4.585   1.542  10.866 -0.9953 -2.5003 -0.9500
   99OSM    C11 9863   4.538   1.492  10.663 -0.4895  0.3449 -0.6865
   99OSM   H11A 9864   4.601   1.465  10.575 -0.3020 -2.6220  0.2762
   99OSM   H11B 9865   4.466   1.572  10.637 -0.8881  0.5330  0.9828
   99OSM      P 9866   4.340   1.400  10.793  0.0138  0.0607 -0.0680
   99OSM    O13 9867   4.309   1.285  10.879  0.2457 -0.0901 -0.7084
   99OSM    O14 9868   4.359   1.537  10.852  0.0708  0.1582  0.0805
   99OSM    O11 9869   4.216   1.413  10.690  0.3661  0.2000  0.1864
   99OSM    O12 9870   4.465   1.376  10.699 -0.0734  0.3774  0.5252
   99OSM    C1S 9871   4.220   1.430  10.546 -0.8299  0.1564  0.3407
   99OSM    H1S 9872   4.323   1.414  10.509  0.5311 -0.2061  4.0163
   99OSM    H1T 9873   4.189   1.533  10.518 -3.4319 -1.0209 -1.2831
   99OSM     NF 9874   4.116   1.335  10.346  0.2955 -0.1402  0.2063
   99OSM    HNF 9875   4.049   1.376  10.285  2.9350 -0.0150 -2.7632
   99OSM    C2S 9876   4.109   1.338  10.489 -0.4059 -0.4770 -0.3295
   99OSM    H2S 9877   4.143   1.237  10.519  1.9152  0.9002  1.8828
   99OSM    C3S 9878   3.959   1.375  10.535 -0.0869  0.6158  0.3644
   99OSM    H3S 9879   3.934   1.473  10.488  2.7935  0.9186 -0.6387
   99OSM     O3 9880   3.936   1.393  10.674 -0.0389  0.5400 -0.3428
   99OSM    HO3 9881   4.024   1.376  10.707 -0.5658 -2.0238 -0.1982
   99OSM    C4S 9882   3.865   1.268  10.476 -0.2448 -0.4917  0.2392
   99OSM    H4S 9883   3.785   1.311  10.414  0.6846 -1.5484 -1.7566
   99OSM    C5S 9884   3.859   1.136  10.503 -0.6276 -0.2556  0.0300
   99OSM    H5S 9885   3.945   1.089  10.553 -0.8573 -0.4402  0.2492
   99OSM    C6S 9886   3.756   1.041  10.449 -0.2714  0.1419  0.0496
   99OSM    H6S 9887   3.669   1.084  10.396  0.5464 -1.3775 -2.6234
   99OSM    H6T 9888   3.702   0.990  10.532 -0.8427 -1.0757 -1.0602
   99OSM    C7S 9889   3.822   0.930  10.364  0.1765 -0.4219  0.0612
   99OSM    H7S 9890   3.732   0.876  10.328 -0.1626 -1.4269  2.3574
   99OSM    H7T 9891   3.876   0.849  10.417  0.9160  1.7807  2.7689
   99OSM    C8S 9892   3.889   0.982  10.230 -0.2567  0.2319 -0.0277
   99OSM    H8S 9893   3.985   1.023  10.269 -0.2869 -0.7633  1.1341
   99OSM    H8T 9894   3.826   1.054  10.175 -3.0159 -1.9648  0.1490
   99OSM    C9S 9895   3.921   0.864  10.136 -0.1185 -0.0362 -0.3978
   99OSM    H9S 9896   3.945   0.772  10.193  0.6044  1.8488  2.4182
   99OSM    H9T 9897   4.015   0.890  10.083 -0.9934  0.8042 -1.5591
   99OSM   C10S 9898   3.825   0.840  10.017  0.0661 -0.0866  0.0470
   99OSM   H10S 9899   3.805   0.932   9.957 -0.1508  0.2235  0.5926
   99OSM   H10T 9900   3.723   0.808  10.048  0.3070  0.3532  1.3204
   99OSM   C11S 9901   3.880   0.735   9.913  0.4957 -0.1255 -0.4706
   99OSM   H11S 9902   3.904   0.646   9.977  1.7682  1.1948  0.9507
   99OSM   H11T 9903   3.969   0.773   9.859  0.1318  0.3526 -0.7281
   99OSM   C12S 9904   3.779   0.700   9.814  0.0031 -0.4883  0.8766
   99OSM   H12S 9905   3.674   0.691   9.847 -1.3094  1.8916 -2.4354
   99OSM   H12T 9906   3.764   0.783   9.742 -0.9868 -2.2576 -1.0331
   99OSM   C13S 9907   3.809   0.573   9.733 -0.3916  0.1717  0.5909
   99OSM   H13S 9908   3.717   0.519   9.701 -0.7408  0.8669  0.4048
   99OSM   H13T 9909   3.876   0.502   9.785 -0.8902 -0.8921 -0.1946
   99OSM   C14S 9910   3.882   0.605   9.602 -0.1162 -0.3937 -0.1432
   99OSM   H14S 9911   3.970   0.669   9.625  0.2479 -2.0570  3.3337
   99OSM   H14T 9912   3.803   0.659   9.546  1.6542 -0.4412 -2.7594
   99OSM   C15S 9913   3.930   0.482   9.532 -1.2395  0.4751  0.0181
   99OSM   H15S 9914   3.844   0.416   9.510 -0.8341 -0.2358  0.5564
   99OSM   H15T 9915   4.006   0.425   9.589  0.0185  1.6301 -0.4662
   99OSM   C16S 9916   3.986   0.519   9.395 -0.3577  0.0887 -0.0173
   99OSM   H16S 9917   4.080   0.578   9.403  2.0726 -3.6395  0.0195
   99OSM   H16T 9918   3.914   0.583   9.339 -0.5671  0.9279  1.1860
   99OSM   C17S 9919   4.017   0.401   9.317 -0.0015 -0.0922  0.3956
   99OSM   H17S 9920   3.922   0.354   9.285 -0.4900  0.6597  0.7500
   99OSM   H17T 9921   4.066   0.324   9.381  0.8186 -0.3561 -0.5280
   99OSM   C18S 9922   4.098   0.430   9.189 -0.2928 -0.5024 -0.1829
   99OSM   H18S 9923   4.185   0.497   9.199 -1.8555  1.5774 -0.1550
   99OSM   H18T 9924   4.030   0.471   9.111  1.0633 -0.1796 -1.2098
   99OSM   H18U 9925   4.139   0.331   9.157  0.9472  0.6276 -2.1655
   99OSM    C1F 9926   4.220   1.277  10.283 -0.2076 -0.1117  0.9963
   99OSM     OF 9927   4.319   1.225  10.334 -0.2202  0.0627  0.1315
   99OSM    C2F 9928   4.202   1.286  10.130  0.3230 -1.3411  0.4500
   99OSM    H2F 9929   4.284   1.341  10.078 -3.2553  1.0766 -2.8851
   99OSM    H2G 9930   4.104   1.331  10.106  0.7172 -0.5200  0.3686
   99OSM    C3F 9931   4.191   1.145  10.060  0.3390 -0.8834 -0.5535
   99OSM    H3F 9932   4.271   1.073  10.091  1.3933  0.0037 -1.1722
   99OSM    H3G 9933   4.097   1.096  10.092 -0.3128 -0.3969 -1.7324
   99OSM    C4F 9934   4.194   1.163   9.903  0.2683  0.2174  0.0218
   99OSM    H4F 9935   4.300   1.180   9.873 -0.2249 -0.0374 -1.9760
   99OSM    H4G 9936   4.149   1.261   9.877 -2.1461 -0.6535  0.8249
   99OSM    C5F 9937   4.145   1.040   9.828 -0.1050  0.5433  0.4217
   99OSM    H5F 9938   4.035   1.036   9.837 -0.1851 -0.7431 -0.8506
   99OSM    H5G 9939   4.190   0.949   9.873  0.4705  1.4689  1.7188
   99OSM    C6F 9940   4.188   1.045   9.680 -0.1097 -0.3355  0.3709
   99OSM    H6F 9941   4.298   1.040   9.685 -0.1474 -1.3092  0.3194
   99OSM    H6G 9942   4.158   1.146   9.644 -1.2691 -0.8209 -0.0604
   99OSM    C7F 9943   4.127   0.937   9.601 -0.2808  0.5819 -0.5767
   99OSM    H7F 9944   4.025   0.908   9.634  0.5451 -0.2427  1.3561
   99OSM    H7G 9945   4.179   0.839   9.611 -1.2964  0.0768 -0.0929
   99OSM    C8F 9946   4.109   0.967   9.450 -0.0510 -0.1146 -0.2187
   99OSM    H8F 9947   4.209   0.962   9.402  0.2130  0.0834  0.3171
   99OSM    H8G 9948   4.072   1.072   9.436  2.4058  0.6419 -1.2188
   99OSM    C9F 9949   4.030   0.858   9.374 -0.2497  0.0661 -0.4002
   99OSM    H9F 9950   3.991   0.786   9.447 -0.2565 -1.5041 -1.9094
   99OSM   C10F 9951   4.036   0.842   9.239 -0.1488 -0.3143 -0.0194
   99OSM   H10F 9952   3.981   0.760   9.191  2.0466 -1.4144 -0.7331
   99OSM   C11F 9953   4.108   0.932   9.142 -0.5118 -0.7973  0.6920
   99OSM   H11F 9954   4.189   0.982   9.200 -1.0885  0.5181  0.3824
   99OSM   H11G 9955   4.043   1.019   9.120  0.8316 -0.3650 -1.7102
   99OSM   C12F 9956   4.177   0.879   9.015 -0.1723  0.0516 -1.1738
   99OSM   H12F 9957   4.264   0.811   9.026 -0.7699 -0.5468 -0.1196
   99OSM   H12G 9958   4.225   0.971   8.974  1.4590 -0.0334  0.4666
   99OSM   C13F 9959   4.088   0.825   8.901 -0.8341 -0.7426  0.0241
   99OSM   H13F 9960   4.023   0.744   8.940 -1.0211 -1.0924 -1.0052
   99OSM   H13G 9961   4.149   0.773   8.825  1.0064  0.8473  0.3489
   99OSM   C14F 9962   4.007   0.939   8.843  0.3130  0.0052 -0.0137
   99OSM   H14F 9963   4.084   1.018   8.826  1.9883 -1.6517 -0.2748
   99OSM   H14G 9964   3.934   0.961   8.924  0.6108  0.0189  0.2525
   99OSM   C15F 9965   3.931   0.901   8.710 -0.6356 -0.5013 -0.6655
   99OSM   H15F 9966   3.869   0.809   8.721 -0.3440 -0.8722 -2.0636
   99OSM   H15G 9967   4.002   0.881   8.627  0.3118 -0.6492  0.1824
   99OSM   C16F 9968   3.839   1.024   8.675 -0.3942  0.1650  0.4003
   99OSM   H16F 9969   3.903   1.113   8.659 -0.8535  0.1752 -1.4341
   99OSM   H16G 9970   3.762   1.057   8.748 -2.6642  0.4752 -2.0523
   99OSM   C17F 9971   3.757   0.998   8.550  0.0770  0.2153 -0.3232
   99OSM   H17F 9972   3.683   0.916   8.557 -0.7207  0.9198 -0.4809
   99OSM   H17G 9973   3.830   0.969   8.471  1.0474 -2.0076  1.3246
   99OSM   C18F 9974   3.667   1.120   8.518  0.0852 -0.1731 -0.0985
   99OSM   H18F 9975   3.736   1.203   8.493  1.9188 -1.8152 -0.6120
   99OSM   H18G 9976   3.592   1.142   8.596 -0.8644 -2.6323 -0.2763
   99OSM   H18H 9977   3.613   1.096   8.423  0.2248  2.7687 -0.9653
  100OSM      N 9978   6.122   1.948  11.017 -0.4931  0.0610 -0.0293
  100OSM    C15 9979   6.263   1.993  11.032  0.2922 -0.1698  0.4725
  100OSM   H15A 9980   6.279   2.046  11.125 -2.4995 -0.8893  1.4296
  100OSM   H15B 9981   6.296   2.062  10.957 -0.3460  0.2018  0.5277
  100OSM   H15C 9982   6.326   1.905  11.035  1.1573  0.4877  2.7503
  100OSM    C14 9983   6.082   1.870  11.139  0.3666  0.1180 -0.2539
  100OSM   H14A 9984   6.159   1.797  11.160  2.5000  2.3653  0.0379
  100OSM   H14B 9985   5.986   1.824  11.119  0.4200 -0.7360  1.3836
  100OSM   H14C 9986   6.057   1.938  11.219 -1.7521  0.6161 -1.3014
  100OSM    C13 9987   6.041   2.073  11.016 -0.1664 -0.5165 -0.4005
  100OSM   H13A 9988   6.077   2.146  10.945  0.4595 -0.4109  0.0159
  100OSM   H13B 9989   6.068   2.126  11.106 -3.5551  2.3303 -0.9686
  100OSM   H13C 9990   5.936   2.056  10.997  0.2506 -1.4495 -2.0618
  100OSM    C12 9991   6.090   1.858  10.887 -0.4172 -0.6018 -0.2745
  100OSM   H12A 9992   6.099   1.915  10.796 -0.5821 -0.7631 -0.3913
  100OSM   H12B 9993   5.987   1.824  10.890 -0.3751 -0.6382  2.5129
  100OSM    C11 9994   6.173   1.734  10.872 -0.3120 -0.4161  0.3221
  100OSM   H11A 9995   6.279   1.751  10.899  0.1196 -2.3576 -0.1080
  100OSM   H11B 9996   6.175   1.687  10.772  1.3711 -0.2805  0.2796
  100OSM      P 9997   6.001   1.550  10.954 -0.2162 -0.1531  0.1661
  100OSM    O13 9998   6.028   1.412  11.002 -0.2836 -0.2478 -0.3790
  100OSM    O14 9999   5.886   1.613  11.019 -0.3436  0.1856 -0.1300
  100OSM    O1110000   5.973   1.555  10.796 -0.8215 -0.6689  0.1787
  100OSM    O1210001   6.128   1.642  10.971  0.1401  0.5651 -0.1355
  100OSM    C1S10002   6.034   1.461  10.704  0.0838 -0.3793  0.3760
  100OSM    H1S10003   5.989   1.359  10.714 -0.0106 -0.4142 -0.3504
  100OSM    H1T10004   6.144   1.460  10.712  0.2067 -1.4095 -1.2342
  100OSM     NF10005   6.062   1.414  10.455 -0.3867  0.5048  0.2691
  100OSM    HNF10006   6.143   1.450  10.411 -0.9781 -0.1496 -1.3712
  100OSM    C2S10007   6.001   1.499  10.562  0.2126 -0.4315  0.5030
  100OSM    H2S10008   5.890   1.491  10.562  0.2909 -2.1854 -2.6805
  100OSM    C3S10009   6.037   1.644  10.529  0.1750  0.1908 -0.3671
  100OSM    H3S10010   6.147   1.659  10.531  0.1884  0.2974 -1.5538
  100OSM     O310011   5.976   1.739  10.623  0.0258  0.1568  0.2882
  100OSM    HO310012   5.945   1.677  10.690  0.6538 -0.8891 -0.3794
  100OSM    C4S10013   5.989   1.684  10.395  0.2810 -0.5023 -0.3859
  100OSM    H4S10014   5.882   1.711  10.391  0.6863  1.1142 -0.6438
  100OSM    C5S10015   6.056   1.697  10.282 -0.4665 -0.3250  0.5802
  100OSM    H5S10016   6.166   1.687  10.287 -0.0678  2.1426 -1.8822
  100OSM    C6S10017   5.976   1.725  10.159  0.6969  0.3950  0.2586
  100OSM    H6S10018   6.018   1.811  10.102 -2.7123  2.1346  0.2458
  100OSM    H6T10019   5.874   1.755  10.190 -0.3755 -0.8836 -1.9380
  100OSM    C7S10020   5.960   1.611  10.062 -0.4730  0.7713 -0.5320
  100OSM    H7S10021   5.942   1.513  10.112  0.5781 -0.2790 -2.1839
  100OSM    H7T10022   6.063   1.599  10.024 -0.6473 -0.5254 -0.6134
  100OSM    C8S10023   5.855   1.635   9.952 -0.3313 -0.2206 -0.0910
  100OSM    H8S10024   5.896   1.711   9.883 -0.8398 -1.0352 -1.3158
  100OSM    H8T10025   5.758   1.677   9.985  0.2974  3.4785 -2.6709
  100OSM    C9S10026   5.835   1.504   9.875 -0.1281  0.3015 -0.2959
  100OSM    H9S10027   5.806   1.432   9.955  1.5879  0.0178  0.0838
  100OSM    H9T10028   5.937   1.477   9.841 -0.1124 -3.2096  2.1733
  100OSM   C10S10029   5.727   1.518   9.766  0.3065  0.3695 -0.4461
  100OSM   H10S10030   5.652   1.584   9.814 -0.5514 -0.0447 -1.2071
  100OSM   H10T10031   5.690   1.415   9.747  1.4171 -0.2792  0.8029
  100OSM   C11S10032   5.776   1.582   9.634  0.9087  0.8092  0.3723
  100OSM   H11S10033   5.783   1.692   9.645  0.2939  0.7507  1.4186
  100OSM   H11T10034   5.703   1.566   9.552  2.3196  0.3769 -0.8310
  100OSM   C12S10035   5.904   1.520   9.575  0.3340 -0.3824 -1.3367
  100OSM   H12S10036   5.926   1.424   9.627 -2.7604 -1.4885 -1.9956
  100OSM   H12T10037   5.996   1.581   9.592 -0.0134 -0.2946  0.3455
  100OSM   C13S10038   5.892   1.490   9.425  0.0121 -0.4299  0.8728
  100OSM   H13S10039   5.826   1.404   9.402  0.8201 -1.7393  3.3209
  100OSM   H13T10040   5.994   1.464   9.392 -0.4072 -0.2262 -0.6175
  100OSM   C14S10041   5.849   1.609   9.338  0.3814  0.9205  0.1742
  100OSM   H14S10042   5.889   1.699   9.389  1.8598 -0.1168  0.8713
  100OSM   H14T10043   5.740   1.624   9.324  0.9314  3.1018 -2.0968
  100OSM   C15S10044   5.911   1.604   9.196  0.5361  0.8628 -0.1764
  100OSM   H15S10045   6.022   1.604   9.206  0.6806  2.1136 -1.6419
  100OSM   H15T10046   5.868   1.686   9.135 -1.8183  0.3703  0.7829
  100OSM   C16S10047   5.852   1.482   9.127 -0.0765  1.1430  0.3153
  100OSM   H16S10048   5.744   1.469   9.150 -0.1650 -0.2313 -0.7900
  100OSM   H16T10049   5.897   1.384   9.155  1.8405  2.0961  0.6192
  100OSM   C17S10050   5.840   1.490   8.976  0.6891 -0.6438  0.4119
  100OSM   H17S10051   5.792   1.588   8.951 -0.6659 -1.5740 -0.7244
  100OSM   H17T10052   5.770   1.411   8.943 -1.2052  2.0136 -2.2189
  100OSM   C18S10053   5.968   1.498   8.892  0.5533 -0.6246  0.6796
  100OSM   H18S10054   6.036   1.567   8.947  0.8110 -0.5769  0.3044
  100OSM   H18T10055   5.940   1.545   8.796 -0.1388  0.9652  1.6325
  100OSM   H18U10056   6.029   1.407   8.878  3.8182  1.9096 -2.5768
  100OSM    C1F10057   6.018   1.291  10.428 -0.4540  0.2453  0.3462
  100OSM     OF10058   5.957   1.228  10.503 -0.1689  0.6282 -0.0549
  100OSM    C2F10059   6.054   1.239  10.289  0.1752  0.5916 -0.5984
  100OSM    H2F10060   6.155   1.194  10.297 -1.0033 -2.0934 -0.4666
  100OSM    H2G10061   6.046   1.327  10.222  0.0479  0.6307 -0.5295
  100OSM    C3F10062   5.949   1.139  10.238 -0.1101 -0.0210 -0.1247
  100OSM    H3F10063   5.847   1.183  10.245  0.1896  0.7025 -0.2297
  100OSM    H3G10064   5.956   1.047  10.300 -0.7036  0.6381  0.9377
  100OSM    C4F10065   5.977   1.067  10.099 -0.1531  0.4036 -0.8252
  100OSM    H4F10066   5.916   0.976  10.115  1.4250 -0.4504  0.3367
  100OSM    H4G10067   6.082   1.034  10.086 -0.2075 -0.0486 -0.0890
  100OSM    C5F10068   5.913   1.132   9.970  0.0994 -0.2196  0.3213
  100OSM    H5F10069   5.972   1.222   9.943 -2.0924  0.9365 -0.6869
  100OSM    H5G10070   5.815   1.166  10.007 -0.2104  1.8623 -2.3135
  100OSM    C6F10071   5.902   1.035   9.851 -0.2555  0.3002  0.0839
  100OSM    H6F10072   5.858   0.940   9.886 -0.0854  0.5512  0.9977
  100OSM    H6G10073   5.999   1.006   9.805 -0.2908  1.5351 -0.7790
  100OSM    C7F10074   5.816   1.097   9.745  0.0450 -0.5738  0.2722
  100OSM    H7F10075   5.864   1.195   9.721 -1.6008  0.6740  1.9565
  100OSM    H7G10076   5.721   1.123   9.796 -0.6990 -0.0707 -1.3361
  100OSM    C8F10077   5.782   1.008   9.624 -0.0621 -0.0758  0.7922
  100OSM    H8F10078   5.739   0.912   9.660  1.1869 -0.8844  0.1689
  100OSM    H8G10079   5.875   0.987   9.566  0.4365 -1.5040  2.0749
  100OSM    C9F10080   5.671   1.070   9.540 -0.8004  0.4349  0.1468
  100OSM    H9F10081   5.587   1.112   9.596 -1.2138 -0.5859  0.2976
  100OSM   C10F10082   5.671   1.076   9.404 -1.1570  0.7170 -0.3080
  100OSM   H10F10083   5.590   1.129   9.352  1.5638  0.3223 -5.3012
  100OSM   C11F10084   5.784   1.014   9.318  0.4298  0.0305 -0.6489
  100OSM   H11F10085   5.742   0.984   9.219 -1.2749  1.6573 -0.4316
  100OSM   H11G10086   5.839   0.930   9.367  2.9467  3.0156  1.8054
  100OSM   C12F10087   5.905   1.111   9.293 -0.2829  0.3735  0.1034
  100OSM   H12F10088   5.949   1.136   9.392 -0.0957 -0.4720  0.2375
  100OSM   H12G10089   5.871   1.209   9.254 -0.9185 -0.3663 -1.2384
  100OSM   C13F10090   6.025   1.050   9.215 -0.1904 -0.1985  0.6061
  100OSM   H13F10091   6.040   0.943   9.241 -1.1416  0.1952  2.9193
  100OSM   H13G10092   6.121   1.090   9.253 -0.5770  1.6357 -0.2765
  100OSM   C14F10093   6.025   1.079   9.068  0.7685  0.3632  0.4743
  100OSM   H14F10094   6.009   1.186   9.045  0.5395 -0.0592 -1.4820
  100OSM   H14G10095   5.941   1.018   9.027 -0.7428  1.4074  1.9469
  100OSM   C15F10096   6.150   1.034   8.997 -0.9825  0.1272  0.5407
  100OSM   H15F10097   6.140   0.924   8.986 -0.0352  0.0634  0.2709
  100OSM   H15G10098   6.240   1.048   9.061 -0.8144 -3.0930  1.0744
  100OSM   C16F10099   6.171   1.090   8.860  0.4694 -0.0133  0.4367
  100OSM   H16F10100   6.257   1.047   8.805 -0.3046 -1.5343  0.3712
  100OSM   H16G10101   6.180   1.200   8.868 -1.8964  0.3221 -0.8432
  100OSM   C17F10102   6.055   1.050   8.769  0.0442 -0.6602 -0.2749
  100OSM   H17F10103   5.968   1.119   8.767  1.5132  1.2802  1.4704
  100OSM   H17G10104   6.005   0.953   8.790  0.3781 -0.7634  0.0586
  100OSM   C18F10105   6.098   1.039   8.624  0.2390  0.0418 -0.7794
  100OSM   H18F10106   6.131   1.142   8.598  1.1653 -0.6627 -2.5029
  100OSM   H18G10107   6.010   1.005   8.565  0.0063  4.0113 -2.8572
  100OSM   H18H10108   6.182   0.966   8.621  0.5692  0.3264  1.1736
  101OSM      N10109   1.255   1.764  11.022 -0.5621  0.1875  0.2984
  101OSM    C1510110   1.244   1.908  11.047  0.9736  0.3053  0.4235
  101OSM   H15A10111   1.162   1.944  10.987  2.5397 -0.6871 -2.4220
  101OSM   H15B10112   1.329   1.972  11.027  0.5979  0.6123 -0.2124
  101OSM   H15C10113   1.221   1.920  11.152 -2.3251 -1.6740 -0.0294
  101OSM    C1410114   1.130   1.688  11.064  0.3771 -0.1734 -0.1706
  101OSM   H14A10115   1.140   1.591  11.018 -1.6786 -0.3871 -0.2350
  101OSM   H14B10116   1.050   1.722  11.000 -0.0463  1.4095  1.1751
  101OSM   H14C10117   1.111   1.682  11.170  3.5296  2.4646  0.5976
  101OSM    C1310118   1.273   1.741  10.873  0.3413  0.1658  0.7145
  101OSM   H13A10119   1.299   1.638  10.852  0.6691  0.5802 -1.0656
  101OSM   H13B10120   1.350   1.802  10.828 -0.2264  1.0107  0.8824
  101OSM   H13C10121   1.182   1.773  10.823  0.9982  0.8241 -0.0802
  101OSM    C1210122   1.382   1.701  11.086 -0.3890 -0.3589  0.2008
  101OSM   H12A10123   1.395   1.601  11.045 -2.1341 -0.4434 -0.1773
  101OSM   H12B10124   1.363   1.682  11.191  0.4365 -2.0872  0.0579
  101OSM    C1110125   1.511   1.782  11.065 -0.1970 -0.2507 -0.4712
  101OSM   H11A10126   1.499   1.870  11.132  0.3590 -1.2296  0.9251
  101OSM   H11B10127   1.533   1.827  10.966  0.4135  0.3798 -0.0575
  101OSM      P10128   1.700   1.612  11.017  0.1478  0.1826  0.0189
  101OSM    O1310129   1.843   1.642  11.038  0.1751  0.2639 -0.7162
  101OSM    O1410130   1.656   1.474  11.053 -0.7834  0.2772 -0.3576
  101OSM    O1110131   1.648   1.640  10.870 -0.0564  0.1760 -0.4732
  101OSM    O1210132   1.620   1.707  11.114  1.0075 -0.7905  0.4120
  101OSM    C1S10133   1.712   1.726  10.780  0.3192  0.2155  0.0857
  101OSM    H1S10134   1.821   1.737  10.799 -0.2875  3.6021  2.0808
  101OSM    H1T10135   1.681   1.832  10.793 -0.2201  0.1847 -0.8881
  101OSM     NF10136   1.796   1.739  10.541  0.5022 -0.4684 -0.4588
  101OSM    HNF10137   1.762   1.794  10.465 -0.3438 -0.7510 -0.2951
  101OSM    C2S10138   1.707   1.676  10.635 -0.0282  0.5577 -0.5404
  101OSM    H2S10139   1.742   1.572  10.652 -0.4563  0.4449 -0.3290
  101OSM    C3S10140   1.554   1.692  10.599  0.0360  0.6449 -0.2301
  101OSM    H3S10141   1.521   1.798  10.609  0.8072  0.9662 -0.9549
  101OSM     O310142   1.458   1.619  10.681  0.0231  0.1283  0.0760
  101OSM    HO310143   1.517   1.598  10.753  0.2973  1.7718  0.3502
  101OSM    C4S10144   1.540   1.651  10.457  0.0539 -0.2464 -1.0813
  101OSM    H4S10145   1.537   1.730  10.380 -0.7435  0.8220  0.0389
  101OSM    C5S10146   1.538   1.520  10.407 -0.2783 -0.2531  0.4287
  101OSM    H5S10147   1.556   1.433  10.471  0.2769 -0.9793 -0.7097
  101OSM    C6S10148   1.526   1.501  10.255  0.1391  0.4367  0.0877
  101OSM    H6S10149   1.521   1.599  10.204 -0.3840 -0.7456 -2.2044
  101OSM    H6T10150   1.428   1.450  10.243  0.1431  0.2750  0.7039
  101OSM    C7S10151   1.646   1.423  10.186  0.1508 -0.4117 -0.1947
  101OSM    H7S10152   1.641   1.328  10.242  1.9554 -1.0011 -0.9759
  101OSM    H7T10153   1.741   1.476  10.209 -0.4249 -0.6057  2.9035
  101OSM    C8S10154   1.628   1.404  10.039  0.1609  0.0145 -0.4513
  101OSM    H8S10155   1.529   1.355  10.032  0.2256 -0.4113  1.3893
  101OSM    H8T10156   1.695   1.322  10.004  0.8852  0.0217  0.9125
  101OSM    C9S10157   1.620   1.526   9.946  0.1764  0.0736  0.7486
  101OSM    H9S10158   1.716   1.582   9.953  1.2667 -1.9141  1.9797
  101OSM    H9T10159   1.544   1.601   9.978  0.1228  0.9607 -1.3648
  101OSM   C10S10160   1.580   1.491   9.804 -0.2952  0.3597  0.1170
  101OSM   H10S10161   1.577   1.590   9.753 -0.3728  0.5422  0.4700
  101OSM   H10T10162   1.485   1.437   9.788  0.1650 -0.1670 -0.8802
  101OSM   C11S10163   1.690   1.400   9.748 -0.4733 -0.1653 -0.1250
  101OSM   H11S10164   1.654   1.296   9.760 -0.0549  0.0025  2.8354
  101OSM   H11T10165   1.784   1.397   9.806 -1.5191  1.2963  1.7163
  101OSM   C12S10166   1.734   1.436   9.603 -0.2650  0.5848  0.2087
  101OSM   H12S10167   1.804   1.522   9.606 -0.2495  0.5513  0.7850
  101OSM   H12T10168   1.639   1.471   9.555 -1.6466 -0.3174  2.2168
  101OSM   C13S10169   1.775   1.312   9.519 -0.0547  0.0943 -0.6235
  101OSM   H13S10170   1.701   1.230   9.528 -0.4246  0.6049  1.0421
  101OSM   H13T10171   1.867   1.288   9.577 -0.1015  0.7116 -0.2893
  101OSM   C14S10172   1.799   1.357   9.374 -0.4268  0.0908 -0.2820
  101OSM   H14S10173   1.877   1.436   9.375  1.5839 -1.8467 -0.3971
  101OSM   H14T10174   1.704   1.374   9.321 -1.6790  0.2651  1.9568
  101OSM   C15S10175   1.858   1.242   9.298 -0.0352  0.9578  0.1208
  101OSM   H15S10176   1.777   1.166   9.293  1.8120 -1.1911  1.7428
  101OSM   H15T10177   1.953   1.211   9.347 -0.4742  1.2798  1.2031
  101OSM   C16S10178   1.877   1.283   9.147  0.1466 -0.3646  0.4857
  101OSM   H16S10179   1.915   1.386   9.137  0.1237 -0.4526 -0.5605
  101OSM   H16T10180   1.776   1.278   9.101 -0.6735 -0.6102  2.2471
  101OSM   C17S10181   1.973   1.190   9.070 -0.2527  0.1624 -0.1139
  101OSM   H17S10182   2.077   1.198   9.109 -0.4555  1.6699  0.1603
  101OSM   H17T10183   1.970   1.221   8.963  0.5410  1.2460  0.1643
  101OSM   C18S10184   1.937   1.037   9.083  0.3207 -0.1853  1.0982
  101OSM   H18S10185   1.829   1.018   9.065  0.4605 -0.2456  0.2980
  101OSM   H18T10186   1.975   1.002   9.182 -1.7985 -0.1079  1.9723
  101OSM   H18U10187   1.981   0.973   9.004  2.5728  0.7620  1.5475
  101OSM    C1F10188   1.921   1.700  10.540 -0.1562 -0.4587  1.0361
  101OSM     OF10189   1.966   1.612  10.619  0.0721 -0.5149  0.1591
  101OSM    C2F10190   1.999   1.753  10.422  0.7164  0.5722 -0.8015
  101OSM    H2F10191   2.059   1.842  10.453 -0.1478  1.1338 -0.7309
  101OSM    H2G10192   1.922   1.770  10.343 -0.7341 -2.4550 -0.1054
  101OSM    C3F10193   2.093   1.648  10.358 -0.2420  0.2099 -0.0121
  101OSM    H3F10194   2.169   1.628  10.437  0.1266 -2.7515 -1.0502
  101OSM    H3G10195   2.161   1.700  10.287  1.0011 -1.0428  0.2459
  101OSM    C4F10196   2.030   1.528  10.295  0.0294  0.0337  0.1836
  101OSM    H4F10197   1.941   1.556  10.236  0.5358  0.3344 -0.4525
  101OSM    H4G10198   1.986   1.459  10.369 -1.1970  0.4724 -0.1358
  101OSM    C5F10199   2.133   1.458  10.205 -0.0050  0.6478  0.2585
  101OSM    H5F10200   2.112   1.350  10.188  2.8563 -0.1928  1.8726
  101OSM    H5G10201   2.236   1.468  10.245  0.1242 -0.6783  0.2572
  101OSM    C6F10202   2.153   1.509  10.057  0.0977 -0.2631 -0.7422
  101OSM    H6F10203   2.193   1.612  10.065 -2.2008  0.5975  0.0086
  101OSM    H6G10204   2.235   1.458  10.001  0.2078 -1.2378  0.2662
  101OSM    C7F10205   2.021   1.528   9.983 -0.2278 -0.2794 -0.7676
  101OSM    H7F10206   1.965   1.621  10.008 -0.6073 -0.0562 -2.3516
  101OSM    H7G10207   1.950   1.443   9.992 -1.3944  0.7126 -0.3703
  101OSM    C8F10208   2.049   1.538   9.830  0.2099 -0.1646  0.9918
  101OSM    H8F10209   2.122   1.622   9.832  1.3498 -1.1608  2.2894
  101OSM    H8G10210   1.959   1.577   9.777  0.9800 -0.6106 -0.6820
  101OSM    C9F10211   2.107   1.418   9.769  0.2748 -0.0658 -0.2052
  101OSM    H9F10212   2.108   1.322   9.822  2.3829 -1.5563 -2.8129
  101OSM   C10F10213   2.196   1.419   9.670 -0.3218 -0.0759 -0.0714
  101OSM   H10F10214   2.241   1.328   9.628 -0.2704  1.3512 -3.2014
  101OSM   C11F10215   2.235   1.538   9.587  0.5281  0.7478 -0.5028
  101OSM   H11F10216   2.331   1.583   9.619 -1.5695  3.3238  2.5672
  101OSM   H11G10217   2.157   1.618   9.592 -1.4857 -1.2362  1.0377
  101OSM   C12F10218   2.276   1.503   9.443 -0.2505  0.3666 -0.3932
  101OSM   H12F10219   2.289   1.597   9.386  2.3679  0.4941  0.3285
  101OSM   H12G10220   2.199   1.438   9.397  0.1107  0.6516 -1.4078
  101OSM   C13F10221   2.403   1.416   9.431 -0.4825 -0.0773  0.0705
  101OSM   H13F10222   2.372   1.324   9.485 -2.6696 -0.4961 -1.7923
  101OSM   H13G10223   2.487   1.473   9.476 -0.2712  0.0890 -0.5207
  101OSM   C14F10224   2.437   1.383   9.286 -0.5998 -0.7746  0.0834
  101OSM   H14F10225   2.545   1.357   9.285 -0.3691 -0.0042  2.3393
  101OSM   H14G10226   2.422   1.483   9.240  0.0019  0.2064  1.9357
  101OSM   C15F10227   2.357   1.283   9.199 -0.0994 -0.7353 -0.3433
  101OSM   H15F10228   2.251   1.311   9.214 -0.3580 -0.3176 -2.7227
  101OSM   H15G10229   2.373   1.183   9.244  0.6424  0.0205  1.1370
  101OSM   C16F10230   2.411   1.288   9.058 -0.5242  0.5212 -0.4074
  101OSM   H16F10231   2.414   1.391   9.015 -2.4351  0.9780  0.4694
  101OSM   H16G10232   2.337   1.237   8.992  1.8456 -1.6567 -1.4373
  101OSM   C17F10233   2.552   1.227   9.035  0.4302 -0.0316  0.1807
  101OSM   H17F10234   2.548   1.121   9.069  0.8944 -0.2136 -0.3239
  101OSM   H17G10235   2.618   1.290   9.100 -1.3441  0.1765  1.8147
  101OSM   C18F10236   2.596   1.239   8.887  0.1259 -0.0534 -0.2160
  101OSM   H18F10237   2.698   1.202   8.865  0.0534 -0.3711 -0.0175
  101OSM   H18G10238   2.591   1.345   8.855 -1.4324  0.2353  0.9171
  101OSM   H18H10239   2.522   1.185   8.824  0.6663 -2.0700  0.8366
  102OSM      N10240   4.531   3.625  11.141  0.2095  0.1806 -0.0265
  102OSM    C1510241   4.580   3.517  11.059 -0.0863  0.6748  0.1154
  102OSM   H15A10242   4.678   3.548  11.027 -0.4727  0.9435 -0.8393
  102OSM   H15B10243   4.518   3.488  10.975  0.7142 -0.8191  0.0238
  102OSM   H15C10244   4.598   3.425  11.112 -1.0329  0.1805 -0.4144
  102OSM    C1410245   4.392   3.590  11.181 -0.5100 -0.2615  0.3051
  102OSM   H14A10246   4.330   3.612  11.095 -2.5071 -1.3641  1.4152
  102OSM   H14B10247   4.348   3.659  11.253 -2.3166  1.4669 -2.3245
  102OSM   H14C10248   4.386   3.489  11.218  0.4412 -1.2052 -2.0576
  102OSM    C1310249   4.611   3.635  11.271 -0.4825  0.0440 -0.2533
  102OSM   H13A10250   4.603   3.545  11.330 -2.8548  0.6911  0.4999
  102OSM   H13B10251   4.579   3.716  11.335  1.0430  1.2532 -0.9907
  102OSM   H13C10252   4.713   3.651  11.242 -0.0065 -0.8875  0.8806
  102OSM    C1210253   4.538   3.754  11.064  0.9568 -0.7911 -0.0609
  102OSM   H12A10254   4.635   3.755  11.016  1.3486  2.1406  0.7110
  102OSM   H12B10255   4.533   3.841  11.128 -1.1042  0.8376 -2.3481
  102OSM    C1110256   4.435   3.780  10.955 -0.2164  0.0468 -0.0582
  102OSM   H11A10257   4.417   3.693  10.887  0.7376 -0.1393 -0.0703
  102OSM   H11B10258   4.489   3.853  10.892 -1.6986  1.5686  0.4054
  102OSM      P10259   4.176   3.811  10.964 -0.4284  0.1182  0.0618
  102OSM    O1310260   4.134   3.683  11.026 -0.1356 -0.4156  0.2918
  102OSM    O1410261   4.088   3.935  10.975 -0.3847  0.3522 -0.2764
  102OSM    O1110262   4.187   3.776  10.808 -0.4522  0.3791 -0.5307
  102OSM    O1210263   4.320   3.843  11.007 -0.0583 -0.7724  0.0921
  102OSM    C1S10264   4.224   3.893  10.734 -0.2228 -0.5081  0.0610
  102OSM    H1S10265   4.329   3.921  10.760  0.1452  0.7465 -2.6116
  102OSM    H1T10266   4.161   3.983  10.746 -0.7405 -0.7738 -0.6552
  102OSM     NF10267   4.276   3.968  10.504  0.5394 -0.4471  0.5283
  102OSM    HNF10268   4.212   4.034  10.467  0.2549 -2.1370 -2.1320
  102OSM    C2S10269   4.211   3.861  10.580 -0.0448  0.5132  0.2016
  102OSM    H2S10270   4.272   3.770  10.562 -0.5190  0.6156 -2.1387
  102OSM    C3S10271   4.059   3.835  10.538  0.5315  0.0278  0.1797
  102OSM    H3S10272   4.007   3.933  10.541  0.4458  0.0177 -0.8835
  102OSM     O310273   3.979   3.757  10.629 -0.3530 -0.3948 -0.6661
  102OSM    HO310274   4.028   3.741  10.710 -3.0120 -1.0142  0.8962
  102OSM    C4S10275   4.042   3.787  10.393  0.2364  0.0549 -0.6048
  102OSM    H4S10276   4.074   3.686  10.364  1.0166  0.7437 -2.2077
  102OSM    C5S10277   3.984   3.868  10.298 -0.5455  0.7079  0.0063
  102OSM    H5S10278   3.939   3.962  10.332  0.8208  1.6890 -0.8295
  102OSM    C6S10279   3.966   3.837  10.149 -0.0758 -0.5184 -0.5577
  102OSM    H6S10280   3.981   3.731  10.122  2.3958  0.1332 -1.8583
  102OSM    H6T10281   4.042   3.896  10.094  0.2002 -0.1797  0.1829
  102OSM    C7S10282   3.820   3.880  10.101  0.1567 -0.6073 -0.4871
  102OSM    H7S10283   3.816   3.989  10.121 -1.0606 -0.7644  0.1798
  102OSM    H7T10284   3.746   3.822  10.159 -1.0542 -1.1267 -2.4945
  102OSM    C8S10285   3.790   3.828   9.959  0.5608 -0.3374 -0.7915
  102OSM    H8S10286   3.811   3.719   9.954  2.1334 -0.2733  2.7674
  102OSM    H8T10287   3.860   3.881   9.891  0.6047  2.8966  1.6396
  102OSM    C9S10288   3.646   3.859   9.919 -0.0085 -0.1838  0.3713
  102OSM    H9S10289   3.630   3.967   9.902 -0.5207 -0.2934  0.1104
  102OSM    H9T10290   3.569   3.813   9.985  2.7181 -2.7775  1.8755
  102OSM   C10S10291   3.599   3.796   9.786  0.2969 -0.2401 -0.8734
  102OSM   H10S10292   3.600   3.686   9.802  0.2410  0.0484  1.2604
  102OSM   H10T10293   3.681   3.823   9.715 -0.5016 -2.1898 -2.5906
  102OSM   C11S10294   3.471   3.854   9.731  0.0909 -0.4069 -0.1851
  102OSM   H11S10295   3.476   3.965   9.742  3.3921 -0.6965  1.6941
  102OSM   H11T10296   3.383   3.812   9.785 -0.4314 -0.8186 -1.3382
  102OSM   C12S10297   3.449   3.810   9.590 -0.2132 -0.6187 -0.3903
  102OSM   H12S10298   3.491   3.709   9.574  0.5845 -0.3234 -0.2019
  102OSM   H12T10299   3.509   3.879   9.526 -0.9860  2.1574  1.7810
  102OSM   C13S10300   3.306   3.812   9.548 -1.1368 -0.1047  0.0073
  102OSM   H13S10301   3.257   3.911   9.564 -0.4650  0.1477  0.4946
  102OSM   H13T10302   3.249   3.756   9.625  0.0313 -0.7548  0.4079
  102OSM   C14S10303   3.277   3.748   9.418 -0.5066  0.0769  0.8582
  102OSM   H14S10304   3.168   3.753   9.398  0.0785 -0.6302 -2.9596
  102OSM   H14T10305   3.303   3.640   9.419  0.1867  0.1559 -2.4488
  102OSM   C15S10306   3.366   3.813   9.303  0.7718 -0.2419 -0.5302
  102OSM   H15S10307   3.473   3.829   9.324  0.8276 -0.4904 -0.6245
  102OSM   H15T10308   3.328   3.917   9.297  0.5415 -0.0589  3.0271
  102OSM   C16S10309   3.342   3.743   9.173 -0.2961 -0.1172 -0.1229
  102OSM   H16S10310   3.236   3.740   9.140 -0.5999 -0.5976  0.8825
  102OSM   H16T10311   3.361   3.634   9.188 -0.1974  0.1403  1.6543
  102OSM   C17S10312   3.433   3.799   9.062  0.5925 -1.0542 -0.4165
  102OSM   H17S10313   3.535   3.803   9.106  1.7164 -1.2996 -2.9382
  102OSM   H17T10314   3.414   3.908   9.047 -0.1257 -1.1172 -0.0117
  102OSM   C18S10315   3.437   3.727   8.929 -0.5212  0.1002  0.5110
  102OSM   H18S10316   3.520   3.758   8.862 -1.8599 -0.3616 -1.4088
  102OSM   H18T10317   3.333   3.739   8.892  0.2421 -1.1159 -2.1543
  102OSM   H18U10318   3.452   3.621   8.958 -0.3667  0.2171  0.8568
  102OSM    C1F10319   4.405   3.986  10.503  0.5219 -0.4412 -0.1865
  102OSM     OF10320   4.482   3.917  10.557  0.2805  0.5821 -0.3056
  102OSM    C2F10321   4.448   4.107  10.430 -0.2005  0.8022  0.4106
  102OSM    H2F10322   4.421   4.198  10.487 -0.2995  0.3599  1.0757
  102OSM    H2G10323   4.395   4.108  10.332  0.1536 -1.9779  0.1391
  102OSM    C3F10324   4.600   4.115  10.405 -0.0665 -0.6745  0.4415
  102OSM    H3F10325   4.655   4.099  10.500  3.1806  2.2001 -0.8548
  102OSM    H3G10326   4.620   4.222  10.383 -0.3432 -0.7058  0.0226
  102OSM    C4F10327   4.656   4.025  10.290  0.1428 -0.2621 -0.1036
  102OSM    H4F10328   4.614   3.925  10.314 -0.4705  0.0883  0.2731
  102OSM    H4G10329   4.767   4.022  10.298  0.1530 -2.5202 -0.8162
  102OSM    C5F10330   4.618   4.076  10.153 -0.2254 -0.1530  0.6661
  102OSM    H5F10331   4.633   4.185  10.161  1.5272 -0.2825 -0.6701
  102OSM    H5G10332   4.509   4.066  10.132 -0.5573 -0.3598  2.4338
  102OSM    C6F10333   4.690   3.999  10.047 -0.8156 -0.5742 -0.3267
  102OSM    H6F10334   4.675   3.892  10.072  0.7971 -0.0770  2.9137
  102OSM    H6G10335   4.798   4.023  10.055 -0.8073  0.3468 -2.6679
  102OSM    C7F10336   4.634   4.008   9.908  0.6126  0.2682 -0.7753
  102OSM    H7F10337   4.524   3.993   9.910  0.6864 -0.1465  1.1434
  102OSM    H7G10338   4.680   3.931   9.842  1.9883 -1.8056  2.5076
  102OSM    C8F10339   4.642   4.140   9.828  0.8210  0.1878 -0.5577
  102OSM    H8F10340   4.745   4.175   9.808  1.3547 -0.4939  0.8967
  102OSM    H8G10341   4.600   4.209   9.904 -0.7576  1.2554 -2.3453
  102OSM    C9F10342   4.560   4.138   9.702 -0.0523  0.0762  1.0814
  102OSM    H9F10343   4.453   4.160   9.709  0.0363  1.0328 -0.2347
  102OSM   C10F10344   4.590   4.094   9.581  0.0298 -0.0404 -0.6608
  102OSM   H10F10345   4.519   4.110   9.499  1.9981  2.4638 -1.9272
  102OSM   C11F10346   4.720   4.030   9.532 -0.0126  0.0133  0.4700
  102OSM   H11F10347   4.797   4.049   9.610 -0.1825 -1.6353  1.0603
  102OSM   H11G10348   4.757   4.076   9.438 -0.1868  0.7629  0.7689
  102OSM   C12F10349   4.713   3.877   9.530 -0.4777  0.1731 -0.1265
  102OSM   H12F10350   4.643   3.832   9.457 -0.6789 -1.0410  0.8037
  102OSM   H12G10351   4.678   3.843   9.629 -0.2816  3.1077  1.0182
  102OSM   C13F10352   4.853   3.810   9.500  0.2319 -0.0218 -0.6161
  102OSM   H13F10353   4.929   3.830   9.578  0.9162  2.3432 -1.8510
  102OSM   H13G10354   4.893   3.847   9.403  0.0808 -0.3504 -0.8085
  102OSM   C14F10355   4.841   3.661   9.484 -0.1679 -0.2758 -0.7822
  102OSM   H14F10356   4.938   3.613   9.458 -0.2808 -0.8442 -0.1787
  102OSM   H14G10357   4.765   3.643   9.406  0.1926 -0.0095 -1.1952
  102OSM   C15F10358   4.783   3.576   9.609 -0.6678 -0.3960  0.0481
  102OSM   H15F10359   4.796   3.468   9.589 -0.4829 -0.2710 -0.5325
  102OSM   H15G10360   4.676   3.603   9.619 -0.6987  0.1488 -1.5308
  102OSM   C16F10361   4.848   3.606   9.744 -0.0072  0.2614  0.1088
  102OSM   H16F10362   4.882   3.711   9.739  3.6176 -0.9049 -1.7141
  102OSM   H16G10363   4.937   3.540   9.756 -0.9987 -1.4637 -1.6135
  102OSM   C17F10364   4.745   3.591   9.856 -0.1146  0.0414  0.4202
  102OSM   H17F10365   4.712   3.485   9.856  0.0348 -0.0090  0.8619
  102OSM   H17G10366   4.651   3.647   9.839 -0.7592 -0.8854  0.8856
  102OSM   C18F10367   4.789   3.624  10.000 -0.3893 -0.3276  0.9753
  102OSM   H18F10368   4.879   3.566  10.031 -0.7528 -1.1266  0.5399
  102OSM   H18G10369   4.702   3.628  10.068 -1.0728  2.3553  0.0244
  102OSM   H18H10370   4.821   3.731  10.001 -0.6803 -0.2219 -0.2398
  103OSM      N10371   3.776   6.255  10.810 -0.1096  0.3570 -0.5268
  103OSM    C1510372   3.879   6.203  10.715 -0.1406 -0.3240 -0.7804
  103OSM   H15A10373   3.958   6.272  10.692  1.2867 -1.5453  0.3550
  103OSM   H15B10374   3.827   6.199  10.620 -0.1045  0.4471 -0.8315
  103OSM   H15C10375   3.923   6.109  10.744  3.3066  0.9111 -1.8034
  103OSM    C1410376   3.666   6.159  10.813 -0.3028  0.7081  0.0001
  103OSM   H14A10377   3.594   6.201  10.883  0.8510 -0.3370  1.8598
  103OSM   H14B10378   3.702   6.066  10.853  1.7875  1.8585  0.9074
  103OSM   H14C10379   3.621   6.146  10.716 -3.0429 -0.1276  1.3470
  103OSM    C1310380   3.840   6.260  10.948 -0.5650  0.6071  0.0481
  103OSM   H13A10381   3.936   6.310  10.953  1.1595 -2.4749 -0.1597
  103OSM   H13B10382   3.850   6.161  10.990 -0.2974 -0.2829 -2.0584
  103OSM   H13C10383   3.778   6.312  11.018  0.1974  1.0918  0.3658
  103OSM    C1210384   3.727   6.391  10.756  0.0587  0.4759 -0.5283
  103OSM   H12A10385   3.645   6.430  10.814  0.9839  2.0013 -0.2363
  103OSM   H12B10386   3.697   6.388  10.652  0.0566 -1.0281 -0.4985
  103OSM    C1110387   3.839   6.500  10.752 -0.5194  0.3473  0.2671
  103OSM   H11A10388   3.929   6.471  10.695 -1.1161 -0.2867 -0.3487
  103OSM   H11B10389   3.880   6.507  10.856 -1.1211  2.9259  0.3848
  103OSM      P10390   3.710   6.708  10.822  0.2274 -0.2357 -0.1988
  103OSM    O1310391   3.629   6.617  10.910 -0.1576 -0.5473 -0.4163
  103OSM    O1410392   3.798   6.798  10.898 -0.0533 -0.3126 -0.2527
  103OSM    O1110393   3.620   6.785  10.725  0.3029  1.1739 -0.4969
  103OSM    O1210394   3.791   6.628  10.719  0.4237  0.0966 -0.3441
  103OSM    C1S10395   3.667   6.890  10.641 -0.1820 -0.0014  0.2038
  103OSM    H1S10396   3.727   6.836  10.564 -1.7606 -1.0390 -0.3229
  103OSM    H1T10397   3.738   6.957  10.695 -0.1084  0.8596 -0.9470
  103OSM     NF10398   3.596   7.064  10.494 -0.2528 -0.7394  0.2276
  103OSM    HNF10399   3.603   7.158  10.525 -1.4115  0.1106 -2.0420
  103OSM    C2S10400   3.546   6.966  10.583  0.9342 -0.1695 -0.5925
  103OSM    H2S10401   3.474   6.894  10.538 -0.9538  1.2208  0.1367
  103OSM    C3S10402   3.468   7.036  10.704  0.6403 -1.0639 -0.4588
  103OSM    H3S10403   3.531   7.120  10.739 -1.0768  0.5339 -1.0912
  103OSM     O310404   3.450   6.959  10.820 -0.1495  0.2020  0.1074
  103OSM    HO310405   3.502   6.880  10.802  1.2909  1.3059 -0.5877
  103OSM    C4S10406   3.340   7.095  10.645  0.1524 -0.2714  0.1537
  103OSM    H4S10407   3.348   7.195  10.599  0.1570 -0.0651  0.5938
  103OSM    C5S10408   3.214   7.038  10.648 -0.0812 -0.0711 -0.5704
  103OSM    H5S10409   3.191   6.938  10.689  1.9176 -0.3928 -0.1819
  103OSM    C6S10410   3.093   7.105  10.595  0.5145  1.1017  0.4010
  103OSM    H6S10411   3.032   7.144  10.679 -0.6569  0.2766 -0.0533
  103OSM    H6T10412   3.024   7.036  10.542  1.3610 -0.8617  1.7970
  103OSM    C7S10413   3.087   7.227  10.498  0.2790  0.3192  0.3431
  103OSM    H7S10414   3.144   7.312  10.541 -0.0217  1.5128 -1.5616
  103OSM    H7T10415   2.981   7.257  10.481  1.0415  1.8241 -2.0584
  103OSM    C8S10416   3.159   7.208  10.362  0.1139  0.7564  0.0594
  103OSM    H8S10417   3.262   7.169  10.378 -0.5191 -0.3927  1.3509
  103OSM    H8T10418   3.169   7.314  10.328  0.9322  0.5849 -0.2393
  103OSM    C9S10419   3.075   7.111  10.269  0.2613  0.0406 -0.0829
  103OSM    H9S10420   2.970   7.145  10.281 -0.6397 -2.0145 -1.8835
  103OSM    H9T10421   3.092   7.005  10.297  0.8836  0.4430  1.0972
  103OSM   C10S10422   3.096   7.134  10.117 -0.1521 -0.6347 -0.4337
  103OSM   H10S10423   3.184   7.074  10.085  0.6165 -0.3153  1.0296
  103OSM   H10T10424   3.124   7.241  10.105 -0.4190 -0.7455 -2.1969
  103OSM   C11S10425   2.989   7.086  10.015  0.7755  0.3328 -0.0354
  103OSM   H11S10426   2.894   7.137  10.040 -0.0071 -0.5722 -1.0967
  103OSM   H11T10427   2.971   6.976  10.024 -3.0186  0.7998 -1.2201
  103OSM   C12S10428   3.017   7.112   9.870 -0.2921  0.4320 -0.9070
  103OSM   H12S10429   3.127   7.102   9.859 -0.1082  2.2703 -0.9085
  103OSM   H12T10430   2.993   7.219   9.851 -2.7074 -0.2851 -2.0950
  103OSM   C13S10431   2.941   7.036   9.765 -0.0427 -0.2187  0.1955
  103OSM   H13S10432   2.834   7.051   9.790  0.2763  0.3163  1.2767
  103OSM   H13T10433   2.978   6.932   9.775 -1.9393 -1.2774 -3.0407
  103OSM   C14S10434   2.968   7.082   9.620 -0.0137 -0.3128 -0.8976
  103OSM   H14S10435   3.077   7.080   9.599  0.7737  0.8649  2.7891
  103OSM   H14T10436   2.936   7.187   9.605  0.5503  0.3680  2.3914
  103OSM   C15S10437   2.902   6.995   9.519 -0.5551 -0.9576 -0.0250
  103OSM   H15S10438   2.792   6.984   9.530 -0.6765 -0.2173 -0.4619
  103OSM   H15T10439   2.940   6.891   9.529  2.7357  0.1106 -0.7755
  103OSM   C16S10440   2.930   7.057   9.382 -0.3058  0.5030 -0.9237
  103OSM   H16S10441   3.036   7.063   9.348 -0.4033  0.5573 -1.2177
  103OSM   H16T10442   2.900   7.164   9.378  0.2712  0.6853 -0.4539
  103OSM   C17S10443   2.866   6.973   9.274  0.3575 -0.5796 -0.2281
  103OSM   H17S10444   2.759   6.954   9.295  0.2913  2.4748  2.4581
  103OSM   H17T10445   2.909   6.870   9.276  2.0819  0.0369 -2.8596
  103OSM   C18S10446   2.884   7.034   9.133  0.6149  0.0393  0.2813
  103OSM   H18S10447   2.806   6.997   9.063  0.7899  0.8910 -0.3772
  103OSM   H18T10448   2.984   7.006   9.092  0.9224  1.8661 -0.2656
  103OSM   H18U10449   2.877   7.145   9.133 -1.0218 -0.0473  1.1558
  103OSM    C1F10450   3.659   7.027  10.380  0.3361 -0.3476  0.4564
  103OSM     OF10451   3.646   6.913  10.338 -0.0391 -0.1763  0.6600
  103OSM    C2F10452   3.746   7.135  10.321  0.3978 -0.0393  0.0507
  103OSM    H2F10453   3.851   7.100  10.324  0.3010 -0.3730 -0.3554
  103OSM    H2G10454   3.725   7.228  10.378 -2.0524 -1.2704  1.2501
  103OSM    C3F10455   3.696   7.186  10.183 -0.1836 -0.0610 -0.2322
  103OSM    H3F10456   3.699   7.097  10.117  1.5095  0.4005 -0.7945
  103OSM    H3G10457   3.771   7.251  10.133  1.4166 -3.8001 -2.9722
  103OSM    C4F10458   3.559   7.235  10.188 -0.1215  0.7315  0.1479
  103OSM    H4F10459   3.551   7.334  10.238  0.0264  1.7065 -1.7135
  103OSM    H4G10460   3.481   7.174  10.239 -0.6813  2.1402  1.0245
  103OSM    C5F10461   3.506   7.284  10.047 -0.6848  0.4264 -0.1867
  103OSM    H5F10462   3.566   7.368  10.007  0.6354  1.0090  2.8752
  103OSM    H5G10463   3.402   7.322  10.061 -0.3439  1.2783  0.0671
  103OSM    C6F10464   3.503   7.170   9.947  0.3412  0.5615  0.0076
  103OSM    H6F10465   3.434   7.091   9.982 -1.7585  1.1180 -2.6971
  103OSM    H6G10466   3.602   7.129   9.916  0.6833  0.9234  0.6060
  103OSM    C7F10467   3.446   7.224   9.816  0.7982  0.1843  0.5969
  103OSM    H7F10468   3.503   7.306   9.769  0.0449  1.0312  1.1452
  103OSM    H7G10469   3.350   7.272   9.845  0.4580 -0.7879  1.1446
  103OSM    C8F10470   3.404   7.111   9.719  0.2218 -0.2772 -0.0756
  103OSM    H8F10471   3.320   7.155   9.662 -1.4130 -2.0851  0.8605
  103OSM    H8G10472   3.354   7.030   9.777 -3.4876 -0.1228 -2.8665
  103OSM    C9F10473   3.505   7.043   9.623 -0.4263 -0.1206  0.2585
  103OSM    H9F10474   3.576   6.969   9.664  0.8879  0.7245 -0.4527
  103OSM   C10F10475   3.496   7.051   9.491 -0.0997 -0.3232  0.1144
  103OSM   H10F10476   3.582   7.016   9.432 -0.3155 -0.2971 -0.2150
  103OSM   C11F10477   3.399   7.137   9.423 -0.0397 -0.2551  0.2067
  103OSM   H11F10478   3.392   7.234   9.477  1.6727  0.9809 -1.7129
  103OSM   H11G10479   3.300   7.087   9.420 -1.5365  2.5700 -0.0834
  103OSM   C12F10480   3.433   7.173   9.275 -0.8592 -0.1270  0.0964
  103OSM   H12F10481   3.348   7.231   9.235 -0.0697  0.4159 -0.8188
  103OSM   H12G10482   3.450   7.078   9.219 -1.4397 -1.5200  2.2212
  103OSM   C13F10483   3.565   7.261   9.256  0.1618  0.8783  0.1859
  103OSM   H13F10484   3.643   7.217   9.321  0.1495  1.8242  0.8578
  103OSM   H13G10485   3.548   7.365   9.291  2.1609  0.8206  1.4122
  103OSM   C14F10486   3.638   7.256   9.124 -0.3220 -0.5774 -0.3656
  103OSM   H14F10487   3.715   7.336   9.123  0.2138 -1.0178  2.2363
  103OSM   H14G10488   3.561   7.278   9.047  0.7989 -1.8135 -1.8627
  103OSM   C15F10489   3.697   7.125   9.085  0.6923 -0.3022 -0.3447
  103OSM   H15F10490   3.620   7.046   9.083  0.3367 -0.1721  3.7889
  103OSM   H15G10491   3.760   7.093   9.171  1.6303  2.9903  0.2651
  103OSM   C16F10492   3.783   7.131   8.955  0.0051 -0.0518  0.3182
  103OSM   H16F10493   3.890   7.158   8.969  0.4359 -1.0060 -1.0148
  103OSM   H16G10494   3.747   7.218   8.896 -0.3017  0.6683  1.5510
  103OSM   C17F10495   3.769   7.002   8.881  0.4788 -0.9265 -0.2496
  103OSM   H17F10496   3.667   6.985   8.840  0.5276  0.2903 -0.9047
  103OSM   H17G10497   3.794   6.921   8.953  1.4532 -0.8616 -0.5159
  103OSM   C18F10498   3.865   7.002   8.766 -0.2659  0.3871  0.2025
  103OSM   H18F10499   3.849   6.910   8.706  0.0211 -0.3584  1.2553
  103OSM   H18G10500   3.970   7.016   8.799 -0.1086  2.1496 -0.9954
  103OSM   H18H10501   3.837   7.077   8.688  0.8089  1.4919  0.8624
  104OSM      N10502   5.300   5.460  10.867  0.3730  0.1428  0.1883
  104OSM    C1510503   5.387   5.411  10.982 -0.5955 -0.4893  0.0319
  104OSM   H15A10504   5.461   5.342  10.945  0.9166  0.5985  0.9464
  104OSM   H15B10505   5.322   5.373  11.060 -1.1289 -0.1894 -0.2639
  104OSM   H15C10506   5.435   5.497  11.026 -0.0302 -1.1444  0.7057
  104OSM    C1410507   5.383   5.530  10.762 -0.1084 -0.2192 -0.1616
  104OSM   H14A10508   5.481   5.484  10.761  1.2828  2.6361 -1.1859
  104OSM   H14B10509   5.380   5.637  10.775 -1.7611 -0.2805  0.0503
  104OSM   H14C10510   5.343   5.518  10.663 -0.6905  0.8113 -0.0589
  104OSM    C1310511   5.257   5.337  10.799  0.0161 -0.2136 -0.1757
  104OSM   H13A10512   5.343   5.275  10.781 -0.1573 -0.4625 -0.1471
  104OSM   H13B10513   5.200   5.357  10.710 -1.4700  0.3827  0.8858
  104OSM   H13C10514   5.189   5.275  10.856  0.7055 -1.2429 -0.4710
  104OSM    C1210515   5.178   5.537  10.921  0.2270  0.3266  0.8103
  104OSM   H12A10516   5.124   5.477  10.993  0.9020 -1.9688 -0.5376
  104OSM   H12B10517   5.112   5.552  10.837 -1.5824  0.0076  2.1289
  104OSM    C1110518   5.221   5.678  10.974  0.3446 -0.2927 -0.2901
  104OSM   H11A10519   5.320   5.676  11.024  1.0167 -0.2803 -1.5970
  104OSM   H11B10520   5.144   5.703  11.050 -1.1634  0.5934 -2.0686
  104OSM      P10521   5.123   5.824  10.785 -0.2169 -0.0658 -0.4088
  104OSM    O1310522   5.001   5.860  10.866 -0.4219  0.0351 -0.1816
  104OSM    O1410523   5.168   5.928  10.691 -0.2433  0.4272  0.0442
  104OSM    O1110524   5.073   5.701  10.702  0.3614  0.1457  0.5412
  104OSM    O1210525   5.241   5.778  10.877 -0.1663  0.2113  0.0020
  104OSM    C1S10526   4.976   5.726  10.605  0.5595  0.3627 -0.0306
  104OSM    H1S10527   4.901   5.801  10.637 -0.4059 -0.1968 -0.9805
  104OSM    H1T10528   4.914   5.635  10.594  2.0572 -0.9129  1.7473
  104OSM     NF10529   4.911   5.786  10.367 -0.4858  0.2821 -0.5031
  104OSM    HNF10530   4.909   5.724  10.288  3.2888 -1.2588  0.5353
  104OSM    C2S10531   5.018   5.759  10.456 -0.1746 -0.4453  0.4079
  104OSM    H2S10532   5.074   5.854  10.460 -1.1153  0.1665 -0.7806
  104OSM    C3S10533   5.105   5.645  10.398 -0.2244  0.7837 -0.2507
  104OSM    H3S10534   5.044   5.553  10.389  1.4211 -0.1297 -2.7462
  104OSM     O310535   5.212   5.603  10.479 -0.4650  0.0191 -0.3286
  104OSM    HO310536   5.171   5.610  10.566 -3.5184 -0.6863 -1.6156
  104OSM    C4S10537   5.165   5.669  10.263 -0.5433  0.4324  0.1872
  104OSM    H4S10538   5.098   5.661  10.176  1.9862  1.8391 -1.9766
  104OSM    C5S10539   5.282   5.720  10.234  0.0408  0.1253 -0.9081
  104OSM    H5S10540   5.355   5.731  10.316 -2.5593  0.2958  1.4351
  104OSM    C6S10541   5.328   5.739  10.095  0.4799 -0.1789 -0.4116
  104OSM    H6S10542   5.418   5.677  10.077  0.1150 -0.9342  0.3485
  104OSM    H6T10543   5.357   5.846  10.079  1.0586  0.0588  2.0164
  104OSM    C7S10544   5.221   5.707   9.983 -0.0140  0.0265 -0.3297
  104OSM    H7S10545   5.146   5.789   9.996 -2.4923 -2.1530 -0.5044
  104OSM    H7T10546   5.174   5.607   9.986  2.8303 -1.3436  0.4709
  104OSM    C8S10547   5.272   5.719   9.838  0.0472  0.5047  0.0272
  104OSM    H8S10548   5.356   5.792   9.841 -0.5931  1.2262  0.6821
  104OSM    H8T10549   5.192   5.757   9.771 -1.2796 -1.1134  0.6720
  104OSM    C9S10550   5.301   5.586   9.781  0.3058  0.2720  0.7902
  104OSM    H9S10551   5.211   5.524   9.802 -0.2604  1.7200  2.8919
  104OSM    H9T10552   5.389   5.541   9.831  2.0462  3.3378  0.5860
  104OSM   C10S10553   5.345   5.586   9.633  0.4797 -0.0224 -0.3520
  104OSM   H10S10554   5.363   5.478   9.620 -1.2172 -0.5018  1.0001
  104OSM   H10T10555   5.440   5.641   9.617  0.6351 -0.1848 -0.0116
  104OSM   C11S10556   5.253   5.656   9.532 -0.0207 -0.1096 -0.2002
  104OSM   H11S10557   5.225   5.762   9.552 -2.3378 -0.3495 -1.8472
  104OSM   H11T10558   5.161   5.595   9.540  0.2439 -0.1899  2.4896
  104OSM   C12S10559   5.294   5.651   9.385  0.2435  0.7775 -0.4694
  104OSM   H12S10560   5.305   5.542   9.364 -0.9111  0.6172 -0.2981
  104OSM   H12T10561   5.393   5.697   9.363  2.1719 -2.3686  1.2090
  104OSM   C13S10562   5.192   5.705   9.282  0.2590  0.9186  0.0834
  104OSM   H13S10563   5.185   5.815   9.294 -1.1497  0.7040  1.3591
  104OSM   H13T10564   5.091   5.661   9.296  0.4702  1.4487  3.5973
  104OSM   C14S10565   5.234   5.675   9.130 -0.2136 -0.0978  0.0150
  104OSM   H14S10566   5.262   5.570   9.106  1.8641  0.6406 -0.9497
  104OSM   H14T10567   5.331   5.728   9.117 -0.1320 -0.3668 -0.4787
  104OSM   C15S10568   5.139   5.704   9.022 -0.7561  0.0255 -0.2845
  104OSM   H15S10569   5.102   5.808   9.020  0.8309  0.6397  1.1966
  104OSM   H15T10570   5.053   5.634   9.031 -1.3610  0.7438 -0.4718
  104OSM   C16S10571   5.199   5.665   8.881  0.0880 -0.0015  0.1963
  104OSM   H16S10572   5.204   5.554   8.873  1.7475  0.2443 -3.4871
  104OSM   H16T10573   5.302   5.707   8.874 -0.2365  1.4632  3.5709
  104OSM   C17S10574   5.105   5.706   8.769  0.1037 -0.0519 -0.2575
  104OSM   H17S10575   5.092   5.816   8.780 -1.3395 -0.1723 -0.7264
  104OSM   H17T10576   5.004   5.673   8.800  0.7827 -1.8386  0.0806
  104OSM   C18S10577   5.152   5.655   8.636 -0.0431 -0.2268 -0.5698
  104OSM   H18S10578   5.202   5.557   8.651 -0.1015 -0.1798 -0.0533
  104OSM   H18T10579   5.205   5.742   8.590 -0.2621 -1.2290 -2.7750
  104OSM   H18U10580   5.059   5.628   8.582  0.0007 -0.3530 -0.5800
  104OSM    C1F10581   4.833   5.897  10.383  0.2541  0.2715 -0.3468
  104OSM     OF10582   4.842   5.970  10.483  0.5301 -0.2871 -0.2911
  104OSM    C2F10583   4.740   5.922  10.266 -0.1514 -0.4871 -0.7338
  104OSM    H2F10584   4.649   5.859  10.277 -0.1298 -0.6621 -1.5566
  104OSM    H2G10585   4.799   5.909  10.173 -1.3070 -3.0317 -1.1561
  104OSM    C3F10586   4.697   6.072  10.268 -0.6010  0.0949 -0.6260
  104OSM    H3F10587   4.789   6.131  10.289 -2.1509  1.7546  1.6867
  104OSM    H3G10588   4.632   6.094  10.356 -0.5669 -2.4161  0.0766
  104OSM    C4F10589   4.640   6.134  10.136 -0.4361 -0.7111 -0.0216
  104OSM    H4F10590   4.539   6.092  10.116  0.3218 -2.8483  0.4354
  104OSM    H4G10591   4.702   6.102  10.049  0.5478  0.6360  0.1601
  104OSM    C5F10592   4.654   6.280  10.153  0.2692  0.1197  0.8901
  104OSM    H5F10593   4.760   6.304  10.176  1.0783  0.8763 -3.1388
  104OSM    H5G10594   4.595   6.309  10.242  1.4515 -1.6638  2.2920
  104OSM    C6F10595   4.609   6.359  10.025  0.4562  0.2570  0.2269
  104OSM    H6F10596   4.586   6.463  10.055 -0.4348  0.0408  0.3182
  104OSM    H6G10597   4.517   6.314   9.980 -0.0077  1.6889 -0.2855
  104OSM    C7F10598   4.735   6.357   9.931 -0.5924 -0.5381 -0.1694
  104OSM    H7F10599   4.763   6.251   9.916 -0.5952 -0.6366  0.4793
  104OSM    H7G10600   4.813   6.406   9.993 -1.7840 -0.1663  1.0787
  104OSM    C8F10601   4.715   6.426   9.799 -0.5463  0.3636 -0.8630
  104OSM    H8F10602   4.704   6.536   9.815  3.9995  0.8904 -0.6636
  104OSM    H8G10603   4.624   6.393   9.745 -0.7248 -1.1604  0.3470
  104OSM    C9F10604   4.830   6.398   9.707  0.4971 -0.2936  0.3123
  104OSM    H9F10605   4.929   6.387   9.754 -0.8497 -3.0780  2.6459
  104OSM   C10F10606   4.824   6.374   9.576  0.6399 -0.3270 -0.7766
  104OSM   H10F10607   4.920   6.345   9.529  0.3789 -0.8427 -0.9917
  104OSM   C11F10608   4.700   6.382   9.489 -1.0252  0.7291 -0.3794
  104OSM   H11F10609   4.634   6.465   9.523  0.0443  1.5877 -0.3578
  104OSM   H11G10610   4.634   6.293   9.495 -0.7446  0.5193 -0.3994
  104OSM   C12F10611   4.731   6.405   9.337 -0.5818  0.9301  0.3105
  104OSM   H12F10612   4.786   6.315   9.302 -2.0068  0.1223  0.0999
  104OSM   H12G10613   4.796   6.494   9.328 -0.5803  0.8811 -0.2345
  104OSM   C13F10614   4.600   6.414   9.258  0.2087  0.0246  0.2335
  104OSM   H13F10615   4.519   6.440   9.331  0.5558 -0.9544  0.9825
  104OSM   H13G10616   4.573   6.308   9.238  0.8646 -0.2146  0.6001
  104OSM   C14F10617   4.593   6.508   9.141 -0.4073  0.0790 -0.1254
  104OSM   H14F10618   4.638   6.603   9.178 -0.7121 -0.0778  0.6633
  104OSM   H14G10619   4.489   6.536   9.113  0.7396  1.3594 -3.3641
  104OSM   C15F10620   4.650   6.441   9.010  0.0155 -0.4782 -0.0852
  104OSM   H15F10621   4.634   6.510   8.925  0.3965  0.0282  0.2559
  104OSM   H15G10622   4.588   6.350   8.992  0.2364 -1.3421  3.1776
  104OSM   C16F10623   4.805   6.432   9.010  0.0823  1.0273  0.3985
  104OSM   H16F10624   4.836   6.361   8.931 -1.7080 -0.7515  1.2286
  104OSM   H16G10625   4.836   6.382   9.104 -1.0112 -0.6760 -0.1146
  104OSM   C17F10626   4.895   6.545   8.983  0.3727  0.3017 -0.5787
  104OSM   H17F10627   4.998   6.514   8.954  1.6581  2.4830  1.4864
  104OSM   H17G10628   4.897   6.607   9.074 -1.2151 -0.7682  0.2081
  104OSM   C18F10629   4.851   6.630   8.866  0.2673  0.5383 -0.7931
  104OSM   H18F10630   4.935   6.694   8.831  1.4946 -1.0793 -0.8774
  104OSM   H18G10631   4.769   6.699   8.896 -1.7446 -2.8786  1.8575
  104OSM   H18H10632   4.817   6.576   8.775 -0.0423 -0.0320 -0.3366
  105OSM      N10633   1.458   2.599  11.094  0.1259  0.1910  0.0160
  105OSM    C1510634   1.596   2.670  11.113 -0.4798 -0.1377 -0.8121
  105OSM   H15A10635   1.630   2.693  11.013  0.2159  1.8917 -0.1213
  105OSM   H15B10636   1.662   2.596  11.156 -1.1745 -0.3144 -0.0358
  105OSM   H15C10637   1.582   2.755  11.177 -2.9453 -0.0839 -1.3604
  105OSM    C1410638   1.488   2.469  11.018  0.1049 -0.2263  0.3209
  105OSM   H14A10639   1.546   2.399  11.076  0.7473 -3.2172 -3.7636
  105OSM   H14B10640   1.542   2.489  10.927  0.8806  0.4861  0.9269
  105OSM   H14C10641   1.395   2.417  11.000 -0.1122 -0.2268  1.3980
  105OSM    C1310642   1.401   2.555  11.224 -0.5762  0.2727  0.7271
  105OSM   H13A10643   1.467   2.487  11.276 -0.1759  0.2883  0.2437
  105OSM   H13B10644   1.309   2.502  11.206 -1.1740  2.0432 -1.7105
  105OSM   H13C10645   1.400   2.642  11.289 -1.3952 -0.0278  1.1141
  105OSM    C1210646   1.358   2.680  11.017 -0.2576 -0.5693  0.1132
  105OSM   H12A10647   1.392   2.692  10.915  0.4210 -1.0749  0.2720
  105OSM   H12B10648   1.352   2.779  11.059 -0.2432  0.9694 -3.3466
  105OSM    C1110649   1.211   2.626  11.020  0.1630 -0.6674  0.3373
  105OSM   H11A10650   1.156   2.711  10.974 -1.1448 -0.6679  1.8683
  105OSM   H11B10651   1.182   2.615  11.127  0.0018 -0.1871  0.3450
  105OSM      P10652   1.108   2.374  11.002  0.2115  0.1644  0.6725
  105OSM    O1310653   1.168   2.317  11.117 -0.7795  0.2464  0.0112
  105OSM    O1410654   0.974   2.428  11.011  0.8945 -0.5057  0.3810
  105OSM    O1110655   1.114   2.279  10.886  0.2224  0.0209 -0.3010
  105OSM    O1210656   1.196   2.495  10.944  0.4747 -0.2086  0.5782
  105OSM    C1S10657   1.036   2.297  10.764  0.1380 -0.4202 -0.2304
  105OSM    H1S10658   1.024   2.403  10.733 -1.3789 -1.3423 -2.9191
  105OSM    H1T10659   0.938   2.246  10.768 -0.3327  0.0534 -3.9757
  105OSM     NF10660   1.048   2.253  10.513  0.7819 -0.2203 -0.3252
  105OSM    HNF10661   0.995   2.185  10.461 -1.0561  0.8911  0.0420
  105OSM    C2S10662   1.108   2.229  10.643 -0.7034  0.1839 -0.1984
  105OSM    H2S10663   1.209   2.275  10.634 -0.5654 -0.4024 -1.7219
  105OSM    C3S10664   1.132   2.072  10.668  0.0872  0.6731 -0.2739
  105OSM    H3S10665   1.039   2.014  10.685  1.3021 -1.0687  0.5380
  105OSM     O310666   1.202   2.057  10.798  0.0672  0.4180 -0.0785
  105OSM    HO310667   1.201   2.143  10.840 -1.9231  0.7620 -0.8115
  105OSM    C4S10668   1.216   2.019  10.552  0.5590 -0.1053  0.4571
  105OSM    H4S10669   1.321   2.049  10.542  0.8118 -0.0684  2.9818
  105OSM    C5S10670   1.172   1.918  10.473 -1.0741  1.0413  1.2321
  105OSM    H5S10671   1.079   1.864  10.498 -0.7653 -0.4882 -0.8134
  105OSM    C6S10672   1.256   1.861  10.355 -0.5481 -0.5162  0.1949
  105OSM    H6S10673   1.178   1.827  10.284 -0.6118  1.0864 -0.5406
  105OSM    H6T10674   1.320   1.777  10.389  2.5787  1.3063 -0.8987
  105OSM    C7S10675   1.357   1.940  10.273  0.4844  0.7702  0.3471
  105OSM    H7S10676   1.433   1.872  10.230 -3.3703 -3.3242 -0.3545
  105OSM    H7T10677   1.397   2.019  10.339  1.0935 -0.2237  1.1674
  105OSM    C8S10678   1.295   2.013  10.149  0.7049  0.3957  0.6446
  105OSM    H8S10679   1.196   2.049  10.182 -0.1656 -1.3964  0.0431
  105OSM    H8T10680   1.279   1.934  10.073  0.9663  1.7832 -0.8951
  105OSM    C9S10681   1.385   2.123  10.086 -0.5332  0.4294  0.5470
  105OSM    H9S10682   1.488   2.089  10.064 -1.1783  0.5018 -2.8605
  105OSM    H9T10683   1.399   2.197  10.168 -4.2552  1.1392  0.6420
  105OSM   C10S10684   1.331   2.189   9.960  1.0407  0.0751 -0.0848
  105OSM   H10S10685   1.233   2.239   9.970  0.7481  0.7843 -5.3533
  105OSM   H10T10686   1.319   2.116   9.878 -0.4649 -2.4819  2.3074
  105OSM   C11S10687   1.431   2.300   9.923  0.1735  0.2409 -0.3979
  105OSM   H11S10688   1.535   2.262   9.919 -0.1009 -0.3635 -2.3520
  105OSM   H11T10689   1.433   2.361  10.015 -1.3108 -1.0979  0.5574
  105OSM   C12S10690   1.390   2.392   9.805  0.3441 -0.1208 -0.7749
  105OSM   H12S10691   1.459   2.479   9.815  1.0162 -0.3397 -3.2299
  105OSM   H12T10692   1.290   2.439   9.805  0.4993  0.3147  1.9523
  105OSM   C13S10693   1.427   2.338   9.665 -0.2535  1.1060  0.0341
  105OSM   H13S10694   1.400   2.230   9.659  3.1756  0.2128 -0.6103
  105OSM   H13T10695   1.538   2.338   9.659 -0.1645 -0.6178  1.2852
  105OSM   C14S10696   1.374   2.420   9.548  0.8849  0.2215 -0.2119
  105OSM   H14S10697   1.410   2.520   9.581 -1.2199  0.6575  0.8819
  105OSM   H14T10698   1.264   2.431   9.556  0.9172 -0.0496  0.5747
  105OSM   C15S10699   1.419   2.381   9.409  0.6959 -0.6236 -0.0928
  105OSM   H15S10700   1.369   2.285   9.383  0.6635 -1.1896  1.9690
  105OSM   H15T10701   1.529   2.364   9.420  0.7756 -0.2166 -0.2446
  105OSM   C16S10702   1.395   2.482   9.292 -0.6563  0.3903  0.2743
  105OSM   H16S10703   1.425   2.583   9.329  0.9312 -0.0281  0.1799
  105OSM   H16T10704   1.286   2.490   9.273 -0.6472  1.1139  0.4968
  105OSM   C17S10705   1.472   2.451   9.163  0.5125  0.6398  0.2345
  105OSM   H17S10706   1.425   2.358   9.125 -2.3770  2.5683 -1.0959
  105OSM   H17T10707   1.582   2.432   9.171  0.7732  1.3562 -1.4108
  105OSM   C18S10708   1.460   2.555   9.047  0.3442  0.6241  0.4535
  105OSM   H18S10709   1.468   2.513   8.945 -0.7178  1.1412  0.1467
  105OSM   H18T10710   1.532   2.639   9.052 -1.4887  2.2691 -0.0877
  105OSM   H18U10711   1.359   2.600   9.056  1.4757  3.1187  0.8645
  105OSM    C1F10712   1.046   2.377  10.464  0.5652 -0.3285  0.8867
  105OSM     OF10713   1.109   2.467  10.516  0.0725 -0.1955 -0.1639
  105OSM    C2F10714   0.964   2.402  10.337  0.3907  0.0604 -0.2250
  105OSM    H2F10715   0.925   2.506  10.327 -0.0788 -0.1420 -0.4950
  105OSM    H2G10716   0.881   2.329  10.339 -0.2014  0.6765 -1.9672
  105OSM    C3F10717   1.049   2.375  10.214 -0.4379 -0.2671 -0.0666
  105OSM    H3F10718   1.083   2.269  10.210 -0.2102 -0.1311 -2.3389
  105OSM    H3G10719   1.141   2.435  10.225 -1.5463  1.1351  1.6716
  105OSM    C4F10720   0.982   2.391  10.082 -0.2230 -0.0435  0.1357
  105OSM    H4F10721   0.906   2.311  10.065 -1.1071  1.0072 -1.0159
  105OSM    H4G10722   1.048   2.365   9.997 -1.1835  1.1053 -1.0015
  105OSM    C5F10723   0.935   2.530  10.042  0.1261  0.3249 -0.2914
  105OSM    H5F10724   1.003   2.613  10.069 -1.5617  2.0703 -1.3285
  105OSM    H5G10725   0.840   2.546  10.096  0.0869  0.6902 -0.4686
  105OSM    C6F10726   0.920   2.543   9.889 -0.1482  0.1942  0.8382
  105OSM    H6F10727   1.016   2.516   9.840 -1.7169 -0.5217 -1.9408
  105OSM    H6G10728   0.903   2.652   9.872 -0.8488  0.1871  1.4461
  105OSM    C7F10729   0.805   2.470   9.828 -0.0310  0.1643  0.0874
  105OSM    H7F10730   0.709   2.514   9.865  0.3569  0.6170  0.5601
  105OSM    H7G10731   0.810   2.361   9.849  0.2813  0.2919  0.6971
  105OSM    C8F10732   0.800   2.492   9.676 -0.3956 -0.1139  0.1987
  105OSM    H8F10733   0.783   2.600   9.657  0.4908  0.1955  1.0603
  105OSM    H8G10734   0.719   2.442   9.619 -2.0500  0.6661  1.7956
  105OSM    C9F10735   0.932   2.444   9.614  0.3280 -0.0215 -0.3687
  105OSM    H9F10736   0.972   2.348   9.649  0.8247  1.4198  3.2185
  105OSM   C10F10737   1.002   2.517   9.521  0.2871 -0.1369  0.0933
  105OSM   H10F10738   1.095   2.485   9.473  0.5684  2.5651 -1.2595
  105OSM   C11F10739   0.955   2.642   9.457 -0.2273  0.1080 -0.0570
  105OSM   H11F10740   1.014   2.728   9.497 -0.1338 -0.9017  2.0173
  105OSM   H11G10741   0.847   2.656   9.479 -0.4658 -1.9856  0.2383
  105OSM   C12F10742   0.990   2.624   9.311 -0.2539  0.1988 -0.7589
  105OSM   H12F10743   0.935   2.540   9.264 -1.7303  0.6945  0.0582
  105OSM   H12G10744   1.099   2.621   9.292  0.3830  0.2360  2.6047
  105OSM   C13F10745   0.935   2.748   9.233 -0.0972  0.9136  0.2855
  105OSM   H13F10746   0.983   2.839   9.274  0.2806  0.5324  0.6957
  105OSM   H13G10747   0.825   2.759   9.244 -0.7001 -2.0270 -2.0950
  105OSM   C14F10748   0.952   2.730   9.080  0.0640  0.1241 -0.2361
  105OSM   H14F10749   0.897   2.636   9.061 -3.7169  2.3940 -1.0199
  105OSM   H14G10750   1.058   2.712   9.053 -0.1659  1.5117 -2.1490
  105OSM   C15F10751   0.895   2.842   8.990  0.3121 -0.3042  0.1130
  105OSM   H15F10752   0.964   2.923   8.959 -1.9137  1.7242  0.3377
  105OSM   H15G10753   0.800   2.882   9.031  0.7429 -1.8044  2.7071
  105OSM   C16F10754   0.844   2.781   8.855  0.3562  0.8679  0.3502
  105OSM   H16F10755   0.780   2.853   8.800  1.5027  1.3933 -0.3294
  105OSM   H16G10756   0.787   2.690   8.881  2.1534 -0.8281 -1.4752
  105OSM   C17F10757   0.962   2.741   8.767  0.2062  0.2217  0.1025
  105OSM   H17F10758   0.929   2.649   8.714  0.1234  0.0565  0.4469
  105OSM   H17G10759   1.054   2.706   8.819 -0.7654  0.7524  2.1822
  105OSM   C18F10760   0.995   2.852   8.664  0.5148 -0.2205  0.5099
  105OSM   H18F10761   1.028   2.946   8.713 -1.8134  0.6306  0.5321
  105OSM   H18G10762   0.901   2.873   8.608  0.5493  0.4384  0.6975
  105OSM   H18H10763   1.060   2.828   8.578  0.9639  2.1131  0.1688
  106OSM      N10764   6.786   1.242  10.800 -0.3564 -0.2528 -1.1223
  106OSM    C1510765   6.774   1.253  10.657 -0.2450 -0.5806 -0.2546
  106OSM   H15A10766   6.860   1.221  10.600 -1.4609 -0.3572 -2.2518
  106OSM   H15B10767   6.780   1.358  10.635  0.2265 -0.8988 -1.6275
  106OSM   H15C10768   6.686   1.207  10.613 -0.7056  1.5216 -1.5719
  106OSM    C1410769   6.756   1.100  10.837  0.5518  0.5930  0.1044
  106OSM   H14A10770   6.812   1.037  10.769  0.4552  1.5352 -0.8633
  106OSM   H14B10771   6.657   1.076  10.802  0.2147  2.0497  0.0370
  106OSM   H14C10772   6.760   1.072  10.941 -1.1129  0.2550  0.0872
  106OSM    C1310773   6.929   1.271  10.837 -0.2262 -0.1009  0.2757
  106OSM   H13A10774   6.970   1.362  10.794  1.2162 -1.5029 -1.4286
  106OSM   H13B10775   6.981   1.182  10.805 -1.4043 -0.9313  0.6667
  106OSM   H13C10776   6.944   1.274  10.944  0.2266  1.0649  0.1887
  106OSM    C1210777   6.698   1.335  10.876 -0.2658 -0.1525 -0.3857
  106OSM   H12A10778   6.704   1.312  10.981  1.0684 -1.8715 -0.8178
  106OSM   H12B10779   6.596   1.314  10.849  0.1557  0.5241 -2.6119
  106OSM    C1110780   6.700   1.490  10.865  0.7500 -0.0959  0.5673
  106OSM   H11A10781   6.804   1.518  10.893  0.9635 -0.5945  0.2549
  106OSM   H11B10782   6.626   1.537  10.933  0.9242 -2.2510  2.2978
  106OSM      P10783   6.536   1.590  10.677 -0.1242  0.0585  0.2240
  106OSM    O1310784   6.434   1.500  10.731  0.1203 -0.3011  0.6101
  106OSM    O1410785   6.527   1.734  10.710 -0.3182 -0.0828  0.1495
  106OSM    O1110786   6.531   1.575  10.518 -0.2108 -0.1769 -0.2996
  106OSM    O1210787   6.678   1.537  10.727 -0.0068  0.3817 -0.2891
  106OSM    C1S10788   6.652   1.608  10.453  0.6191 -0.3620  0.0037
  106OSM    H1S10789   6.718   1.519  10.460  0.5074 -0.4667 -0.2522
  106OSM    H1T10790   6.703   1.699  10.491 -0.7589  0.4293 -0.0286
  106OSM     NF10791   6.736   1.643  10.218 -0.1289  0.2579 -0.7562
  106OSM    HNF10792   6.753   1.730  10.174  0.1642  0.6630  0.1504
  106OSM    C2S10793   6.620   1.639  10.302 -0.6493  0.3263 -0.7035
  106OSM    H2S10794   6.566   1.549  10.266  2.3645 -1.7766 -0.0972
  106OSM    C3S10795   6.532   1.767  10.290  0.2522 -0.3409 -0.2980
  106OSM    H3S10796   6.598   1.847  10.330  1.5598 -1.1390 -0.8332
  106OSM     O310797   6.407   1.755  10.355 -1.0395  0.2752  0.2391
  106OSM    HO310798   6.420   1.679  10.413 -0.8660  0.5155  0.5179
  106OSM    C4S10799   6.515   1.801  10.147 -0.1827  0.0307 -0.0505
  106OSM    H4S10800   6.584   1.881  10.118 -1.1344  1.1327  0.7224
  106OSM    C5S10801   6.413   1.756  10.065 -0.2792 -0.2529 -0.0262
  106OSM    H5S10802   6.341   1.680  10.102  0.2629  1.0989  4.0560
  106OSM    C6S10803   6.399   1.783   9.917  0.0225 -0.3070  0.2102
  106OSM    H6S10804   6.316   1.852   9.894  1.2226  0.3930 -2.1907
  106OSM    H6T10805   6.358   1.687   9.879  0.2334 -0.3448  0.0779
  106OSM    C7S10806   6.517   1.845   9.840  0.2456 -0.8409 -0.3962
  106OSM    H7S10807   6.551   1.943   9.880 -0.8259 -0.1454 -1.1587
  106OSM    H7T10808   6.494   1.879   9.737 -1.0661  1.5199  0.6177
  106OSM    C8S10809   6.635   1.741   9.829  0.0331 -0.3859  0.1323
  106OSM    H8S10810   6.575   1.656   9.791 -1.1404  0.2716  0.4550
  106OSM    H8T10811   6.677   1.713   9.928  3.5177  3.3301 -0.1347
  106OSM    C9S10812   6.740   1.795   9.727 -0.8044  0.1785 -0.5665
  106OSM    H9S10813   6.824   1.722   9.723  1.1973  2.3124  1.4491
  106OSM    H9T10814   6.781   1.891   9.763  2.6327 -1.6271  0.6087
  106OSM   C10S10815   6.688   1.815   9.581 -0.5165 -0.4825  0.2271
  106OSM   H10S10816   6.622   1.904   9.575  1.5755  1.1090  0.0961
  106OSM   H10T10817   6.622   1.729   9.559  0.0178 -0.7779 -0.2343
  106OSM   C11S10818   6.796   1.839   9.475  0.2521  0.6048 -0.5738
  106OSM   H11S10819   6.867   1.756   9.495 -0.6431  0.0187  0.2324
  106OSM   H11T10820   6.839   1.940   9.491  0.3631  0.3146  1.1019
  106OSM   C12S10821   6.732   1.828   9.340 -0.0585 -0.3939  0.5604
  106OSM   H12S10822   6.633   1.879   9.342  0.3248  0.3497  1.0314
  106OSM   H12T10823   6.703   1.722   9.323 -0.7902  0.0794 -1.2062
  106OSM   C13S10824   6.812   1.891   9.231 -0.6567 -0.5902  0.2079
  106OSM   H13S10825   6.919   1.877   9.256 -0.2572  2.0994  0.1639
  106OSM   H13T10826   6.804   2.001   9.229  2.1792 -0.3507 -0.0516
  106OSM   C14S10827   6.778   1.829   9.093  0.3370  0.1154 -0.3213
  106OSM   H14S10828   6.721   1.734   9.096  1.5235 -0.5724  0.6450
  106OSM   H14T10829   6.878   1.813   9.049  0.4451  0.5504 -0.2290
  106OSM   C15S10830   6.707   1.925   9.001 -0.2109  0.0158 -0.4612
  106OSM   H15S10831   6.781   2.006   8.982  1.7555 -1.1794  1.7323
  106OSM   H15T10832   6.622   1.976   9.051  0.3656  2.8778 -2.2804
  106OSM   C16S10833   6.657   1.879   8.866  0.3712 -0.0994  0.2742
  106OSM   H16S10834   6.550   1.848   8.862 -0.0676  1.6662 -3.6369
  106OSM   H16T10835   6.726   1.798   8.834 -0.2141 -0.1002 -0.9951
  106OSM   C17S10836   6.659   1.993   8.764 -0.4366 -0.0447 -0.0970
  106OSM   H17S10837   6.618   1.951   8.670 -0.4538  1.4643 -0.7747
  106OSM   H17T10838   6.767   2.015   8.752 -0.1895 -1.0645  0.2089
  106OSM   C18S10839   6.581   2.120   8.811 -1.1630 -0.4404  0.5481
  106OSM   H18S10840   6.476   2.091   8.830 -1.6293  1.5582  1.2069
  106OSM   H18T10841   6.584   2.202   8.735  0.5258  1.0060  2.1279
  106OSM   H18U10842   6.609   2.163   8.910  0.3493 -1.5020  0.5964
  106OSM    C1F10843   6.799   1.532  10.196  0.4075 -0.1660 -0.1687
  106OSM     OF10844   6.780   1.422  10.246 -0.4050  0.2128 -0.0682
  106OSM    C2F10845   6.914   1.532  10.094 -1.3363  0.1113  0.7077
  106OSM    H2F10846   6.999   1.494  10.155 -0.5264  0.1208 -0.4137
  106OSM    H2G10847   6.939   1.639  10.074  1.6736 -0.2830  2.0223
  106OSM    C3F10848   6.876   1.470   9.957  0.4968 -0.0112 -0.3732
  106OSM    H3F10849   6.772   1.495   9.929  1.1121 -0.0787 -2.8408
  106OSM    H3G10850   6.885   1.361   9.976 -3.2651 -0.1371  1.1032
  106OSM    C4F10851   6.970   1.492   9.844  0.4973 -0.1954 -0.3878
  106OSM    H4F10852   6.955   1.593   9.800  0.6620 -0.1770 -0.3986
  106OSM    H4G10853   6.950   1.423   9.759  0.5650 -1.4053  0.5762
  106OSM    C5F10854   7.115   1.488   9.879 -0.5474  0.5686  0.0212
  106OSM    H5F10855   7.121   1.410   9.957  0.7672 -0.0486 -0.6847
  106OSM    H5G10856   7.160   1.582   9.920 -0.7503  2.2532 -3.4423
  106OSM    C6F10857   7.205   1.427   9.769 -0.8967 -0.8749  0.6544
  106OSM    H6F10858   7.148   1.337   9.739 -2.1432  0.2330 -0.3778
  106OSM    H6G10859   7.302   1.396   9.814 -1.6985 -2.9183  1.0294
  106OSM    C7F10860   7.221   1.518   9.641  0.1647 -0.3092  0.4636
  106OSM    H7F10861   7.279   1.611   9.663 -1.2279  0.7317 -0.1866
  106OSM    H7G10862   7.120   1.550   9.608  0.7809  1.8882  0.5692
  106OSM    C8F10863   7.287   1.440   9.526  0.5381 -0.7116 -0.2239
  106OSM    H8F10864   7.230   1.350   9.492  0.1343 -0.7040  0.4133
  106OSM    H8G10865   7.391   1.409   9.549  2.0227  2.4160 -2.3905
  106OSM    C9F10866   7.303   1.533   9.414 -0.6985 -0.1304  0.1030
  106OSM    H9F10867   7.367   1.620   9.435  0.2648 -0.8748  0.2927
  106OSM   C10F10868   7.271   1.508   9.291 -0.3525  0.5418 -0.5658
  106OSM   H10F10869   7.325   1.562   9.211  3.5966  0.0518  1.6255
  106OSM   C11F10870   7.211   1.388   9.240 -0.6864  0.1261 -0.7093
  106OSM   H11F10871   7.107   1.381   9.277 -0.7150 -1.9468 -1.1486
  106OSM   H11G10872   7.271   1.301   9.275  0.0479  1.3230  1.0930
  106OSM   C12F10873   7.212   1.365   9.085 -0.0072  0.0897 -0.1761
  106OSM   H12F10874   7.318   1.363   9.052 -0.2191  1.0193 -0.9217
  106OSM   H12G10875   7.172   1.455   9.034  0.0512 -0.0112 -0.3969
  106OSM   C13F10876   7.137   1.240   9.043 -0.3421 -0.1585  0.2959
  106OSM   H13F10877   7.029   1.254   9.019 -0.1853 -1.9315 -1.5287
  106OSM   H13G10878   7.145   1.166   9.125  1.2173 -2.7518 -2.0955
  106OSM   C14F10879   7.176   1.173   8.905 -0.1351  0.2320 -0.6678
  106OSM   H14F10880   7.286   1.159   8.916 -0.1320  0.0848 -0.8788
  106OSM   H14G10881   7.163   1.228   8.809 -0.2517 -0.3638 -0.9941
  106OSM   C15F10882   7.118   1.035   8.883  0.1855 -0.2399 -1.3219
  106OSM   H15F10883   7.008   1.045   8.873 -0.0259 -0.3537  0.7233
  106OSM   H15G10884   7.138   0.980   8.978 -1.6176  1.5069  0.1180
  106OSM   C16F10885   7.181   0.958   8.770 -0.5563  0.5240 -0.4496
  106OSM   H16F10886   7.292   0.957   8.777 -0.5431  1.4414 -0.4701
  106OSM   H16G10887   7.175   1.009   8.671 -0.1793  0.2694 -0.6070
  106OSM   C17F10888   7.126   0.812   8.744 -0.2952  0.0307  0.3817
  106OSM   H17F10889   7.025   0.819   8.699  0.1405 -2.2429 -0.9762
  106OSM   H17G10890   7.123   0.764   8.845  1.6739 -2.4738 -0.6913
  106OSM   C18F10891   7.212   0.723   8.651  0.1190 -0.3210  0.1005
  106OSM   H18F10892   7.304   0.696   8.708  0.2135 -0.5946 -0.1840
  106OSM   H18G10893   7.233   0.771   8.552  1.0675  0.2232  0.5599
  106OSM   H18H10894   7.156   0.629   8.633  0.5591 -0.2648 -1.7225
  107OSM      N10895   3.328   6.774  11.131  0.1354 -0.0645 -0.4458
  107OSM    C1510896   3.424   6.885  11.109  0.2588 -0.9318 -0.0441
  107OSM   H15A10897   3.383   6.979  11.142 -0.5708 -1.6583  1.0269
  107OSM   H15B10898   3.440   6.887  11.002 -0.5156 -1.7010 -0.1741
  107OSM   H15C10899   3.516   6.872  11.164 -0.7748 -2.5607  1.3223
  107OSM    C1410900   3.397   6.644  11.106  0.0870  0.8939 -0.1985
  107OSM   H14A10901   3.465   6.629  11.189 -1.0133 -1.1398  0.3591
  107OSM   H14B10902   3.463   6.660  11.022  0.6268 -0.3323 -0.0260
  107OSM   H14C10903   3.337   6.558  11.083  0.8762  0.1700  0.3908
  107OSM    C1310904   3.296   6.788  11.272  0.6959  0.2288 -0.5156
  107OSM   H13A10905   3.246   6.700  11.311  0.1871  0.8632  0.2889
  107OSM   H13B10906   3.223   6.864  11.296 -0.3747 -0.5264 -1.3571
  107OSM   H13C10907   3.380   6.810  11.336 -0.0071  1.9564 -0.1514
  107OSM    C1210908   3.213   6.783  11.033  0.2443 -0.3967 -0.2545
  107OSM   H12A10909   3.252   6.781  10.933 -0.4595 -2.8494 -0.5077
  107OSM   H12B10910   3.170   6.880  11.053  0.6580 -0.5807  1.6401
  107OSM    C1110911   3.104   6.675  11.049  0.1745  0.8763 -0.0385
  107OSM   H11A10912   3.010   6.694  10.993 -0.6209 -0.2480  0.9042
  107OSM   H11B10913   3.072   6.672  11.155 -0.4416 -3.6962 -0.2598
  107OSM      P10914   3.190   6.504  10.868 -0.0317  0.3973  0.3716
  107OSM    O1310915   3.317   6.430  10.879  0.6422 -0.1902  0.2848
  107OSM    O1410916   3.071   6.437  10.812  0.4641  0.6597 -0.2784
  107OSM    O1110917   3.215   6.645  10.794  0.0139  0.6116  0.2197
  107OSM    O1210918   3.158   6.549  11.018  0.0562  0.5305  1.1044
  107OSM    C1S10919   3.312   6.657  10.691  0.5802  0.7601  0.2693
  107OSM    H1S10920   3.407   6.611  10.726 -0.5504  0.4183  3.0039
  107OSM    H1T10921   3.323   6.764  10.662 -1.4524  0.9457  0.1506
  107OSM     NF10922   3.393   6.564  10.469  0.1708  0.3180 -0.0836
  107OSM    HNF10923   3.415   6.620  10.389  0.3416  0.0318 -0.2377
  107OSM    C2S10924   3.273   6.585  10.556  0.7193  0.2850  0.5624
  107OSM    H2S10925   3.232   6.485  10.582  0.0048 -0.0590 -1.7772
  107OSM    C3S10926   3.151   6.657  10.489  0.3426  0.0006  0.4754
  107OSM    H3S10927   3.182   6.761  10.464 -0.6760 -0.0480 -1.0517
  107OSM     O310928   3.045   6.677  10.585 -0.5000 -0.6501  0.3907
  107OSM    HO310929   3.096   6.677  10.667 -0.1126  0.0986  0.1596
  107OSM    C4S10930   3.110   6.590  10.361  0.2321 -0.1053 -0.3442
  107OSM    H4S10931   3.145   6.649  10.275 -0.0613  1.0571  0.3232
  107OSM    C5S10932   3.017   6.487  10.345 -0.7086  0.4476 -0.4910
  107OSM    H5S10933   2.957   6.457  10.432  1.0586 -1.7953 -0.0198
  107OSM    C6S10934   2.976   6.431  10.206  0.2412  0.5305 -0.5969
  107OSM    H6S10935   2.866   6.437  10.194  0.2192  0.6899 -0.3244
  107OSM    H6T10936   3.006   6.324  10.210 -3.1299 -0.4510 -0.1872
  107OSM    C7S10937   3.036   6.498  10.082  0.2412  0.1085  0.3815
  107OSM    H7S10938   3.142   6.466  10.093 -0.1144 -1.6115 -0.8713
  107OSM    H7T10939   3.042   6.607  10.098 -1.9647 -0.0578  2.6754
  107OSM    C8S10940   2.952   6.458   9.960  0.0784  0.2655 -0.2607
  107OSM    H8S10941   2.849   6.497   9.976 -0.1424 -1.3698  2.5777
  107OSM    H8T10942   2.938   6.348   9.949  2.4601 -0.1061  0.0621
  107OSM    C9S10943   3.017   6.490   9.828  0.3967  0.3630 -0.1731
  107OSM    H9S10944   3.126   6.470   9.835  0.0314 -1.5924  0.2283
  107OSM    H9T10945   2.995   6.598   9.812  0.2267  0.2517 -0.7192
  107OSM   C10S10946   2.953   6.414   9.707 -0.7544 -0.5084 -0.2388
  107OSM   H10S10947   2.855   6.461   9.684 -0.0903  0.4319 -1.1670
  107OSM   H10T10948   2.929   6.308   9.734 -2.8488 -0.2188 -0.8895
  107OSM   C11S10949   3.052   6.415   9.585  0.5903 -0.3696  0.2520
  107OSM   H11S10950   3.152   6.369   9.598  0.0590 -1.0692  2.0938
  107OSM   H11T10951   3.070   6.524   9.573 -0.6624 -0.3805 -1.8758
  107OSM   C12S10952   2.986   6.348   9.463 -0.0280 -0.3141  0.0779
  107OSM   H12S10953   2.965   6.239   9.469 -1.0264 -0.1902 -0.9508
  107OSM   H12T10954   3.063   6.358   9.384  0.6061  0.1942  0.7550
  107OSM   C13S10955   2.854   6.415   9.414  0.4727 -0.2877  0.4404
  107OSM   H13S10956   2.876   6.524   9.418  1.4400 -0.4983  1.0688
  107OSM   H13T10957   2.781   6.398   9.495 -0.6918 -0.2758 -0.5905
  107OSM   C14S10958   2.807   6.365   9.279 -0.1895  0.0238 -0.1884
  107OSM   H14S10959   2.811   6.254   9.279  0.6691  0.0489  1.2401
  107OSM   H14T10960   2.847   6.419   9.191 -0.4195  0.4587 -0.0244
  107OSM   C15S10961   2.653   6.380   9.265  0.1075  0.1617 -0.2177
  107OSM   H15S10962   2.640   6.485   9.300  1.6098  0.3879 -0.3092
  107OSM   H15T10963   2.595   6.305   9.322  0.8096  0.7689  1.3339
  107OSM   C16S10964   2.603   6.376   9.114 -0.1680 -0.1068  0.5891
  107OSM   H16S10965   2.587   6.269   9.085  0.8308 -0.0200 -0.3176
  107OSM   H16T10966   2.670   6.432   9.046 -1.4157 -3.0431 -3.2693
  107OSM   C17S10967   2.464   6.441   9.083 -0.3639 -0.2009  0.1719
  107OSM   H17S10968   2.454   6.441   8.973  0.3451  0.5218  0.1074
  107OSM   H17T10969   2.462   6.549   9.107  0.9531  0.0846 -0.9258
  107OSM   C18S10970   2.340   6.372   9.146  0.3557  0.4144  0.5907
  107OSM   H18S10971   2.311   6.275   9.100 -0.3174  1.0917 -0.4275
  107OSM   H18T10972   2.249   6.435   9.142 -0.5686 -0.8215  1.8633
  107OSM   H18U10973   2.361   6.348   9.252 -0.0043 -1.2219  0.3128
  107OSM    C1F10974   3.492   6.484  10.511  0.2636  0.3806  0.4386
  107OSM     OF10975   3.471   6.391  10.594  0.3752 -0.5012  0.0309
  107OSM    C2F10976   3.621   6.501  10.443 -0.5738 -0.1363 -0.1804
  107OSM    H2F10977   3.702   6.478  10.517 -1.2244 -0.7491  0.3483
  107OSM    H2G10978   3.634   6.608  10.417  0.2312  0.3658  2.0962
  107OSM    C3F10979   3.638   6.398  10.325  0.0110 -0.4123  0.0050
  107OSM    H3F10980   3.582   6.422  10.232  2.7354 -1.3147 -1.9269
  107OSM    H3G10981   3.614   6.302  10.374 -0.6986  0.3162  1.1079
  107OSM    C4F10982   3.787   6.382  10.282 -0.0300 -0.3357 -1.1170
  107OSM    H4F10983   3.848   6.369  10.374 -0.8856 -1.1634 -0.6609
  107OSM    H4G10984   3.812   6.483  10.241 -2.7967  1.1135  0.6172
  107OSM    C5F10985   3.810   6.256  10.189  0.1301  0.3993 -0.1201
  107OSM    H5F10986   3.770   6.163  10.236 -1.2658  0.8558 -0.3783
  107OSM    H5G10987   3.920   6.241  10.194 -0.0058 -0.5547  0.0745
  107OSM    C6F10988   3.762   6.279  10.043  0.2069  0.2580  0.0290
  107OSM    H6F10989   3.806   6.373  10.004 -0.9163  0.4741 -0.7337
  107OSM    H6G10990   3.652   6.294  10.047 -0.3796 -3.3476 -1.2877
  107OSM    C7F10991   3.803   6.159   9.957  0.3675 -0.1864 -0.2178
  107OSM    H7F10992   3.775   6.065  10.009 -1.4650 -0.6262 -1.9224
  107OSM    H7G10993   3.910   6.163   9.927 -0.1290 -0.5691 -2.1157
  107OSM    C8F10994   3.728   6.154   9.822 -0.8354  0.3496 -0.8661
  107OSM    H8F10995   3.619   6.167   9.838 -0.7122 -0.0465  0.4294
  107OSM    H8G10996   3.749   6.053   9.780 -0.0490  0.4960 -0.8386
  107OSM    C9F10997   3.762   6.258   9.718 -0.1738  0.0622  0.7318
  107OSM    H9F10998   3.822   6.343   9.755  0.6737 -0.3230  0.2372
  107OSM   C10F10999   3.741   6.252   9.581 -0.2210 -0.2233  0.1071
  107OSM   H10F11000   3.790   6.330   9.521 -0.1809  0.0017  0.4279
  107OSM   C11F11001   3.675   6.141   9.503 -0.6204  0.6869  0.2549
  107OSM   H11F11002   3.573   6.164   9.465 -1.5790 -4.3480 -0.4920
  107OSM   H11G11003   3.659   6.048   9.561 -0.9796  1.0445  0.7251
  107OSM   C12F11004   3.748   6.086   9.378 -0.2058  0.2509  0.6159
  107OSM   H12F11005   3.714   5.981   9.367 -0.6637  0.4025  0.5884
  107OSM   H12G11006   3.852   6.087   9.417  0.0502  0.6668 -0.0807
  107OSM   C13F11007   3.737   6.169   9.252 -0.6469 -0.7646  0.0689
  107OSM   H13F11008   3.778   6.269   9.276 -1.6972 -0.5949  1.2220
  107OSM   H13G11009   3.631   6.191   9.224 -0.4505  0.2827  0.1355
  107OSM   C14F11010   3.783   6.096   9.126  0.3181  1.1696  0.1045
  107OSM   H14F11011   3.721   6.003   9.124  0.7596  0.8719  0.2320
  107OSM   H14G11012   3.885   6.052   9.127 -0.3816 -0.4986  0.0111
  107OSM   C15F11013   3.776   6.169   8.990 -0.7023 -0.4615 -0.3914
  107OSM   H15F11014   3.857   6.246   8.989  1.8778 -3.0391  1.0759
  107OSM   H15G11015   3.679   6.219   8.970 -1.1131 -0.1294  2.3074
  107OSM   C16F11016   3.776   6.078   8.871  0.2959 -0.2652  0.1915
  107OSM   H16F11017   3.693   6.085   8.796  1.7126  1.7124 -1.2373
  107OSM   H16G11018   3.756   5.977   8.911  1.6109 -0.5903  0.0255
  107OSM   C17F11019   3.912   6.080   8.795 -0.5633 -0.3798  0.5789
  107OSM   H17F11020   3.992   6.090   8.871  2.1022 -0.3212 -2.1536
  107OSM   H17G11021   3.914   6.181   8.748 -1.3518 -0.3016  0.6966
  107OSM   C18F11022   3.931   5.968   8.686  0.5669 -0.1508  0.5042
  107OSM   H18F11023   3.948   5.874   8.742  0.8464 -0.3348  0.1152
  107OSM   H18G11024   4.022   5.990   8.626  0.2879 -1.6802 -0.5162
  107OSM   H18H11025   3.844   5.972   8.617  0.0656  2.7769  1.2492
  108OSM      N11026   0.560   0.746  10.623 -0.1901 -0.1937  0.4222
  108OSM    C1511027   0.464   0.722  10.730 -0.1537 -0.2897 -0.5030
  108OSM   H15A11028   0.413   0.631  10.704 -2.8566 -0.0020  3.3424
  108OSM   H15B11029   0.391   0.802  10.737  0.0677 -0.2519  1.6983
  108OSM   H15C11030   0.511   0.713  10.827 -0.9965 -0.8390 -0.1382
  108OSM    C1411031   0.623   0.879  10.640 -0.7559  0.5059 -0.0715
  108OSM   H14A11032   0.703   0.900  10.570  0.4539 -0.0289  1.1133
  108OSM   H14B11033   0.656   0.893  10.743  1.7491  0.7666 -0.8665
  108OSM   H14C11034   0.551   0.954  10.609 -1.1914  0.6458  1.2387
  108OSM    C1311035   0.668   0.638  10.620 -1.4312 -0.4650 -0.4004
  108OSM   H13A11036   0.718   0.635  10.716 -2.0303  1.6892  0.0295
  108OSM   H13B11037   0.742   0.664  10.547 -1.1304 -1.7494 -0.5498
  108OSM   H13C11038   0.619   0.545  10.597 -2.1886 -0.1855  0.0485
  108OSM    C1211039   0.489   0.759  10.483  1.0828 -0.0961 -0.3320
  108OSM   H12A11040   0.557   0.812  10.418  1.9214  0.7614  1.2070
  108OSM   H12B11041   0.408   0.828  10.501  2.2250  1.5884 -1.5475
  108OSM    C1111042   0.425   0.640  10.416 -0.4416  0.0475  0.0881
  108OSM   H11A11043   0.499   0.558  10.405  1.3026  1.5296  0.4510
  108OSM   H11B11044   0.403   0.675  10.312  1.8779 -0.0314 -0.4480
  108OSM      P11045   0.179   0.676  10.482 -0.3305  0.2796  0.0485
  108OSM    O1311046   0.129   0.677  10.623  0.1530  0.2724 -0.1585
  108OSM    O1411047   0.183   0.804  10.415 -0.0099 -0.2537 -0.2523
  108OSM    O1111048   0.084   0.579  10.405  0.0545  1.2178  0.2655
  108OSM    O1211049   0.318   0.601  10.488  0.5602 -0.2027 -0.6034
  108OSM    C1S11050  -0.061   0.575  10.416  0.1139 -0.0121 -0.2929
  108OSM    H1S11051  -0.100   0.665  10.468 -1.9631 -1.8034  1.3897
  108OSM    H1T11052  -0.095   0.484  10.471  0.9858 -0.4032 -0.3868
  108OSM     NF11053  -0.268   0.565  10.288 -0.2998 -0.5515 -0.8020
  108OSM    HNF11054  -0.320   0.480  10.294 -1.8372  0.5388  3.0976
  108OSM    C2S11055  -0.124   0.554  10.277  1.1501  0.2370 -0.5865
  108OSM    H2S11056  -0.078   0.634  10.215  1.4449 -0.8040 -1.7234
  108OSM    C3S11057  -0.069   0.412  10.224  0.0190  0.3385 -0.7137
  108OSM    H3S11058  -0.117   0.327  10.277  1.6344 -0.5563 -0.6433
  108OSM     O311059   0.067   0.375  10.257 -0.0418 -0.2284  0.1478
  108OSM    HO311060   0.097   0.445  10.315 -1.3580 -0.1203  0.7010
  108OSM    C4S11061  -0.118   0.394  10.077  0.6025  0.0325 -0.3084
  108OSM    H4S11062  -0.212   0.337  10.075  1.4973 -1.4284 -2.1002
  108OSM    C5S11063  -0.052   0.414   9.962  0.4397  0.4623  0.5222
  108OSM    H5S11064   0.050   0.454   9.964  0.0895  1.4023 -0.4829
  108OSM    C6S11065  -0.113   0.390   9.827 -0.4103  0.2292 -0.5956
  108OSM    H6S11066  -0.028   0.382   9.756  1.0357  0.3756  1.0947
  108OSM    H6T11067  -0.172   0.482   9.808 -1.0116  0.3533  1.7296
  108OSM    C7S11068  -0.199   0.258   9.813 -0.0244 -0.7271 -0.7515
  108OSM    H7S11069  -0.292   0.263   9.873 -0.2272 -1.5922 -0.9863
  108OSM    H7T11070  -0.134   0.172   9.841 -0.4267 -1.2809 -1.5029
  108OSM    C8S11071  -0.249   0.227   9.672  0.5835 -0.1720  0.2454
  108OSM    H8S11072  -0.322   0.144   9.688  3.0271 -2.3578  0.3112
  108OSM    H8T11073  -0.168   0.194   9.604  1.8371 -1.6864  2.4493
  108OSM    C9S11074  -0.321   0.345   9.609  0.1709  0.5570 -0.4632
  108OSM    H9S11075  -0.239   0.408   9.570  0.0270  0.6564 -0.6055
  108OSM    H9T11076  -0.383   0.390   9.690  1.1212 -0.3459  0.7885
  108OSM   C10S11077  -0.402   0.318   9.487 -0.4636 -0.1074  0.4380
  108OSM   H10S11078  -0.463   0.410   9.474  0.6722  0.1705 -3.5391
  108OSM   H10T11079  -0.473   0.236   9.509 -0.7835 -1.0511 -3.6696
  108OSM   C11S11080  -0.322   0.296   9.362 -0.1496  0.1478  0.6041
  108OSM   H11S11081  -0.258   0.205   9.366 -1.3700 -0.7390  0.0856
  108OSM   H11T11082  -0.267   0.387   9.331 -1.8414  0.4507 -1.6305
  108OSM   C12S11083  -0.418   0.283   9.235 -0.0435 -0.1465  0.4072
  108OSM   H12S11084  -0.454   0.386   9.213 -0.3530 -0.5330 -0.9381
  108OSM   H12T11085  -0.508   0.228   9.269  0.6479 -0.9705  0.9128
  108OSM   C13S11086  -0.344   0.233   9.113 -0.7196 -0.5295  0.3071
  108OSM   H13S11087  -0.303   0.129   9.112 -2.0841 -1.0827 -1.1698
  108OSM   H13T11088  -0.267   0.305   9.080 -1.0631 -0.0692  0.5171
  108OSM   C14S11089  -0.452   0.223   8.998 -0.3663 -0.4632  0.0213
  108OSM   H14S11090  -0.491   0.324   8.976 -0.9554 -0.7238 -0.1378
  108OSM   H14T11091  -0.540   0.167   9.037 -1.1818  0.3698 -0.6059
  108OSM   C15S11092  -0.391   0.175   8.865 -0.2065  0.3064  0.5655
  108OSM   H15S11093  -0.345   0.074   8.871 -0.8844 -0.3617 -3.9415
  108OSM   H15T11094  -0.309   0.244   8.836 -0.8142  0.0050 -2.0063
  108OSM   C16S11095  -0.484   0.171   8.748 -0.1297  0.2715 -0.0370
  108OSM   H16S11096  -0.546   0.263   8.739 -0.3770  0.2374  1.1791
  108OSM   H16T11097  -0.563   0.098   8.775 -1.8241  2.1812  0.3684
  108OSM   C17S11098  -0.414   0.139   8.615  0.4016  0.1716 -0.1177
  108OSM   H17S11099  -0.324   0.079   8.641 -0.7164 -2.1417 -1.3796
  108OSM   H17T11100  -0.389   0.233   8.562 -1.9040 -0.4253 -2.3597
  108OSM   C18S11101  -0.499   0.064   8.511 -0.0637  0.2925 -0.0252
  108OSM   H18S11102  -0.526  -0.035   8.554 -0.8988  0.5282  0.0038
  108OSM   H18T11103  -0.447   0.052   8.414  0.0670 -0.5669  0.1462
  108OSM   H18U11104  -0.596   0.113   8.490 -0.8008 -0.4123  1.5981
  108OSM    C1F11105  -0.327   0.688  10.291 -0.1979  0.2412  0.3298
  108OSM     OF11106  -0.268   0.794  10.279 -0.1604 -0.1317  0.0465
  108OSM    C2F11107  -0.474   0.689  10.315  0.6317 -0.6515 -0.5212
  108OSM    H2F11108  -0.486   0.708  10.424  2.4674 -0.3531 -0.3608
  108OSM    H2G11109  -0.517   0.588  10.298  1.9678 -1.3206 -0.0418
  108OSM    C3F11110  -0.536   0.799  10.215  0.2095  0.4588 -0.0588
  108OSM    H3F11111  -0.479   0.895  10.209 -2.2047  1.8601 -1.5856
  108OSM    H3G11112  -0.639   0.813  10.254  0.8544 -0.2449  1.9657
  108OSM    C4F11113  -0.535   0.749  10.067  0.7239  0.9337  0.4689
  108OSM    H4F11114  -0.591   0.654  10.054  0.6536  1.1260 -0.6170
  108OSM    H4G11115  -0.430   0.730  10.038  0.4862 -1.7719  1.2489
  108OSM    C5F11116  -0.596   0.850   9.964  0.5874 -0.1720 -0.1372
  108OSM    H5F11117  -0.549   0.947   9.994  1.2366 -0.4241 -0.3231
  108OSM    H5G11118  -0.707   0.859   9.966  0.6836  1.2873 -0.4469
  108OSM    C6F11119  -0.560   0.820   9.816 -0.0286  0.2619  0.3475
  108OSM    H6F11120  -0.449   0.825   9.808 -0.0640  0.2489 -0.1717
  108OSM    H6G11121  -0.589   0.894   9.738  0.2809 -1.3766 -1.3673
  108OSM    C7F11122  -0.593   0.676   9.770 -0.4756 -0.0838  0.8584
  108OSM    H7F11123  -0.700   0.653   9.789 -1.0225 -0.8825 -2.9642
  108OSM    H7G11124  -0.527   0.608   9.828  0.4698  1.4020  1.5443
  108OSM    C8F11125  -0.567   0.648   9.623 -0.3493  0.0488 -0.5652
  108OSM    H8F11126  -0.594   0.543   9.598  1.4686 -1.0632  1.9508
  108OSM    H8G11127  -0.457   0.665   9.618 -0.1590  0.5337  3.5419
  108OSM    C9F11128  -0.652   0.736   9.536  0.4483 -0.6468  0.1746
  108OSM    H9F11129  -0.753   0.746   9.579  0.2648  2.9489 -0.9419
  108OSM   C10F11130  -0.608   0.809   9.429  0.8982 -0.3216  0.6355
  108OSM   H10F11131  -0.668   0.888   9.381 -0.1190 -0.8691  0.9899
  108OSM   C11F11132  -0.463   0.806   9.388 -0.3370 -0.1384 -0.9708
  108OSM   H11F11133  -0.407   0.714   9.416 -0.1632  0.1760 -0.2705
  108OSM   H11G11134  -0.416   0.904   9.414  0.5337 -0.5188 -1.1143
  108OSM   C12F11135  -0.446   0.803   9.237  0.0633  0.7242  0.2409
  108OSM   H12F11136  -0.340   0.790   9.207  0.0075  0.0166  0.3461
  108OSM   H12G11137  -0.473   0.902   9.195 -0.8692  0.9168  1.2762
  108OSM   C13F11138  -0.524   0.689   9.174 -0.0340  0.7247  0.1136
  108OSM   H13F11139  -0.630   0.712   9.155  0.2149  0.0461 -2.2226
  108OSM   H13G11140  -0.515   0.601   9.242 -0.5479  0.8379  0.3288
  108OSM   C14F11141  -0.472   0.657   9.030  0.3579  0.1258  0.7384
  108OSM   H14F11142  -0.527   0.570   8.988  0.6361  1.4140 -2.3864
  108OSM   H14G11143  -0.370   0.616   9.039  0.7505  1.2577  1.4311
  108OSM   C15F11144  -0.465   0.761   8.921 -0.0340 -0.2347  0.7696
  108OSM   H15F11145  -0.419   0.850   8.969 -0.6077  0.6037 -0.2237
  108OSM   H15G11146  -0.563   0.787   8.877 -0.4158  1.4635  2.5425
  108OSM   C16F11147  -0.367   0.717   8.811  0.3986 -0.0861 -0.0262
  108OSM   H16F11148  -0.396   0.612   8.793 -1.5468  0.2294  1.0900
  108OSM   H16G11149  -0.259   0.728   8.834 -0.5762  3.5308  3.3230
  108OSM   C17F11150  -0.379   0.805   8.681  0.1879 -0.2773  0.4462
  108OSM   H17F11151  -0.367   0.909   8.718 -0.1201 -0.1069  0.0764
  108OSM   H17G11152  -0.483   0.792   8.645 -0.6561  1.3528  2.2100
  108OSM   C18F11153  -0.273   0.780   8.573  0.4905 -0.0278  0.0779
  108OSM   H18F11154  -0.185   0.723   8.611 -0.2972 -1.6362 -0.4455
  108OSM   H18G11155  -0.255   0.875   8.519 -0.3966  1.0541  1.6242
  108OSM   H18H11156  -0.315   0.708   8.499  0.3406  1.3259 -1.1661
  109OSM      N11157   5.587   6.316  11.164  0.2003 -0.2174  0.6233
  109OSM    C1511158   5.532   6.199  11.237  0.3913  0.2115  0.3228
  109OSM   H15A11159   5.606   6.152  11.301 -0.1061  0.2350  0.9257
  109OSM   H15B11160   5.486   6.131  11.167 -3.0687  0.3089  2.3847
  109OSM   H15C11161   5.472   6.229  11.322  0.5562 -0.1900  0.5822
  109OSM    C1411162   5.485   6.390  11.082 -0.4957 -0.3459  0.2270
  109OSM   H14A11163   5.450   6.327  11.001  1.1907 -2.1096  0.8376
  109OSM   H14B11164   5.521   6.480  11.034  1.7721 -0.4433  1.6995
  109OSM   H14C11165   5.398   6.415  11.140 -0.6731 -1.9100  0.6660
  109OSM    C1311166   5.636   6.403  11.274 -0.9124  0.3082  0.1265
  109OSM   H13A11167   5.705   6.481  11.244  0.4814 -0.3444  1.5863
  109OSM   H13B11168   5.694   6.346  11.345  0.9399  1.7214 -0.2125
  109OSM   H13C11169   5.557   6.455  11.325  1.0643  0.5883  3.0387
  109OSM    C1211170   5.697   6.273  11.067 -0.5965  0.3442  0.2913
  109OSM   H12A11171   5.782   6.255  11.131 -1.5830  1.1104  1.8334
  109OSM   H12B11172   5.732   6.362  11.016  0.2083 -0.1038  0.0408
  109OSM    C1111173   5.669   6.159  10.968  0.2991  0.1930 -0.6471
  109OSM   H11A11174   5.603   6.189  10.884 -2.0569  0.0599  1.1078
  109OSM   H11B11175   5.633   6.069  11.021 -0.0856  0.8670  0.2480
  109OSM      P11176   5.858   5.974  10.900 -0.2209  0.2422 -0.1347
  109OSM    O1311177   5.977   5.985  10.812  0.0958 -0.2162 -0.1362
  109OSM    O1411178   5.881   5.926  11.036 -0.1947 -0.1018  0.5963
  109OSM    O1111179   5.744   5.888  10.833  0.5142  0.2434 -0.2387
  109OSM    O1211180   5.795   6.119  10.913  0.5198 -0.0811  0.0379
  109OSM    C1S11181   5.680   5.941  10.717 -0.8944  0.2219  0.2489
  109OSM    H1S11182   5.690   6.051  10.701 -0.1255  0.3414  1.4652
  109OSM    H1T11183   5.571   5.921  10.729 -0.8683  0.2736  0.5805
  109OSM     NF11184   5.673   5.950  10.483  0.5021  0.1340  0.5313
  109OSM    HNF11185   5.576   5.940  10.461  0.6890 -0.8529  0.1471
  109OSM    C2S11186   5.731   5.874  10.591  0.4903  0.2069 -0.0230
  109OSM    H2S11187   5.841   5.883  10.578  0.8370 -0.4716  2.3349
  109OSM    C3S11188   5.691   5.721  10.592 -0.8087 -0.8161  0.1328
  109OSM    H3S11189   5.583   5.718  10.616 -0.8952  3.0572  0.4991
  109OSM     O311190   5.766   5.647  10.688  0.4596 -0.2608 -0.1553
  109OSM    HO311191   5.756   5.701  10.767  0.6279 -1.2074  0.5230
  109OSM    C4S11192   5.727   5.649  10.465 -0.3999 -0.1413  0.7071
  109OSM    H4S11193   5.823   5.680  10.420 -1.6894  1.7871 -0.8171
  109OSM    C5S11194   5.646   5.560  10.405  0.1191 -0.5031 -0.1835
  109OSM    H5S11195   5.547   5.533  10.445  0.2367 -1.1254 -0.2989
  109OSM    C6S11196   5.660   5.488  10.267  0.3293 -0.7435 -0.2586
  109OSM    H6S11197   5.561   5.446  10.237 -1.3839  1.9362  1.4409
  109OSM    H6T11198   5.720   5.395  10.280 -0.0437 -0.7465  1.5602
  109OSM    C7S11199   5.715   5.560  10.136 -0.4126  0.9737 -0.1967
  109OSM    H7S11200   5.825   5.576  10.145 -0.0743 -1.8378  1.2194
  109OSM    H7T11201   5.668   5.661  10.140  2.8186  2.4654  3.7440
  109OSM    C8S11202   5.689   5.484   9.997  0.2319  0.5669 -0.8915
  109OSM    H8S11203   5.582   5.487   9.968 -0.2240  1.0991  0.7662
  109OSM    H8T11204   5.715   5.377  10.008 -1.6220 -0.0440 -2.2378
  109OSM    C9S11205   5.777   5.536   9.880 -0.6728 -0.2917  0.3949
  109OSM    H9S11206   5.883   5.522   9.910 -0.9103  2.1705  2.5774
  109OSM    H9T11207   5.762   5.646   9.871  0.0648  0.1003  3.3547
  109OSM   C10S11208   5.741   5.484   9.741  0.2867  0.2243 -0.3903
  109OSM   H10S11209   5.638   5.518   9.719 -0.2145 -0.5457  0.6777
  109OSM   H10T11210   5.740   5.374   9.722 -1.7796  0.4587 -1.8920
  109OSM   C11S11211   5.839   5.543   9.637  0.3353  0.3159 -0.6156
  109OSM   H11S11212   5.943   5.513   9.660 -0.1550  0.4547  1.9064
  109OSM   H11T11213   5.839   5.654   9.644 -3.8744  0.4115 -0.4050
  109OSM   C12S11214   5.799   5.503   9.498  1.1192  0.0191 -0.1685
  109OSM   H12S11215   5.696   5.544   9.488  1.9481  2.1995 -0.2237
  109OSM   H12T11216   5.791   5.393   9.500  0.5976  0.0690  1.3521
  109OSM   C13S11217   5.886   5.556   9.377 -0.6300 -0.7808  0.2388
  109OSM   H13S11218   5.992   5.537   9.406  0.2987  0.3351 -2.2394
  109OSM   H13T11219   5.884   5.668   9.377 -1.5520 -0.7952 -0.5359
  109OSM   C14S11220   5.854   5.500   9.239 -0.0528  0.1125  0.2747
  109OSM   H14S11221   5.849   5.390   9.232 -0.1994  0.2029 -1.2518
  109OSM   H14T11222   5.930   5.525   9.162 -0.0311 -1.1411 -0.1244
  109OSM   C15S11223   5.724   5.556   9.188 -0.1039  0.4324 -0.3940
  109OSM   H15S11224   5.711   5.662   9.221 -0.8163  0.5199 -0.9480
  109OSM   H15T11225   5.645   5.491   9.231  0.4117  0.2244  0.2450
  109OSM   C16S11226   5.729   5.542   9.031 -0.5071 -0.1282  0.0031
  109OSM   H16S11227   5.753   5.438   9.003  2.0225  0.4844 -0.2945
  109OSM   H16T11228   5.813   5.606   8.994 -0.4264 -0.5034 -0.4656
  109OSM   C17S11229   5.585   5.568   8.980  0.2474  0.3055 -0.2857
  109OSM   H17S11230   5.557   5.673   9.001 -1.8336 -0.1623 -0.6654
  109OSM   H17T11231   5.511   5.503   9.031  0.9960 -0.4514 -0.1481
  109OSM   C18S11232   5.575   5.538   8.831  0.1038  0.0386  0.5926
  109OSM   H18S11233   5.611   5.434   8.823  0.7525  0.3483 -0.6104
  109OSM   H18T11234   5.634   5.609   8.769 -0.0606 -0.9973 -0.7648
  109OSM   H18U11235   5.471   5.548   8.793 -0.0380  0.2583  1.0418
  109OSM    C1F11236   5.737   6.061  10.429  0.2364  0.0969 -0.1144
  109OSM     OF11237   5.836   6.107  10.483  0.1910 -0.1033 -0.2317
  109OSM    C2F11238   5.687   6.109  10.293  0.2724  0.9646  0.0057
  109OSM    H2F11239   5.776   6.137  10.234  1.0535 -0.1833  0.6167
  109OSM    H2G11240   5.638   6.206  10.317 -0.9636  0.1803  0.7267
  109OSM    C3F11241   5.578   6.026  10.218  0.2429  0.6203  0.6767
  109OSM    H3F11242   5.493   6.005  10.287 -0.7627  4.1111  0.6117
  109OSM    H3G11243   5.619   5.928  10.186 -3.4174 -0.7439 -0.1214
  109OSM    C4F11244   5.507   6.093  10.105  0.2755  0.8031 -0.6878
  109OSM    H4F11245   5.443   6.175  10.145 -2.4172 -0.7914 -1.6110
  109OSM    H4G11246   5.418   6.035  10.073 -1.0852  3.1652 -1.3211
  109OSM    C5F11247   5.601   6.141   9.985 -0.4206 -0.0590 -0.1189
  109OSM    H5F11248   5.675   6.216  10.021  0.1762 -0.7581  0.1185
  109OSM    H5G11249   5.533   6.183   9.907  1.8167  0.4075 -1.8918
  109OSM    C6F11250   5.686   6.038   9.918 -0.0053 -0.0190 -0.2994
  109OSM    H6F11251   5.631   5.947   9.884 -1.8829  0.7748  0.5526
  109OSM    H6G11252   5.765   6.002   9.988  0.1537  2.0993  0.6335
  109OSM    C7F11253   5.748   6.089   9.788 -0.0188  0.3596 -0.3563
  109OSM    H7F11254   5.841   6.035   9.760  1.0305  1.2383  1.3493
  109OSM    H7G11255   5.764   6.198   9.800  0.4278  0.0097  2.5942
  109OSM    C8F11256   5.652   6.060   9.668  0.0613 -0.4287  0.5212
  109OSM    H8F11257   5.550   6.095   9.697 -0.0831 -0.4761  0.0734
  109OSM    H8G11258   5.646   5.950   9.654  1.1112 -0.0746 -3.1360
  109OSM    C9F11259   5.702   6.136   9.546  0.8253  0.0274 -0.3484
  109OSM    H9F11260   5.737   6.239   9.564 -0.8948  0.4222  0.8159
  109OSM   C10F11261   5.726   6.098   9.422 -0.8090 -0.0733 -0.6742
  109OSM   H10F11262   5.756   6.171   9.346 -2.7024 -2.0244 -3.3627
  109OSM   C11F11263   5.715   5.958   9.366  0.0730  0.4175 -0.6602
  109OSM   H11F11264   5.722   5.885   9.450  1.4044  0.7026 -0.5155
  109OSM   H11G11265   5.799   5.932   9.298 -0.7825 -0.1276 -1.5177
  109OSM   C12F11266   5.588   5.921   9.291  0.4653 -0.3765 -0.3757
  109OSM   H12F11267   5.497   5.952   9.347  1.2731 -0.0512  0.7718
  109OSM   H12G11268   5.585   5.811   9.276 -0.9782 -0.2944 -0.7661
  109OSM   C13F11269   5.580   5.988   9.148 -0.7339  0.3971 -0.5773
  109OSM   H13F11270   5.577   6.099   9.148  1.0663  0.4731  1.4856
  109OSM   H13G11271   5.481   5.961   9.105 -0.1403  1.0404 -2.3700
  109OSM   C14F11272   5.686   5.947   9.051  0.4097 -0.3047  0.1571
  109OSM   H14F11273   5.697   5.837   9.054 -1.0470 -0.4581  0.3385
  109OSM   H14G11274   5.780   5.994   9.087  0.2558  0.5047 -0.4712
  109OSM   C15F11275   5.653   5.984   8.909 -0.8539  0.4404  0.4131
  109OSM   H15F11276   5.614   6.087   8.915 -1.4443  0.3605 -1.6656
  109OSM   H15G11277   5.583   5.908   8.868  1.3385 -0.2912 -2.1241
  109OSM   C16F11278   5.771   6.002   8.814  0.3764 -0.1621 -0.2641
  109OSM   H16F11279   5.842   6.078   8.854 -0.6224  2.2560 -2.9071
  109OSM   H16G11280   5.733   6.040   8.717 -1.5186  0.3415  0.6431
  109OSM   C17F11281   5.845   5.868   8.789 -0.2678 -0.0616 -0.3278
  109OSM   H17F11282   5.768   5.798   8.752  0.3936 -0.3659 -1.1542
  109OSM   H17G11283   5.879   5.832   8.888 -1.4985 -0.2492  0.0318
  109OSM   C18F11284   5.958   5.883   8.690 -0.0619  0.0569 -0.0386
  109OSM   H18F11285   6.015   5.790   8.669 -1.1241 -0.4175 -0.8058
  109OSM   H18G11286   6.036   5.953   8.729 -0.2982  0.6172 -0.5644
  109OSM   H18H11287   5.916   5.908   8.590 -1.7314 -0.3741  0.5401
  110OSM      N11288   6.005   4.203  11.002  0.5221 -0.4831  1.2467
  110OSM    C1511289   5.886   4.266  10.928 -0.1328 -0.1720 -0.5103
  110OSM   H15A11290   5.922   4.359  10.887  3.7743 -1.2373  0.2733
  110OSM   H15B11291   5.797   4.280  10.986  0.8616  1.2322  0.7132
  110OSM   H15C11292   5.857   4.199  10.848  0.7991 -1.0368 -0.1358
  110OSM    C1411293   6.026   4.269  11.125  0.3386  0.0170 -0.2604
  110OSM   H14A11294   6.045   4.372  11.101 -0.0826 -0.1894 -1.5235
  110OSM   H14B11295   6.109   4.225  11.178 -0.1747  1.4992  1.8040
  110OSM   H14C11296   5.940   4.259  11.190 -0.8310 -1.1746 -1.9545
  110OSM    C1311297   5.964   4.062  11.025  0.2184 -0.4846  0.2443
  110OSM   H13A11298   6.042   3.999  11.065  1.8424  1.1792 -0.2351
  110OSM   H13B11299   5.938   4.018  10.929  1.4878 -3.2397  1.1083
  110OSM   H13C11300   5.874   4.056  11.084 -1.6098 -1.1392 -2.4831
  110OSM    C1211301   6.122   4.209  10.905  0.0479 -0.1405  0.1047
  110OSM   H12A11302   6.140   4.313  10.881 -1.1888  0.1187  0.2987
  110OSM   H12B11303   6.095   4.163  10.811 -1.1683  2.6695 -0.9543
  110OSM    C1111304   6.254   4.143  10.944 -0.1173 -0.1912  0.6352
  110OSM   H11A11305   6.279   4.145  11.052  0.8547 -0.2000  0.4223
  110OSM   H11B11306   6.338   4.188  10.886  1.0650 -2.0471  0.8562
  110OSM      P11307   6.365   3.896  10.910 -0.1485 -0.2704 -0.5735
  110OSM    O1311308   6.436   3.900  11.038  0.0637  0.3803 -0.6670
  110OSM    O1411309   6.298   3.771  10.867  0.2787 -0.4037  0.3471
  110OSM    O1111310   6.467   3.943  10.801  0.3512 -0.5329  0.0515
  110OSM    O1211311   6.247   4.006  10.907  0.3244 -0.2124 -0.2957
  110OSM    C1S11312   6.449   3.880  10.667 -0.4397 -0.0100  0.1603
  110OSM    H1S11313   6.340   3.888  10.643 -0.6679 -0.7504  0.9259
  110OSM    H1T11314   6.480   3.775  10.650  0.7808 -0.0095  2.2744
  110OSM     NF11315   6.466   3.914  10.418 -0.2962  0.0201  0.1958
  110OSM    HNF11316   6.510   3.836  10.373 -1.5472  0.2860 -1.5497
  110OSM    C2S11317   6.507   3.967  10.546 -0.0550  0.3534  0.3745
  110OSM    H2S11318   6.470   4.072  10.546  2.2716  1.2186 -0.6858
  110OSM    C3S11319   6.661   3.990  10.570 -0.2000  0.3325  0.4976
  110OSM    H3S11320   6.708   3.889  10.574 -0.1217  0.3882  1.0395
  110OSM     O311321   6.699   4.050  10.693  0.0642  0.6156  0.0044
  110OSM    HO311322   6.621   4.055  10.749 -1.2404  1.0119 -1.8060
  110OSM    C4S11323   6.724   4.067  10.453  0.1751 -0.0341 -0.5000
  110OSM    H4S11324   6.765   3.997  10.379  0.2126  1.2542 -1.7074
  110OSM    C5S11325   6.735   4.202  10.427  0.7798  0.4808  0.2360
  110OSM    H5S11326   6.686   4.271  10.496 -2.5178 -0.7616 -0.7600
  110OSM    C6S11327   6.777   4.271  10.298  0.5594 -0.9222  0.1758
  110OSM    H6S11328   6.862   4.336  10.326 -1.7104  1.2890  2.1617
  110OSM    H6T11329   6.687   4.333  10.277  0.2467 -1.4454 -0.0466
  110OSM    C7S11330   6.812   4.189  10.172  1.0283  0.2797 -0.1205
  110OSM    H7S11331   6.727   4.126  10.139  1.0711  0.2255 -0.1239
  110OSM    H7T11332   6.903   4.135  10.204 -1.5649 -2.4550  3.0170
  110OSM    C8S11333   6.847   4.289  10.050 -0.2000 -0.3677  0.1325
  110OSM    H8S11334   6.915   4.369  10.085  2.4781 -1.6860 -1.9013
  110OSM    H8T11335   6.747   4.334  10.029 -0.7211 -0.0785  2.9467
  110OSM    C9S11336   6.910   4.212   9.932  0.6360  0.1139 -0.7734
  110OSM    H9S11337   6.833   4.141   9.896  1.0370  0.2721 -1.9610
  110OSM    H9T11338   7.000   4.155   9.963 -0.1374 -0.6114  0.1849
  110OSM   C10S11339   6.943   4.302   9.806  0.7531 -0.2998  0.9919
  110OSM   H10S11340   7.022   4.254   9.745  1.4064  1.1159  0.7072
  110OSM   H10T11341   7.005   4.388   9.840 -0.9697  0.6252  1.8813
  110OSM   C11S11342   6.822   4.325   9.713  0.6083 -0.4020 -0.3448
  110OSM   H11S11343   6.731   4.363   9.764  1.4219  1.0972  0.0093
  110OSM   H11T11344   6.793   4.224   9.677  1.4677 -1.2227  1.2487
  110OSM   C12S11345   6.850   4.414   9.594 -0.2489 -0.2487  0.5555
  110OSM   H12S11346   6.935   4.370   9.539  0.6119  0.6192  1.1686
  110OSM   H12T11347   6.873   4.520   9.618  0.2743 -0.0662 -0.7313
  110OSM   C13S11348   6.728   4.407   9.496 -0.9349  0.3254  0.4895
  110OSM   H13S11349   6.760   4.477   9.415 -2.0631  1.1051  0.7174
  110OSM   H13T11350   6.627   4.438   9.529 -0.6395  0.3914  1.3324
  110OSM   C14S11351   6.728   4.282   9.415 -0.2202 -0.1324 -0.4554
  110OSM   H14S11352   6.703   4.188   9.470 -1.1704  0.2490 -0.2158
  110OSM   H14T11353   6.835   4.267   9.393 -0.3270 -0.0275 -1.0422
  110OSM   C15S11354   6.639   4.279   9.287 -0.6462 -0.3041  0.4546
  110OSM   H15S11355   6.530   4.271   9.309 -0.4817 -0.9544  1.0681
  110OSM   H15T11356   6.662   4.184   9.234  1.4906  1.2167 -1.4139
  110OSM   C16S11357   6.654   4.394   9.180 -0.4759  0.4640  0.4905
  110OSM   H16S11358   6.625   4.495   9.216 -1.7532  0.3444 -0.1687
  110OSM   H16T11359   6.587   4.369   9.095  0.5366 -0.2261 -0.1099
  110OSM   C17S11360   6.790   4.408   9.113  0.1008  0.6066  0.0315
  110OSM   H17S11361   6.804   4.311   9.061  0.5607  0.9897 -0.5727
  110OSM   H17T11362   6.869   4.412   9.191  0.8843 -2.9204 -0.4834
  110OSM   C18S11363   6.798   4.518   9.006  0.0688 -0.6070 -0.0087
  110OSM   H18S11364   6.818   4.621   9.043 -0.2694  0.2841 -2.1859
  110OSM   H18T11365   6.699   4.524   8.954 -0.1707  0.6962  0.5819
  110OSM   H18U11366   6.877   4.512   8.928 -1.3465  1.1881 -1.6404
  110OSM    C1F11367   6.341   3.927  10.373 -0.5338 -0.1501 -0.4148
  110OSM     OF11368   6.251   3.984  10.435 -0.6615 -0.3827  0.6403
  110OSM    C2F11369   6.313   3.870  10.242  0.2705  0.0472 -0.1017
  110OSM    H2F11370   6.302   3.760  10.245 -0.0239  0.0945  0.6147
  110OSM    H2G11371   6.390   3.905  10.170  0.1049  2.3386  0.7645
  110OSM    C3F11372   6.171   3.912  10.187  0.8644 -0.0620 -0.2373
  110OSM    H3F11373   6.092   3.871  10.253  1.6889 -1.8910 -0.3439
  110OSM    H3G11374   6.146   3.848  10.101  2.2379 -2.0415  0.7914
  110OSM    C4F11375   6.147   4.064  10.170 -0.2023  0.2312  0.2614
  110OSM    H4F11376   6.115   4.097  10.271 -2.3430 -1.4789  0.1637
  110OSM    H4G11377   6.054   4.070  10.110 -0.9464  1.3278  1.4972
  110OSM    C5F11378   6.260   4.147  10.101  0.7845 -1.2184 -0.0487
  110OSM    H5F11379   6.356   4.154  10.157  0.2736  3.5409  0.4716
  110OSM    H5G11380   6.211   4.247  10.098 -1.6956 -2.2705  2.8836
  110OSM    C6F11381   6.296   4.108   9.957 -0.0397 -0.0615 -0.4582
  110OSM    H6F11382   6.201   4.073   9.911 -1.7112  0.4573  2.4660
  110OSM    H6G11383   6.368   4.023   9.952  2.0658  1.7451 -1.6486
  110OSM    C7F11384   6.353   4.218   9.867  0.2977  0.0208  0.4542
  110OSM    H7F11385   6.458   4.246   9.889 -0.4342  2.4729  0.9552
  110OSM    H7G11386   6.287   4.304   9.890 -0.8836 -0.5563 -0.7078
  110OSM    C8F11387   6.332   4.182   9.718  0.4901 -0.6580  0.1209
  110OSM    H8F11388   6.359   4.074   9.710 -1.1000 -1.1103  0.8149
  110OSM    H8G11389   6.410   4.233   9.657  3.1471 -0.7088  3.3513
  110OSM    C9F11390   6.189   4.201   9.668  0.4000  0.5286 -0.4118
  110OSM    H9F11391   6.110   4.215   9.744  1.5067  1.0717  0.6603
  110OSM   C10F11392   6.158   4.220   9.536 -0.2634 -0.0823 -0.2066
  110OSM   H10F11393   6.054   4.249   9.512  0.2459  1.5779 -0.5148
  110OSM   C11F11394   6.258   4.229   9.423 -0.9022 -0.2017 -0.1748
  110OSM   H11F11395   6.223   4.154   9.349 -1.5396 -0.1997  0.1246
  110OSM   H11G11396   6.363   4.205   9.453 -0.9741  0.4164  0.5748
  110OSM   C12F11397   6.269   4.369   9.361  0.4145 -0.1504  0.5014
  110OSM   H12F11398   6.171   4.411   9.329  1.1121  0.7412 -0.4888
  110OSM   H12G11399   6.334   4.355   9.272  0.8339 -2.0109  1.0923
  110OSM   C13F11400   6.340   4.473   9.452 -0.5828  0.2148  0.6052
  110OSM   H13F11401   6.431   4.426   9.496  0.0529 -0.1340 -1.0710
  110OSM   H13G11402   6.281   4.495   9.544 -1.4070  1.8873 -0.2971
  110OSM   C14F11403   6.370   4.606   9.384 -0.5234  0.0350  0.3210
  110OSM   H14F11404   6.289   4.617   9.309  1.4661  0.5210 -1.7983
  110OSM   H14G11405   6.471   4.602   9.337  0.3002 -0.0747  2.0446
  110OSM   C15F11406   6.359   4.735   9.473 -0.0416 -0.1186 -0.4759
  110OSM   H15F11407   6.416   4.699   9.562  0.9596  1.7497 -0.3325
  110OSM   H15G11408   6.255   4.755   9.504 -0.7067  1.8763 -3.7801
  110OSM   C16F11409   6.443   4.854   9.424 -0.0643 -0.0848 -0.0951
  110OSM   H16F11410   6.400   4.906   9.336 -0.9386  2.2223  1.6362
  110OSM   H16G11411   6.537   4.807   9.387 -0.7349 -2.1092  0.6962
  110OSM   C17F11412   6.473   4.967   9.527 -0.3300  0.1772  0.2508
  110OSM   H17F11413   6.514   4.927   9.622 -0.5225 -2.4133 -0.7172
  110OSM   H17G11414   6.374   5.015   9.545 -0.9173 -1.3524  1.2272
  110OSM   C18F11415   6.574   5.071   9.471  0.4866 -0.0717 -0.3777
  110OSM   H18F11416   6.531   5.112   9.377 -0.1930 -0.2288 -0.1364
  110OSM   H18G11417   6.664   5.011   9.447 -1.0348 -2.5215 -0.0915
  110OSM   H18H11418   6.601   5.152   9.543 -0.3749 -0.9950  1.0108
  111OSM      N11419   0.476   1.698  10.764 -0.8348 -0.2189 -0.3829
  111OSM    C1511420   0.568   1.672  10.642 -0.2435  1.4232  0.0624
  111OSM   H15A11421   0.651   1.608  10.669 -0.9551  0.3180 -0.3418
  111OSM   H15B11422   0.602   1.769  10.611 -0.4810  1.3751 -0.3462
  111OSM   H15C11423   0.511   1.616  10.569  0.5648 -0.8947  1.1456
  111OSM    C1411424   0.396   1.575  10.786 -0.1482 -0.0325 -0.0641
  111OSM   H14A11425   0.319   1.598  10.858  1.6718 -0.6169  2.0988
  111OSM   H14B11426   0.450   1.488  10.817  2.1016  1.3965  0.1525
  111OSM   H14C11427   0.342   1.553  10.695 -0.6025 -1.4937  0.5424
  111OSM    C1311428   0.561   1.735  10.886 -0.1286  0.0708  0.0748
  111OSM   H13A11429   0.611   1.828  10.863  0.4260 -0.2395  0.0105
  111OSM   H13B11430   0.625   1.650  10.908 -3.0929 -2.2041  0.2517
  111OSM   H13C11431   0.497   1.749  10.972 -0.7880  2.7999 -0.8103
  111OSM    C1211432   0.381   1.811  10.732  0.0596 -0.1876  0.0562
  111OSM   H12A11433   0.318   1.833  10.817 -0.0053  2.6489 -0.6583
  111OSM   H12B11434   0.309   1.770  10.662 -0.9221  0.1240  0.8656
  111OSM    C1111435   0.440   1.937  10.682  0.1948 -0.2834  0.3135
  111OSM   H11A11436   0.362   2.015  10.668 -1.0743 -1.3256  1.5203
  111OSM   H11B11437   0.481   1.912  10.582  1.7263 -2.3753  1.4389
  111OSM      P11438   0.673   2.034  10.732 -0.1659  0.1306 -0.1024
  111OSM    O1311439   0.720   2.123  10.841  0.4324 -0.4694  0.0777
  111OSM    O1411440   0.759   1.918  10.693  0.0049 -0.3672 -0.4036
  111OSM    O1111441   0.655   2.110  10.595  0.4856  0.1003 -0.2730
  111OSM    O1211442   0.536   1.983  10.776 -0.0622 -0.1602 -1.1636
  111OSM    C1S11443   0.611   2.247  10.595  1.1471 -0.1438 -0.5626
  111OSM    H1S11444   0.667   2.323  10.653  1.3304 -0.2166 -0.6448
  111OSM    H1T11445   0.507   2.249  10.635  0.6804 -1.3046 -1.7058
  111OSM     NF11446   0.563   2.438  10.449  0.1103 -0.8241  0.2100
  111OSM    HNF11447   0.471   2.467  10.426 -0.5459  0.3665  3.9650
  111OSM    C2S11448   0.595   2.298  10.453  0.4875  0.2269  0.5483
  111OSM    H2S11449   0.681   2.278  10.387 -1.4356 -2.8076 -1.1578
  111OSM    C3S11450   0.486   2.205  10.377 -0.1339  0.0340 -0.1407
  111OSM    H3S11451   0.389   2.219  10.429 -0.7540  0.4852 -1.3935
  111OSM     O311452   0.524   2.070  10.372  0.4377  0.8465 -0.3210
  111OSM    HO311453   0.605   2.060  10.423  0.1497 -1.6612 -0.3051
  111OSM    C4S11454   0.464   2.245  10.230 -0.0573 -0.8766 -0.0063
  111OSM    H4S11455   0.363   2.280  10.204  0.4270  0.1066 -0.6224
  111OSM    C5S11456   0.556   2.247  10.130  1.0805  0.3095 -1.0305
  111OSM    H5S11457   0.657   2.208  10.150  0.4570 -1.6439 -1.6202
  111OSM    C6S11458   0.546   2.303   9.991  0.3594 -0.2953 -0.0516
  111OSM    H6S11459   0.562   2.225   9.914 -2.1013 -2.2136  1.3211
  111OSM    H6T11460   0.628   2.377   9.976 -1.3639  1.8237  0.6201
  111OSM    C7S11461   0.406   2.375   9.963 -0.0967 -0.0593 -0.0943
  111OSM    H7S11462   0.389   2.440  10.051  0.1329  0.6711 -0.5920
  111OSM    H7T11463   0.325   2.300   9.947  0.8567 -1.2989  0.7583
  111OSM    C8S11464   0.407   2.465   9.839  0.3719  0.3151 -0.0774
  111OSM    H8S11465   0.504   2.520   9.838  0.2064  0.5999 -0.5092
  111OSM    H8T11466   0.324   2.537   9.854 -1.2140 -2.0515  3.0968
  111OSM    C9S11467   0.387   2.399   9.701 -0.6198 -0.2806 -0.2893
  111OSM    H9S11468   0.310   2.318   9.708 -1.4173  0.4182 -0.8811
  111OSM    H9T11469   0.477   2.342   9.669 -1.0332 -1.1227  0.0035
  111OSM   C10S11470   0.334   2.496   9.589 -0.2419 -0.0714 -0.4285
  111OSM   H10S11471   0.403   2.583   9.593  0.8095 -0.9592  2.0262
  111OSM   H10T11472   0.240   2.540   9.628  0.1478  0.9260 -0.6105
  111OSM   C11S11473   0.316   2.439   9.452  0.1174 -0.2776  0.7947
  111OSM   H11S11474   0.255   2.509   9.392  1.6909  0.9141  0.5540
  111OSM   H11T11475   0.254   2.346   9.451  0.2693 -0.4034  2.1860
  111OSM   C12S11476   0.450   2.394   9.381 -0.0445  0.2108 -0.9118
  111OSM   H12S11477   0.516   2.328   9.441  0.1358 -0.4944 -1.8751
  111OSM   H12T11478   0.506   2.488   9.364 -0.4863  1.0072  1.9177
  111OSM   C13S11479   0.429   2.341   9.239  0.2660  0.3308  0.2367
  111OSM   H13S11480   0.369   2.417   9.184  0.4854  1.1944  1.1718
  111OSM   H13T11481   0.364   2.252   9.254 -0.3422  0.7445  0.0636
  111OSM   C14S11482   0.558   2.298   9.171 -0.1459  0.1422  0.4638
  111OSM   H14S11483   0.610   2.217   9.228 -0.1746 -1.3242 -1.5705
  111OSM   H14T11484   0.624   2.387   9.158 -0.4770 -0.0525 -2.8460
  111OSM   C15S11485   0.523   2.248   9.036  0.2225  0.1276  0.5536
  111OSM   H15S11486   0.475   2.326   8.973 -0.8727 -2.8145 -2.4050
  111OSM   H15T11487   0.451   2.164   9.043  1.9509 -1.3956  0.3025
  111OSM   C16S11488   0.651   2.199   8.958 -0.3199 -0.4131  0.5478
  111OSM   H16S11489   0.707   2.138   9.032  0.6607 -0.3966 -0.1684
  111OSM   H16T11490   0.717   2.282   8.926  1.6846 -2.2139 -0.1513
  111OSM   C17S11491   0.617   2.117   8.840  0.0087  0.1543 -0.0323
  111OSM   H17S11492   0.552   2.164   8.763 -0.3436 -3.5120 -2.1024
  111OSM   H17T11493   0.551   2.044   8.890  2.5406 -1.8194  0.5074
  111OSM   C18S11494   0.730   2.044   8.767 -0.3027 -0.0850  0.0068
  111OSM   H18S11495   0.767   1.958   8.827 -1.6398 -2.2584 -2.2047
  111OSM   H18T11496   0.817   2.111   8.751 -0.5539  0.7519  2.0014
  111OSM   H18U11497   0.700   1.995   8.672 -1.4285 -0.3003  0.4652
  111OSM    C1F11498   0.644   2.540  10.487 -0.1588 -0.4290 -0.2711
  111OSM     OF11499   0.750   2.521  10.545  0.2579  0.9104 -0.0813
  111OSM    C2F11500   0.599   2.679  10.465  0.1434  0.0763 -0.3131
  111OSM    H2F11501   0.611   2.722  10.567  1.5894 -1.1445  0.0679
  111OSM    H2G11502   0.491   2.678  10.440  0.0735  1.1448 -0.0508
  111OSM    C3F11503   0.674   2.748  10.351 -0.1191 -0.5430  0.0205
  111OSM    H3F11504   0.783   2.738  10.368 -0.4572 -1.6575  1.7296
  111OSM    H3G11505   0.651   2.856  10.347  0.9827 -0.2612  0.9493
  111OSM    C4F11506   0.650   2.680  10.213 -0.0682  1.0590 -0.3007
  111OSM    H4F11507   0.687   2.575  10.221  2.3676  1.9146  0.0184
  111OSM    H4G11508   0.726   2.718  10.142  0.6086  2.0178  0.9265
  111OSM    C5F11509   0.511   2.691  10.160  0.1138  0.1191 -0.3106
  111OSM    H5F11510   0.440   2.644  10.231  0.8347 -2.6574 -1.3806
  111OSM    H5G11511   0.525   2.632  10.067  1.4817  0.9186 -0.6242
  111OSM    C6F11512   0.453   2.822  10.133  0.1568 -0.3114 -0.3115
  111OSM    H6F11513   0.522   2.876  10.065 -0.9071  1.3165 -0.1366
  111OSM    H6G11514   0.453   2.888  10.222  0.3030  2.2435 -2.1492
  111OSM    C7F11515   0.314   2.829  10.079 -0.2038 -0.6207  0.1298
  111OSM    H7F11516   0.286   2.935  10.102 -1.6687 -0.9964  0.1381
  111OSM    H7G11517   0.241   2.766  10.134  0.0297  0.8273  2.1731
  111OSM    C8F11518   0.300   2.816   9.922 -0.6032 -0.9930 -0.0087
  111OSM    H8F11519   0.192   2.806   9.902 -1.0449  0.0085  1.8156
  111OSM    H8G11520   0.341   2.721   9.881 -1.0224 -1.5536  0.8529
  111OSM    C9F11521   0.362   2.946   9.863  0.1031  0.1255  0.2023
  111OSM    H9F11522   0.305   3.038   9.887 -0.2229  0.3458 -1.3549
  111OSM   C10F11523   0.461   2.963   9.773 -0.6660 -0.2603  0.1286
  111OSM   H10F11524   0.477   3.070   9.750  0.1928 -0.4894 -0.3352
  111OSM   C11F11525   0.540   2.850   9.704 -0.3848  0.1690 -0.7055
  111OSM   H11F11526   0.506   2.749   9.736 -1.0047  0.9791  1.2787
  111OSM   H11G11527   0.642   2.876   9.741 -1.5042  1.4643  1.5819
  111OSM   C12F11528   0.538   2.849   9.553  0.1647 -0.0284  0.2340
  111OSM   H12F11529   0.439   2.810   9.521 -0.2174 -0.3635  1.8133
  111OSM   H12G11530   0.612   2.775   9.517 -1.3078 -1.2454 -0.3455
  111OSM   C13F11531   0.564   2.971   9.455  0.4052 -0.0357 -0.6285
  111OSM   H13F11532   0.669   2.998   9.481  0.8010 -1.8036 -0.3247
  111OSM   H13G11533   0.493   3.054   9.478 -1.3158 -1.2470 -1.4712
  111OSM   C14F11534   0.548   2.948   9.296 -0.1173 -0.4712 -0.2402
  111OSM   H14F11535   0.644   2.900   9.266  0.7850  1.4702 -0.5547
  111OSM   H14G11536   0.546   3.043   9.239  1.5134 -0.1498  0.1950
  111OSM   C15F11537   0.418   2.866   9.264  0.2305 -0.0186  0.1298
  111OSM   H15F11538   0.331   2.929   9.294 -0.1509 -0.6872  0.4255
  111OSM   H15G11539   0.419   2.771   9.321  1.2022 -1.5821 -2.3838
  111OSM   C16F11540   0.399   2.826   9.112 -0.0264 -0.1218 -0.1649
  111OSM   H16F11541   0.431   2.912   9.050 -0.7786 -0.4699 -1.0530
  111OSM   H16G11542   0.291   2.802   9.099  0.4096 -1.4891 -1.3474
  111OSM   C17F11543   0.482   2.709   9.068 -0.3721  0.2173 -0.0804
  111OSM   H17F11544   0.458   2.619   9.129  1.2890 -0.3816 -0.2996
  111OSM   H17G11545   0.583   2.740   9.101  0.6129 -0.8968 -1.9377
  111OSM   C18F11546   0.474   2.688   8.914 -0.3194  0.5866  0.1282
  111OSM   H18F11547   0.539   2.606   8.875 -0.0287  1.4860 -1.3100
  111OSM   H18G11548   0.505   2.780   8.861 -0.6775  0.8773  0.4260
  111OSM   H18H11549   0.367   2.675   8.888  0.0156 -1.7235 -0.1762
  112OSM      N11550   6.428   0.684  11.108  0.0952  0.0794  0.2489
  112OSM    C1511551   6.510   0.771  11.016 -0.9034  1.2441 -0.1517
  112OSM   H15A11552   6.459   0.858  10.977 -3.9091 -0.2772  0.1868
  112OSM   H15B11553   6.530   0.715  10.925  0.0152 -0.9222  1.3266
  112OSM   H15C11554   6.607   0.807  11.047  0.1727  0.5525 -2.6089
  112OSM    C1411555   6.436   0.737  11.247 -0.3137  0.0654 -0.5248
  112OSM   H14A11556   6.368   0.699  11.321  1.0950 -0.5557  0.4820
  112OSM   H14B11557   6.422   0.844  11.244  0.8128  0.1747 -3.4257
  112OSM   H14C11558   6.538   0.723  11.279 -0.3713  1.3229  0.2569
  112OSM    C1311559   6.284   0.697  11.064 -0.4539 -0.4317 -0.5908
  112OSM   H13A11560   6.282   0.661  10.962  1.4798  0.3797 -0.9353
  112OSM   H13B11561   6.244   0.797  11.071 -0.0230 -0.3308  0.5930
  112OSM   H13C11562   6.215   0.637  11.122  0.4488 -0.6813  0.2475
  112OSM    C1211563   6.466   0.536  11.099  0.1626  0.9018 -1.3943
  112OSM   H12A11564   6.380   0.484  11.140 -0.4467  0.4313 -3.2155
  112OSM   H12B11565   6.543   0.510  11.170 -0.6471  1.3310 -0.3478
  112OSM    C1111566   6.505   0.474  10.961  0.2283  0.4557  0.3864
  112OSM   H11A11567   6.520   0.364  10.971 -1.8273  0.1291  0.2051
  112OSM   H11B11568   6.601   0.506  10.917 -0.7958 -1.2065 -3.2449
  112OSM      P11569   6.415   0.575  10.729 -0.1202 -0.1097  0.0734
  112OSM    O1311570   6.288   0.631  10.685 -0.1557 -0.1139 -0.0254
  112OSM    O1411571   6.530   0.672  10.741  0.2794  0.3881  0.6372
  112OSM    O1111572   6.460   0.453  10.644 -0.2498  0.1699  0.2279
  112OSM    O1211573   6.402   0.493  10.865  0.2622  0.1697 -0.2241
  112OSM    C1S11574   6.377   0.372  10.560 -0.3745  0.1929  0.4885
  112OSM    H1S11575   6.344   0.429  10.471  1.0121 -0.0026 -0.1686
  112OSM    H1T11576   6.283   0.339  10.610 -0.5627 -0.7511 -0.4722
  112OSM     NF11577   6.369   0.178  10.405  0.9632 -0.4885 -0.0855
  112OSM    HNF11578   6.333   0.086  10.419 -2.0996  0.7679  0.6176
  112OSM    C2S11579   6.454   0.247  10.509 -0.5854 -0.5240  0.1908
  112OSM    H2S11580   6.546   0.275  10.453 -0.8130  1.4212  0.7739
  112OSM    C3S11581   6.498   0.142  10.623  0.1619 -0.6564 -0.4192
  112OSM    H3S11582   6.404   0.098  10.664 -0.3448  1.1888  0.4325
  112OSM     O311583   6.567   0.201  10.738  0.1863  0.4073 -0.1755
  112OSM    HO311584   6.532   0.290  10.733 -0.6033  0.0564 -1.2250
  112OSM    C4S11585   6.570   0.029  10.559  0.5891  0.2872 -0.2536
  112OSM    H4S11586   6.509  -0.044  10.504 -1.9683  2.4489 -0.3821
  112OSM    C5S11587   6.699   0.012  10.558 -0.0044  0.1590 -0.0681
  112OSM    H5S11588   6.770   0.081  10.606 -0.9164  1.8858 -1.1463
  112OSM    C6S11589   6.759  -0.106  10.484  0.1390 -0.4211 -1.4001
  112OSM    H6S11590   6.683  -0.176  10.443 -1.7969  0.0051  1.2926
  112OSM    H6T11591   6.824  -0.157  10.558 -1.9489  0.2652  0.9766
  112OSM    C7S11592   6.848  -0.062  10.363  0.0660 -0.1493 -0.4667
  112OSM    H7S11593   6.884  -0.159  10.323 -0.4428 -1.2900  1.7991
  112OSM    H7T11594   6.927   0.002  10.407  0.5941 -0.8711 -0.3661
  112OSM    C8S11595   6.775   0.006  10.245 -0.1025  0.5041  0.6672
  112OSM    H8S11596   6.848   0.058  10.180 -1.2817  0.0728 -1.0332
  112OSM    H8T11597   6.711   0.085  10.290  2.0822  2.8296 -0.2239
  112OSM    C9S11598   6.678  -0.089  10.173  0.5165 -0.0949  0.7985
  112OSM    H9S11599   6.600  -0.120  10.247 -0.5099  1.9561  0.6154
  112OSM    H9T11600   6.736  -0.178  10.140 -0.3401 -0.0183 -0.9829
  112OSM   C10S11601   6.613  -0.029  10.045 -0.3055 -0.2565 -0.2632
  112OSM   H10S11602   6.682  -0.010   9.960  3.4497  2.0059  3.0969
  112OSM   H10T11603   6.574   0.073  10.067 -2.3324 -1.3147  1.3020
  112OSM   C11S11604   6.500  -0.113   9.999  0.3580  0.8663  0.9677
  112OSM   H11S11605   6.445  -0.054   9.923 -1.5554 -0.2704  1.4533
  112OSM   H11T11606   6.422  -0.119  10.078 -1.2383 -0.6007 -0.6686
  112OSM   C12S11607   6.529  -0.252   9.932  0.3423  0.0612  0.0217
  112OSM   H12S11608   6.437  -0.314   9.943  1.1012 -0.9962  0.4695
  112OSM   H12T11609   6.609  -0.292   9.998  2.1672  0.2867 -1.9913
  112OSM   C13S11610   6.576  -0.256   9.791  0.2221  0.1504  0.2489
  112OSM   H13S11611   6.613  -0.358   9.764 -0.1440  0.1698 -0.3580
  112OSM   H13T11612   6.654  -0.179   9.783  0.5368 -0.0723  1.1197
  112OSM   C14S11613   6.465  -0.220   9.689 -0.2640 -0.0284  0.0597
  112OSM   H14S11614   6.414  -0.123   9.711  2.0393  0.9440  1.3430
  112OSM   H14T11615   6.380  -0.291   9.687 -0.8533  0.6598  0.6480
  112OSM   C15S11616   6.528  -0.211   9.544  0.1124  0.0046 -0.8171
  112OSM   H15S11617   6.563  -0.313   9.517  1.6010  0.7471 -1.6966
  112OSM   H15T11618   6.609  -0.137   9.557 -0.0800 -0.0418  0.7904
  112OSM   C16S11619   6.430  -0.160   9.433  0.1885 -0.3528  0.8082
  112OSM   H16S11620   6.406  -0.062   9.479  0.9283 -0.5083  1.5407
  112OSM   H16T11621   6.341  -0.226   9.421  0.3427 -0.5736  0.8713
  112OSM   C17S11622   6.493  -0.146   9.301  0.2970 -0.3928  0.0057
  112OSM   H17S11623   6.566  -0.228   9.283  0.3293 -0.4148  0.2400
  112OSM   H17T11624   6.559  -0.057   9.305  0.8578 -0.9165  3.6433
  112OSM   C18S11625   6.407  -0.140   9.174  0.5297 -0.0137  1.0551
  112OSM   H18S11626   6.339  -0.227   9.158 -0.3293  0.8168  0.0733
  112OSM   H18T11627   6.472  -0.144   9.084  0.2569  3.5590  0.6231
  112OSM   H18U11628   6.340  -0.051   9.173  0.1382 -0.1873  5.1681
  112OSM    C1F11629   6.355   0.222  10.282 -0.5501 -0.4683 -0.2658
  112OSM     OF11630   6.412   0.327  10.249  0.3220 -0.8784 -0.4484
  112OSM    C2F11631   6.282   0.141  10.176 -0.4975 -0.5544  0.2704
  112OSM    H2F11632   6.185   0.126  10.226 -1.1764 -0.0719 -0.8771
  112OSM    H2G11633   6.327   0.040  10.160  0.5248 -0.1172  0.3129
  112OSM    C3F11634   6.240   0.226  10.052  0.4521  0.2219 -0.5789
  112OSM    H3F11635   6.336   0.269  10.016  0.9318 -0.0017  0.4125
  112OSM    H3G11636   6.183   0.315  10.088  0.3562  0.8282 -2.1605
  112OSM    C4F11637   6.186   0.147   9.939 -0.2403 -0.9868  0.3052
  112OSM    H4F11638   6.131   0.060   9.981 -1.5529 -0.3428 -0.0653
  112OSM    H4G11639   6.255   0.117   9.857 -1.8903 -1.4856 -0.9385
  112OSM    C5F11640   6.071   0.223   9.872  0.3632 -0.3053  0.3545
  112OSM    H5F11641   5.999   0.254   9.951  0.6660  1.3481 -0.0077
  112OSM    H5G11642   6.021   0.143   9.812  0.1762 -0.3376  0.5524
  112OSM    C6F11643   6.109   0.340   9.779  0.7875 -0.0151  0.6547
  112OSM    H6F11644   6.177   0.305   9.698  0.8746 -1.4400  1.3329
  112OSM    H6G11645   6.164   0.410   9.845 -1.3168  1.7130  0.6168
  112OSM    C7F11646   5.994   0.419   9.712  0.4159  0.0389  0.1991
  112OSM    H7F11647   6.027   0.513   9.663 -0.9794  0.1985 -0.4471
  112OSM    H7G11648   5.929   0.443   9.800  0.7891 -0.5478  0.6351
  112OSM    C8F11649   5.901   0.345   9.619  0.5974  0.0011  0.3602
  112OSM    H8F11650   5.871   0.248   9.665  1.6533 -0.5360 -0.0899
  112OSM    H8G11651   5.957   0.319   9.527 -0.1376 -0.8203  0.1322
  112OSM    C9F11652   5.774   0.421   9.583  0.2735  0.3489  0.9019
  112OSM    H9F11653   5.702   0.438   9.664 -0.5665 -0.6487  0.3755
  112OSM   C10F11654   5.737   0.459   9.460  0.6117 -0.1520 -0.3753
  112OSM   H10F11655   5.632   0.485   9.438  0.9071  0.2433 -1.3288
  112OSM   C11F11656   5.819   0.445   9.328 -0.4396  0.1453 -0.2664
  112OSM   H11F11657   5.779   0.357   9.274  2.6619 -0.8627 -0.9958
  112OSM   H11G11658   5.925   0.426   9.355 -0.4354 -0.1449 -0.4904
  112OSM   C12F11659   5.800   0.575   9.248 -0.0756 -0.5190  0.1414
  112OSM   H12F11660   5.813   0.670   9.305  0.7605 -0.2343 -0.5138
  112OSM   H12G11661   5.696   0.575   9.208 -0.4835  0.0405  1.1639
  112OSM   C13F11662   5.895   0.571   9.130 -0.3972  0.7609 -0.1366
  112OSM   H13F11663   5.920   0.466   9.105 -2.6038  0.6877 -2.1507
  112OSM   H13G11664   5.980   0.628   9.174 -0.1377 -1.8049  2.8605
  112OSM   C14F11665   5.839   0.658   9.019  0.6547  0.3752  0.0829
  112OSM   H14F11666   5.804   0.760   9.045 -2.9787 -0.0482 -2.7006
  112OSM   H14G11667   5.745   0.613   8.981  0.5771  1.0350 -0.5121
  112OSM   C15F11668   5.941   0.679   8.903  0.0163  0.7497 -1.0099
  112OSM   H15F11669   6.029   0.735   8.941 -0.9678  0.1411  2.3313
  112OSM   H15G11670   5.890   0.727   8.817 -1.0341 -1.5354 -1.6946
  112OSM   C16F11671   6.004   0.540   8.852 -0.2747  0.1215  0.9124
  112OSM   H16F11672   6.073   0.503   8.931  2.1073  2.3418 -0.0671
  112OSM   H16G11673   6.068   0.569   8.766 -0.6341  2.3616  1.3499
  112OSM   C17F11674   5.906   0.435   8.803  0.6839  0.0137 -0.5604
  112OSM   H17F11675   5.845   0.467   8.717  0.3422 -2.3665 -1.2337
  112OSM   H17G11676   5.828   0.414   8.879  2.1368 -2.2466  0.3923
  112OSM   C18F11677   5.975   0.307   8.775 -0.1877 -0.1203 -0.6508
  112OSM   H18F11678   6.011   0.266   8.872 -2.1897  0.0572  0.1866
  112OSM   H18G11679   6.063   0.327   8.710  1.0376 -0.6399  0.8028
  112OSM   H18H11680   5.912   0.238   8.714  1.1567 -1.9684 -0.0003
  113OSM      N11681   0.011   6.030  11.333  0.4588 -0.0700  0.7680
  113OSM    C1511682   0.113   6.114  11.388 -0.6243 -0.1812 -0.7438
  113OSM   H15A11683   0.138   6.092  11.490 -0.4191 -1.8955 -1.1607
  113OSM   H15B11684   0.077   6.215  11.373 -0.8532  0.0432  1.1570
  113OSM   H15C11685   0.199   6.106  11.323  0.1776 -1.4969  0.4506
  113OSM    C1411686   0.073   5.899  11.299  0.0165  0.4060 -0.0466
  113OSM   H14A11687   0.002   5.842  11.241 -0.2258  1.6949 -1.0372
  113OSM   H14B11688   0.086   5.850  11.394 -0.1455  1.3315  0.4530
  113OSM   H14C11689   0.163   5.907  11.241 -0.3760  0.0215 -0.7263
  113OSM    C1311690  -0.103   6.016  11.433 -0.8042 -0.3607  0.0804
  113OSM   H13A11691  -0.078   5.948  11.513 -0.9895 -1.4485 -0.7766
  113OSM   H13B11692  -0.186   5.971  11.380  0.4296 -1.9989 -0.5146
  113OSM   H13C11693  -0.132   6.111  11.475 -1.8956 -0.3799 -0.6182
  113OSM    C1211694  -0.045   6.092  11.197  0.2900  0.1137  0.0814
  113OSM   H12A11695  -0.092   6.188  11.208  1.3484  0.8387 -1.4595
  113OSM   H12B11696  -0.117   6.028  11.148  1.7093 -1.1628 -0.3809
  113OSM    C1111697   0.062   6.105  11.088 -0.1388 -0.5170  0.8496
  113OSM   H11A11698   0.000   6.145  11.005 -0.2944  0.6749  1.5216
  113OSM   H11B11699   0.113   6.012  11.058 -1.8719 -1.0943 -0.3737
  113OSM      P11700   0.283   6.236  11.052 -0.3321 -0.1825  0.1554
  113OSM    O1311701   0.313   6.370  11.105 -0.3907  0.0899 -0.2569
  113OSM    O1411702   0.380   6.125  11.062 -0.0994  0.2221  0.2756
  113OSM    O1111703   0.242   6.258  10.904  0.4073  0.0697 -0.2924
  113OSM    O1211704   0.152   6.209  11.128 -0.1071  0.2855 -0.0623
  113OSM    C1S11705   0.331   6.242  10.793  0.1674  0.1424 -0.2411
  113OSM    H1S11706   0.401   6.157  10.807  0.0508 -0.2590 -2.0061
  113OSM    H1T11707   0.394   6.333  10.792 -0.1913  0.4057  0.1900
  113OSM     NF11708   0.321   6.153  10.570  0.6437 -0.1888 -0.0479
  113OSM    HNF11709   0.401   6.201  10.536 -0.6507 -0.6307 -3.9283
  113OSM    C2S11710   0.242   6.220  10.667 -0.6798  0.2091  0.2149
  113OSM    H2S11711   0.162   6.150  10.699 -0.3611 -0.0180  0.5144
  113OSM    C3S11712   0.183   6.353  10.625  0.5356 -0.0600 -0.1926
  113OSM    H3S11713   0.266   6.417  10.588  0.1080  0.6596  0.0839
  113OSM     O311714   0.112   6.419  10.728  0.2226  0.4845 -0.7117
  113OSM    HO311715   0.146   6.380  10.809  0.9339 -0.4558 -1.4503
  113OSM    C4S11716   0.094   6.332  10.495  0.3762  0.4803 -1.0150
  113OSM    H4S11717   0.009   6.265  10.512 -0.4953  2.0422  0.9939
  113OSM    C5S11718   0.135   6.367  10.371 -0.1878 -0.1034  0.2617
  113OSM    H5S11719   0.238   6.406  10.362 -1.5105  3.0232 -2.0796
  113OSM    C6S11720   0.057   6.350  10.240  0.0147 -0.1269 -0.7234
  113OSM    H6S11721   0.091   6.420  10.160  3.0839  1.7907  2.1565
  113OSM    H6T11722  -0.051   6.337  10.261  0.2691  0.2476  0.8741
  113OSM    C7S11723   0.103   6.212  10.185  0.6464 -0.0535  0.0561
  113OSM    H7S11724   0.082   6.137  10.264  3.7439 -1.6483 -0.5551
  113OSM    H7T11725   0.212   6.210  10.161  0.4141  1.1723 -1.1591
  113OSM    C8S11726   0.035   6.170  10.046  0.4563 -0.9548 -1.0330
  113OSM    H8S11727  -0.071   6.199  10.060  1.1029  0.1135  2.1108
  113OSM    H8T11728   0.025   6.059  10.051 -0.5697 -0.8243  0.3849
  113OSM    C9S11729   0.110   6.203   9.928  0.5583  0.1997  0.0255
  113OSM    H9S11730   0.203   6.147   9.908  0.7473  0.1909  0.9084
  113OSM    H9T11731   0.143   6.307   9.947 -0.2732  0.7370 -1.3339
  113OSM   C10S11732   0.027   6.191   9.796 -0.3143  0.3155 -0.3115
  113OSM   H10S11733  -0.054   6.266   9.807 -0.1162  0.4083  0.5034
  113OSM   H10T11734  -0.014   6.088   9.800 -0.9394  0.6154  1.7443
  113OSM   C11S11735   0.115   6.233   9.679  0.3482 -0.2265  1.0129
  113OSM   H11S11736   0.221   6.210   9.700  1.0222  2.6387  0.9135
  113OSM   H11T11737   0.105   6.341   9.657 -1.8704 -0.7961 -1.0817
  113OSM   C12S11738   0.074   6.154   9.556 -0.0044  0.2589  0.6511
  113OSM   H12S11739  -0.034   6.163   9.529  0.1475 -0.5462 -0.2566
  113OSM   H12T11740   0.079   6.049   9.591 -1.8811 -0.6077 -1.5350
  113OSM   C13S11741   0.172   6.160   9.431  0.0274 -0.3378 -0.0643
  113OSM   H13S11742   0.275   6.141   9.467 -0.2987 -0.3464  0.8782
  113OSM   H13T11743   0.161   6.263   9.389 -1.3576 -1.4207 -2.4190
  113OSM   C14S11744   0.157   6.056   9.320 -0.6266  0.2691 -0.0253
  113OSM   H14S11745   0.051   6.029   9.302 -0.1034 -0.4064 -2.2720
  113OSM   H14T11746   0.205   5.964   9.361 -0.5004 -0.3760 -1.5995
  113OSM   C15S11747   0.229   6.091   9.186  0.2507 -0.8351  0.0748
  113OSM   H15S11748   0.192   6.187   9.144  0.7894 -1.1118 -1.0426
  113OSM   H15T11749   0.203   6.015   9.109 -2.0887  0.1851 -0.1719
  113OSM   C16S11750   0.377   6.109   9.200  0.6546  0.1683  0.3277
  113OSM   H16S11751   0.420   6.028   9.261 -0.4783 -1.1334 -0.5726
  113OSM   H16T11752   0.390   6.203   9.259  2.4293  1.0364 -1.4094
  113OSM   C17S11753   0.458   6.122   9.065 -0.0441  0.4654  0.0675
  113OSM   H17S11754   0.404   6.177   8.985  1.2480  0.7499 -0.6229
  113OSM   H17T11755   0.482   6.021   9.025 -1.1599 -0.2653  1.2163
  113OSM   C18S11756   0.592   6.188   9.094 -0.3589 -0.3562 -0.0979
  113OSM   H18S11757   0.592   6.286   9.146  0.5831  0.1560 -1.0361
  113OSM   H18T11758   0.640   6.207   8.996 -0.8164 -1.2664 -0.5038
  113OSM   H18U11759   0.656   6.114   9.147  1.5072  0.6806 -0.8721
  113OSM    C1F11760   0.322   6.026  10.544 -0.0381  0.2950 -0.4572
  113OSM     OF11761   0.235   5.945  10.590 -0.4194  0.1949  0.6692
  113OSM    C2F11762   0.438   5.992  10.451  0.1969 -0.4627 -0.1126
  113OSM    H2F11763   0.539   6.030  10.477  0.3407 -0.1295 -1.1623
  113OSM    H2G11764   0.416   6.038  10.353 -1.0594 -1.6063 -0.3877
  113OSM    C3F11765   0.444   5.837  10.449  0.6425 -0.0578 -0.0657
  113OSM    H3F11766   0.341   5.810  10.415 -0.5601  2.8399  1.1525
  113OSM    H3G11767   0.464   5.784  10.545 -1.3596  0.1300  0.4805
  113OSM    C4F11768   0.541   5.792  10.343  0.0604 -0.3460  0.3854
  113OSM    H4F11769   0.640   5.842  10.349 -0.1126 -0.0536  0.8657
  113OSM    H4G11770   0.506   5.831  10.245  2.1259  2.5691  0.7291
  113OSM    C5F11771   0.558   5.638  10.329  0.6809 -0.2712  0.0924
  113OSM    H5F11772   0.453   5.600  10.329 -0.3273  2.3959 -0.4043
  113OSM    H5G11773   0.618   5.603  10.416  0.9400 -0.4131 -0.1427
  113OSM    C6F11774   0.612   5.605  10.186  0.0786  0.7110 -0.0091
  113OSM    H6F11775   0.714   5.643  10.167  0.4173 -0.8301 -1.3967
  113OSM    H6G11776   0.548   5.644  10.104 -0.6478 -2.5231 -1.0488
  113OSM    C7F11777   0.613   5.450  10.153 -0.2050  0.8573 -0.3184
  113OSM    H7F11778   0.619   5.415  10.258  2.5680  2.1251 -0.0204
  113OSM    H7G11779   0.710   5.422  10.106 -0.9324 -4.0640  0.8444
  113OSM    C8F11780   0.485   5.392  10.081  0.3345  0.6483 -0.1141
  113OSM    H8F11781   0.402   5.430  10.145 -2.9869 -1.9015 -2.7166
  113OSM    H8G11782   0.486   5.281  10.078  0.4774  0.6716 -1.0848
  113OSM    C9F11783   0.468   5.433   9.942 -0.3011  0.3360 -0.4226
  113OSM    H9F11784   0.398   5.515   9.923  1.0444  1.6207  0.1022
  113OSM   C10F11785   0.515   5.367   9.832  0.0894  0.2518 -0.7626
  113OSM   H10F11786   0.476   5.403   9.736 -1.4595  1.9336  0.4536
  113OSM   C11F11787   0.617   5.251   9.837 -0.8888  0.5222  0.4193
  113OSM   H11F11788   0.574   5.167   9.779  1.1449  0.8002 -1.5366
  113OSM   H11G11789   0.628   5.226   9.945  0.0006 -0.8907  0.0162
  113OSM   C12F11790   0.759   5.282   9.791 -0.0485  0.1121 -0.2272
  113OSM   H12F11791   0.828   5.195   9.790 -0.0064  0.1498 -0.6805
  113OSM   H12G11792   0.810   5.354   9.858 -0.2352  1.4110 -1.4588
  113OSM   C13F11793   0.762   5.347   9.647  0.4697 -0.0236 -0.0995
  113OSM   H13F11794   0.870   5.366   9.632  0.5362 -0.6885 -0.4843
  113OSM   H13G11795   0.704   5.441   9.646 -1.8881 -1.4329 -0.1698
  113OSM   C14F11796   0.726   5.251   9.534 -0.3172  0.0390  0.5560
  113OSM   H14F11797   0.624   5.210   9.548 -1.2251  1.8930 -0.3940
  113OSM   H14G11798   0.793   5.163   9.530  0.4493  0.6417 -0.3009
  113OSM   C15F11799   0.741   5.316   9.394  0.7016  0.6352  0.6517
  113OSM   H15F11800   0.844   5.304   9.354  0.8911 -0.3573  1.4254
  113OSM   H15G11801   0.718   5.424   9.410 -0.8639  0.2309  1.2024
  113OSM   C16F11802   0.658   5.247   9.282 -0.5798  0.6967 -0.1644
  113OSM   H16F11803   0.645   5.324   9.203  0.3200  0.2900 -0.7170
  113OSM   H16G11804   0.562   5.210   9.325 -1.0326 -0.8339 -2.3485
  113OSM   C17F11805   0.721   5.125   9.206 -0.3101  0.4137 -0.2725
  113OSM   H17F11806   0.722   5.044   9.281 -3.3639  0.3366 -0.2459
  113OSM   H17G11807   0.823   5.152   9.171 -1.0190 -0.0024 -2.7890
  113OSM   C18F11808   0.639   5.058   9.094  0.0867  0.7353  0.1433
  113OSM   H18F11809   0.640   5.135   9.014  1.4824  0.0139 -0.5486
  113OSM   H18G11810   0.537   5.029   9.125 -0.8976  0.3484 -3.2651
  113OSM   H18H11811   0.695   4.972   9.054  0.1400  0.6431  0.4117
  114OSM      N11812   0.645   5.156  11.227  0.0502 -0.4747  0.1740
  114OSM    C1511813   0.507   5.096  11.218  0.5047 -0.4053 -0.2962
  114OSM   H15A11814   0.511   4.989  11.201 -4.6294 -0.6647 -0.7829
  114OSM   H15B11815   0.452   5.135  11.134  0.1232  0.7866  0.4976
  114OSM   H15C11816   0.446   5.115  11.305 -1.8764 -1.9612 -1.5584
  114OSM    C1411817   0.726   5.130  11.099 -0.4264 -0.1051 -0.2353
  114OSM   H14A11818   0.827   5.165  11.110 -0.2544 -1.2382  2.0286
  114OSM   H14B11819   0.679   5.174  11.012  1.7158 -1.6965 -2.2453
  114OSM   H14C11820   0.730   5.024  11.083 -2.9086 -0.1138 -1.0615
  114OSM    C1311821   0.627   5.302  11.247  0.6816  0.4537 -0.9557
  114OSM   H13A11822   0.597   5.305  11.351 -0.6977 -0.8130 -1.3044
  114OSM   H13B11823   0.553   5.339  11.179  0.7162  1.9485 -0.1910
  114OSM   H13C11824   0.724   5.350  11.236 -0.0132  1.6610 -1.8702
  114OSM    C1211825   0.708   5.098  11.346 -0.3174 -0.4517 -0.2435
  114OSM   H12A11826   0.691   4.992  11.358 -0.1579 -0.5999 -1.3220
  114OSM   H12B11827   0.662   5.148  11.430  0.8771  2.0547 -1.0438
  114OSM    C1111828   0.860   5.123  11.361 -0.7900  0.3822 -0.2070
  114OSM   H11A11829   0.887   5.113  11.468  1.0644 -0.6657 -0.7552
  114OSM   H11B11830   0.889   5.227  11.336  2.4014 -0.5737 -0.6334
  114OSM      P11831   1.090   5.014  11.301 -0.2014  0.0226 -0.1526
  114OSM    O1311832   1.154   5.142  11.336 -0.0564 -0.3296 -0.2248
  114OSM    O1411833   1.116   4.893  11.381  0.2271  0.5515 -0.4815
  114OSM    O1111834   1.123   4.986  11.146 -0.9793 -0.1971  0.3030
  114OSM    O1211835   0.936   5.027  11.287 -0.1426  0.2226 -0.0000
  114OSM    C1S11836   1.117   5.090  11.050  0.1049 -0.8261 -0.4608
  114OSM    H1S11837   1.204   5.157  11.067 -3.0772  2.9014  1.7666
  114OSM    H1T11838   1.028   5.155  11.058  0.9604  0.4657 -1.1434
  114OSM     NF11839   1.135   5.161  10.815  0.2318 -0.1908  0.4906
  114OSM    HNF11840   1.050   5.187  10.772  2.3401  3.2979 -1.7966
  114OSM    C2S11841   1.131   5.049  10.904 -0.2785 -0.6781 -0.1416
  114OSM    H2S11842   1.229   4.998  10.902  0.7624  1.2795 -1.0158
  114OSM    C3S11843   1.015   4.953  10.871 -0.6022 -0.1026 -0.0937
  114OSM    H3S11844   0.912   4.986  10.896 -0.4381 -1.0812  1.9546
  114OSM     O311845   0.995   4.840  10.959  0.0075  0.0902 -0.1605
  114OSM    HO311846   1.050   4.853  11.036  0.1583 -1.5980  0.0395
  114OSM    C4S11847   1.013   4.909  10.724  0.0686 -0.0543 -0.1424
  114OSM    H4S11848   1.103   4.864  10.678 -0.3826  0.8772 -2.0257
  114OSM    C5S11849   0.903   4.906  10.645  0.3272  0.1443 -0.7536
  114OSM    H5S11850   0.804   4.932  10.685 -0.0871 -0.1613 -1.5766
  114OSM    C6S11851   0.913   4.850  10.507 -0.7556  0.2353  0.1203
  114OSM    H6S11852   0.822   4.792  10.482  0.7956 -1.8317 -0.9140
  114OSM    H6T11853   0.993   4.773  10.504 -1.5217 -0.6655  1.8839
  114OSM    C7S11854   0.954   4.959  10.406  0.3380  0.4074 -0.2989
  114OSM    H7S11855   1.046   5.003  10.450  0.9969  0.0775 -1.3345
  114OSM    H7T11856   0.871   5.034  10.400 -0.1223  0.0857  1.6911
  114OSM    C8S11857   0.981   4.895  10.268  0.2263  0.3432 -0.6678
  114OSM    H8S11858   0.889   4.840  10.237 -0.6993  1.5102 -0.0373
  114OSM    H8T11859   1.073   4.833  10.268 -0.8682 -1.2900 -1.9784
  114OSM    C9S11860   1.000   5.012  10.167 -0.2183 -0.8317 -0.3203
  114OSM    H9S11861   1.079   5.086  10.192  0.5953 -1.6619 -0.4041
  114OSM    H9T11862   0.909   5.076  10.158  1.2716  1.2607 -0.8896
  114OSM   C10S11863   1.036   4.949  10.028  0.5525 -0.4834 -0.8712
  114OSM   H10S11864   0.938   4.904  10.000 -0.5215  0.2385  1.5995
  114OSM   H10T11865   1.122   4.879  10.032 -0.3494 -1.5783 -0.3871
  114OSM   C11S11866   1.072   5.051   9.916  0.5145 -0.5353  0.2098
  114OSM   H11S11867   1.164   5.101   9.956  1.4436 -0.3372 -2.1080
  114OSM   H11T11868   0.983   5.117   9.918  0.4706 -0.5531 -1.0927
  114OSM   C12S11869   1.082   4.994   9.778  0.1185 -0.0963  0.5064
  114OSM   H12S11870   0.989   4.943   9.744  0.7103 -0.4817 -0.5641
  114OSM   H12T11871   1.162   4.919   9.794 -0.7687 -0.2204  5.1079
  114OSM   C13S11872   1.110   5.096   9.670 -0.2308 -0.1585 -1.1689
  114OSM   H13S11873   1.219   5.115   9.677 -0.3090  0.4037 -1.4912
  114OSM   H13T11874   1.072   5.199   9.687  0.3019 -0.1070 -0.2477
  114OSM   C14S11875   1.084   5.045   9.527 -0.0321  0.5402 -0.0364
  114OSM   H14S11876   0.983   4.998   9.520  1.5289 -2.9455  0.1401
  114OSM   H14T11877   1.142   4.951   9.518 -0.0447  0.5218  0.0848
  114OSM   C15S11878   1.108   5.137   9.404  0.2270 -0.1202 -0.1406
  114OSM   H15S11879   1.209   5.184   9.399 -0.0903  0.5767 -0.0101
  114OSM   H15T11880   1.035   5.220   9.414  1.1749  0.7113  0.0273
  114OSM   C16S11881   1.102   5.060   9.270 -0.3577 -0.4348  0.0746
  114OSM   H16S11882   1.002   5.012   9.264 -1.2602  1.2944  0.9160
  114OSM   H16T11883   1.176   4.978   9.276 -1.0058 -1.0725 -0.6564
  114OSM   C17S11884   1.143   5.156   9.158  0.3532 -0.1396 -0.5327
  114OSM   H17S11885   1.253   5.147   9.145  0.1352 -1.3874 -1.5433
  114OSM   H17T11886   1.118   5.261   9.187  2.1395  0.2940 -0.4796
  114OSM   C18S11887   1.076   5.132   9.024  0.3384  0.4312  0.0830
  114OSM   H18S11888   0.970   5.165   9.025  0.8172  2.0972 -0.8686
  114OSM   H18T11889   1.084   5.028   8.988 -0.1568  0.1158  0.8699
  114OSM   H18U11890   1.131   5.184   8.942  1.4984 -1.0590 -0.1140
  114OSM    C1F11891   1.244   5.232  10.807 -0.4647 -1.3141 -0.9393
  114OSM     OF11892   1.334   5.222  10.889  0.2224 -0.1282 -0.3291
  114OSM    C2F11893   1.240   5.347  10.710  0.2127 -0.0245 -0.1247
  114OSM    H2F11894   1.235   5.448  10.758 -0.4519  0.4235 -1.1164
  114OSM    H2G11895   1.147   5.337  10.651 -0.3693  1.2986  0.5412
  114OSM    C3F11896   1.359   5.344  10.602  0.2055  0.3843 -0.7353
  114OSM    H3F11897   1.448   5.390  10.650 -1.0081  0.7944  1.1959
  114OSM    H3G11898   1.333   5.402  10.511 -2.1319  2.3180  1.0923
  114OSM    C4F11899   1.401   5.202  10.558 -0.1612  0.2325 -0.1814
  114OSM    H4F11900   1.412   5.133  10.645  1.6559 -1.2077 -1.5091
  114OSM    H4G11901   1.500   5.204  10.508  2.1364  1.9543  4.1442
  114OSM    C5F11902   1.298   5.142  10.461 -0.0089 -0.0255 -0.4243
  114OSM    H5F11903   1.285   5.197  10.365 -0.0715 -2.0012 -1.5784
  114OSM    H5G11904   1.196   5.149  10.504  0.6853  0.2089  1.2248
  114OSM    C6F11905   1.319   4.989  10.430  0.3697 -0.1932 -0.2476
  114OSM    H6F11906   1.247   4.971  10.348  1.0812 -3.8566 -0.1439
  114OSM    H6G11907   1.289   4.929  10.519  0.4232  1.6272  1.0256
  114OSM    C7F11908   1.465   4.958  10.380 -0.2899 -0.8275  0.6691
  114OSM    H7F11909   1.538   4.985  10.458  1.1918  2.1078 -1.6534
  114OSM    H7G11910   1.473   5.017  10.286  0.9944 -2.3465 -0.1957
  114OSM    C8F11911   1.484   4.808  10.340  0.4731 -0.9574 -0.3406
  114OSM    H8F11912   1.484   4.768  10.444 -0.3508 -0.3649 -0.1097
  114OSM    H8G11913   1.587   4.786  10.303 -0.5414 -0.4454 -3.5808
  114OSM    C9F11914   1.389   4.735  10.246 -0.3272 -0.7508  0.3757
  114OSM    H9F11915   1.287   4.709  10.280 -0.7886  1.1575  0.5082
  114OSM   C10F11916   1.408   4.719  10.118  0.0442 -0.7423  0.0921
  114OSM   H10F11917   1.340   4.652  10.064  0.4891 -0.8351 -0.3547
  114OSM   C11F11918   1.538   4.761  10.043  0.0533 -0.1660  0.1277
  114OSM   H11F11919   1.629   4.698  10.057 -0.5092 -1.5487 -2.1361
  114OSM   H11G11920   1.561   4.862  10.084  1.4572 -0.0282 -0.9439
  114OSM   C12F11921   1.521   4.778   9.890 -0.4475  0.9960 -0.0744
  114OSM   H12F11922   1.610   4.838   9.861 -0.0744  0.4177 -0.1243
  114OSM   H12G11923   1.427   4.834   9.871  0.8487  3.0358 -0.5974
  114OSM   C13F11924   1.510   4.649   9.816 -0.1227 -0.0648 -0.2419
  114OSM   H13F11925   1.409   4.611   9.844 -0.0546 -0.1762 -0.1474
  114OSM   H13G11926   1.594   4.582   9.844  2.0840  2.3964 -0.7590
  114OSM   C14F11927   1.512   4.660   9.662 -0.0843  0.3398  0.1040
  114OSM   H14F11928   1.615   4.680   9.627  0.4102  0.7846  1.7709
  114OSM   H14G11929   1.461   4.756   9.640 -1.4587 -0.2703  0.5415
  114OSM   C15F11930   1.455   4.544   9.586 -0.1867  0.2670  0.1219
  114OSM   H15F11931   1.417   4.568   9.485  0.8927  1.5937  0.0196
  114OSM   H15G11932   1.369   4.497   9.640 -0.4015 -0.0192 -0.4653
  114OSM   C16F11933   1.559   4.434   9.550 -0.3781 -0.2837  0.1065
  114OSM   H16F11934   1.502   4.340   9.531  1.6619 -1.7471  1.1385
  114OSM   H16G11935   1.634   4.401   9.625  0.5419  0.0735 -0.6549
  114OSM   C17F11936   1.641   4.447   9.419 -1.4611  0.5165 -0.1846
  114OSM   H17F11937   1.715   4.529   9.432  0.8400 -1.7506  1.7127
  114OSM   H17G11938   1.566   4.462   9.339 -0.0255  0.2232 -1.6108
  114OSM   C18F11939   1.734   4.328   9.391 -0.2971  0.6625  0.8896
  114OSM   H18F11940   1.798   4.351   9.302  0.0572  0.2327  1.0266
  114OSM   H18G11941   1.676   4.237   9.365 -2.4208  1.9987  0.8281
  114OSM   H18H11942   1.799   4.304   9.477  0.1011 -0.6066  0.2519
  115OSM      N11943   2.747   2.192   6.452  0.0110 -0.1247 -0.1619
  115OSM    C1511944   2.610   2.212   6.520  0.5369 -0.2549  0.6368
  115OSM   H15A11945   2.604   2.319   6.534  2.1319  0.0275 -0.6918
  115OSM   H15B11946   2.605   2.178   6.623  2.7798  0.7435  1.1047
  115OSM   H15C11947   2.529   2.169   6.463  2.1506 -1.7214 -0.5884
  115OSM    C1411948   2.841   2.243   6.553  0.8328  0.5011  0.2263
  115OSM   H14A11949   2.803   2.332   6.602 -0.0119  0.4040 -0.2373
  115OSM   H14B11950   2.932   2.276   6.505 -0.2177  0.0520 -2.1349
  115OSM   H14C11951   2.858   2.167   6.628  0.7357 -1.2357 -1.4926
  115OSM    C1311952   2.759   2.044   6.438 -0.1651  0.3970  0.0126
  115OSM   H13A11953   2.697   1.999   6.363  2.1650  0.2374 -1.8741
  115OSM   H13B11954   2.729   1.999   6.532 -0.3150  0.8768  0.1987
  115OSM   H13C11955   2.856   2.012   6.402 -0.1458  2.1197 -1.5476
  115OSM    C1211956   2.758   2.258   6.317  0.0400 -0.2266  0.6389
  115OSM   H12A11957   2.668   2.237   6.260 -1.1510 -2.5057  3.2919
  115OSM   H12B11958   2.838   2.213   6.261 -0.5251  0.5381 -0.8266
  115OSM    C1111959   2.787   2.415   6.310 -0.5327  1.0779 -0.7864
  115OSM   H11A11960   2.815   2.447   6.208 -1.8200  1.7962 -0.9271
  115OSM   H11B11961   2.880   2.437   6.366 -0.3058 -2.1078  0.1507
  115OSM      P11962   2.541   2.509   6.283 -0.1870  0.0293 -0.1732
  115OSM    O1311963   2.573   2.584   6.158  0.0063 -0.4670  0.0770
  115OSM    O1411964   2.477   2.376   6.264 -0.0369  0.1857 -0.3335
  115OSM    O1111965   2.444   2.600   6.379  0.2021  0.1013  0.0911
  115OSM    O1211966   2.677   2.494   6.366  0.8348 -0.2285 -0.0402
  115OSM    C1S11967   2.432   2.572   6.521 -0.6739  0.4024  0.1912
  115OSM    H1S11968   2.533   2.552   6.561 -0.4097  0.6987 -0.3239
  115OSM    H1T11969   2.359   2.490   6.540  0.6338 -0.5300  1.2568
  115OSM     NF11970   2.367   2.672   6.749  0.1075 -0.3724 -0.4051
  115OSM    HNF11971   2.277   2.684   6.790 -0.1052  1.0078 -1.2431
  115OSM    C2S11972   2.370   2.694   6.602 -0.5752  0.3187  0.5107
  115OSM    H2S11973   2.432   2.785   6.588  1.7719 -1.1808  0.8472
  115OSM    C3S11974   2.228   2.739   6.543  0.1586 -0.0342  0.0546
  115OSM    H3S11975   2.169   2.647   6.563  3.3140 -1.5626  2.8757
  115OSM     O311976   2.224   2.755   6.403  0.2049 -0.1575  0.0576
  115OSM    HO311977   2.301   2.703   6.382  1.5133  0.9952  1.7996
  115OSM    C4S11978   2.170   2.855   6.623  0.0977 -0.3562  0.5456
  115OSM    H4S11979   2.071   2.838   6.670 -0.2899  0.3742  0.0021
  115OSM    C5S11980   2.220   2.979   6.610 -0.0828 -0.3012  0.0210
  115OSM    H5S11981   2.308   2.995   6.546  0.7196  0.0415  1.1759
  115OSM    C6S11982   2.163   3.095   6.684  0.3015  0.0374  0.0961
  115OSM    H6S11983   2.080   3.063   6.750  0.5267 -1.9310 -0.5202
  115OSM    H6T11984   2.128   3.180   6.622  0.1955  0.7347  1.1010
  115OSM    C7S11985   2.265   3.152   6.788 -0.8256 -0.3426 -0.1726
  115OSM    H7S11986   2.208   3.231   6.841  0.2702  1.0852 -1.0801
  115OSM    H7T11987   2.356   3.192   6.738 -1.1779 -0.6952 -1.1157
  115OSM    C8S11988   2.289   3.061   6.912 -0.7003 -0.6822 -0.1862
  115OSM    H8S11989   2.338   2.970   6.872 -1.5284 -2.2564  2.2781
  115OSM    H8T11990   2.185   3.042   6.946 -1.1665  1.0385 -0.5712
  115OSM    C9S11991   2.376   3.125   7.021  0.3006 -1.2119 -0.0359
  115OSM    H9S11992   2.338   3.228   7.040 -1.2647 -1.8747  0.4321
  115OSM    H9T11993   2.481   3.139   6.985  0.2565  1.2344  0.7019
  115OSM   C10S11994   2.384   3.047   7.149  0.0958 -0.4470  0.7608
  115OSM   H10S11995   2.434   2.953   7.117  0.6558  0.3396 -0.7797
  115OSM   H10T11996   2.280   3.032   7.183 -0.0865 -0.1105  0.3524
  115OSM   C11S11997   2.469   3.105   7.259 -0.4972 -0.2107 -0.0248
  115OSM   H11S11998   2.440   3.210   7.281 -1.0247 -0.5070  0.7236
  115OSM   H11T11999   2.574   3.110   7.222 -0.5921 -1.0877 -0.4252
  115OSM   C12S12000   2.469   3.017   7.380 -0.7940 -0.9469 -0.2520
  115OSM   H12S12001   2.503   2.916   7.349  1.0862 -0.5799  0.5748
  115OSM   H12T12002   2.373   3.007   7.436 -0.0091  1.4450  1.5973
  115OSM   C13S12003   2.585   3.057   7.484  0.7753 -0.0276  0.5614
  115OSM   H13S12004   2.565   2.999   7.577 -0.0318 -0.1341  0.3224
  115OSM   H13T12005   2.584   3.167   7.499  0.6139  0.0215  0.1915
  115OSM   C14S12006   2.731   3.010   7.450  0.0989  0.1803  0.2670
  115OSM   H14S12007   2.805   3.086   7.481  1.1817 -0.8920  0.3714
  115OSM   H14T12008   2.738   3.010   7.339  1.1151  1.8716  0.3255
  115OSM   C15S12009   2.765   2.882   7.520 -0.6332 -0.7905 -0.4853
  115OSM   H15S12010   2.681   2.812   7.505 -0.9089 -0.2226 -1.6886
  115OSM   H15T12011   2.789   2.893   7.628  1.0478 -0.9131 -0.8338
  115OSM   C16S12012   2.898   2.832   7.456 -0.6090  0.0395  0.2959
  115OSM   H16S12013   2.977   2.906   7.482 -0.2182 -0.3617  0.2526
  115OSM   H16T12014   2.893   2.830   7.345 -0.6343  1.1477  0.2715
  115OSM   C17S12015   2.945   2.690   7.493 -0.0357  1.1003 -0.6250
  115OSM   H17S12016   3.050   2.681   7.458 -0.2538 -0.9542 -0.8499
  115OSM   H17T12017   2.881   2.618   7.437 -1.1181  0.6494  1.1750
  115OSM   C18S12018   2.932   2.655   7.643 -0.0279 -0.3613  0.3998
  115OSM   H18S12019   2.834   2.686   7.684  0.8427  2.2505  0.5760
  115OSM   H18T12020   3.011   2.697   7.709  0.8437  2.1966 -2.1588
  115OSM   H18U12021   2.949   2.545   7.651  0.7593 -0.2530  0.2505
  115OSM    C1F12022   2.480   2.644   6.811  0.2667 -0.4145  0.1796
  115OSM     OF12023   2.594   2.653   6.758  0.0570 -0.0917 -0.2917
  115OSM    C2F12024   2.460   2.616   6.958  0.3798  0.5817 -0.6611
  115OSM    H2F12025   2.466   2.507   6.980  0.7872  0.7792  0.2646
  115OSM    H2G12026   2.367   2.658   7.002  1.1675 -1.2993  3.0664
  115OSM    C3F12027   2.579   2.677   7.043  0.1118  0.1412  0.0337
  115OSM    H3F12028   2.574   2.786   7.022 -1.3067  0.1839  0.5790
  115OSM    H3G12029   2.677   2.638   7.007  0.3769  0.3985  0.4718
  115OSM    C4F12030   2.575   2.664   7.195 -0.0519  0.0942  0.3151
  115OSM    H4F12031   2.476   2.697   7.235  0.1763 -0.6645  1.5407
  115OSM    H4G12032   2.649   2.735   7.237 -1.5846  1.6189  0.5297
  115OSM    C5F12033   2.601   2.514   7.247 -0.7268 -0.4266  0.3827
  115OSM    H5F12034   2.700   2.489   7.204 -1.9851 -0.4222 -2.6174
  115OSM    H5G12035   2.525   2.448   7.200 -0.3516 -0.8939  0.4272
  115OSM    C6F12036   2.598   2.497   7.399 -0.0055 -0.1513 -0.3043
  115OSM    H6F12037   2.490   2.510   7.422  0.4325  1.6585  0.8522
  115OSM    H6G12038   2.653   2.580   7.447 -0.1078  0.4848 -1.2848
  115OSM    C7F12039   2.654   2.359   7.451 -0.2228  0.5057 -0.1334
  115OSM    H7F12040   2.756   2.346   7.408  0.1919  0.2867  0.9025
  115OSM    H7G12041   2.593   2.285   7.396  0.5399  0.6070 -1.1294
  115OSM    C8F12042   2.648   2.344   7.605 -0.4195  0.4170 -0.2648
  115OSM    H8F12043   2.693   2.435   7.651  0.6626 -0.5656  0.6527
  115OSM    H8G12044   2.721   2.266   7.634  1.2311  2.1974  0.5292
  115OSM    C9F12045   2.505   2.333   7.668 -0.2021 -0.1453 -0.2079
  115OSM    H9F12046   2.426   2.292   7.604  1.2710 -1.5663 -1.1407
  115OSM   C10F12047   2.484   2.398   7.783  0.1079  0.0146 -0.5360
  115OSM   H10F12048   2.383   2.381   7.823  1.2881  0.4772  2.8465
  115OSM   C11F12049   2.569   2.487   7.877  0.6522  0.1364  0.0966
  115OSM   H11F12050   2.662   2.510   7.821  0.5253  1.6020  0.4767
  115OSM   H11G12051   2.592   2.430   7.969 -0.1216 -0.3305  0.0073
  115OSM   C12F12052   2.510   2.631   7.903 -0.0517 -0.3086  0.0406
  115OSM   H12F12053   2.405   2.614   7.934 -0.1845 -0.5246 -0.5185
  115OSM   H12G12054   2.503   2.673   7.800  1.1627 -0.1872 -0.0003
  115OSM   C13F12055   2.585   2.726   8.005 -0.0185 -0.5036  0.0079
  115OSM   H13F12056   2.586   2.684   8.107 -1.3640 -0.5770  0.0050
  115OSM   H13G12057   2.540   2.828   8.015 -0.5659 -0.7171 -0.2356
  115OSM   C14F12058   2.726   2.742   7.957 -0.2023 -0.0740 -0.3863
  115OSM   H14F12059   2.717   2.786   7.855  0.5678 -2.4464 -1.5151
  115OSM   H14G12060   2.777   2.646   7.935  1.5400  0.8641 -0.5305
  115OSM   C15F12061   2.805   2.836   8.049 -0.3833 -0.5605 -0.5321
  115OSM   H15F12062   2.789   2.814   8.157  0.0302 -0.1664 -0.3886
  115OSM   H15G12063   2.769   2.940   8.030  1.5045 -0.0087 -1.2026
  115OSM   C16F12064   2.954   2.825   8.035  0.5370 -0.3676 -0.7789
  115OSM   H16F12065   2.985   2.718   8.033  0.8101 -0.3295  0.5270
  115OSM   H16G12066   2.998   2.873   8.125  0.2253  3.0979 -2.4153
  115OSM   C17F12067   3.007   2.901   7.907 -0.0336  0.1602 -0.7419
  115OSM   H17F12068   2.930   2.911   7.828  1.4194  1.9338 -1.9540
  115OSM   H17G12069   3.091   2.846   7.859 -0.2529 -1.4112  0.6352
  115OSM   C18F12070   3.074   3.035   7.942 -0.0473  0.3172  0.4870
  115OSM   H18F12071   3.007   3.100   8.003 -1.3769 -0.1536 -0.4259
  115OSM   H18G12072   3.101   3.109   7.863 -2.1676 -0.1495 -0.7342
  115OSM   H18H12073   3.157   3.003   8.008 -0.0681 -2.3319 -0.7077
  116OSM      N12074   2.075   6.702   6.205 -0.0633 -0.1529 -0.3888
  116OSM    C1512075   2.014   6.837   6.232  0.4944 -0.3026  1.1930
  116OSM   H15A12076   2.083   6.917   6.211 -1.0010  0.1128 -2.6546
  116OSM   H15B12077   1.987   6.843   6.336  1.5345 -2.3989  1.6063
  116OSM   H15C12078   1.921   6.857   6.182  0.9432  1.6796  1.1119
  116OSM    C1412079   2.148   6.711   6.072  0.1357 -0.6545  0.4467
  116OSM   H14A12080   2.207   6.801   6.082 -1.1770  0.2065  0.4898
  116OSM   H14B12081   2.076   6.726   5.993  2.0015 -1.5697 -1.4924
  116OSM   H14C12082   2.207   6.628   6.036 -0.6789 -1.2605  0.4948
  116OSM    C1312083   2.175   6.672   6.311  0.1599  0.1813 -0.5403
  116OSM   H13A12084   2.237   6.585   6.299  0.6122  0.4091  0.1400
  116OSM   H13B12085   2.129   6.652   6.407  1.0691  1.1831  0.1160
  116OSM   H13C12086   2.242   6.756   6.327 -2.9606  2.8534 -0.9012
  116OSM    C1212087   1.963   6.587   6.193 -0.2318  0.7409  0.1155
  116OSM   H12A12088   1.926   6.571   6.293  1.0029  2.2730  0.8297
  116OSM   H12B12089   2.016   6.495   6.173 -2.5518 -0.3931 -1.0656
  116OSM    C1112090   1.845   6.600   6.093  0.4490  0.9331  0.1353
  116OSM   H11A12091   1.775   6.518   6.119  0.6570  1.2219  1.7051
  116OSM   H11B12092   1.887   6.590   5.991  0.1707 -1.5324  0.2452
  116OSM      P12093   1.615   6.738   6.132 -0.3188 -0.1210  0.1638
  116OSM    O1312094   1.570   6.879   6.122 -0.4943  0.0237  0.0911
  116OSM    O1412095   1.542   6.647   6.046 -0.1724 -0.3455  0.0612
  116OSM    O1112096   1.598   6.691   6.281  0.1483  0.5243  0.1760
  116OSM    O1212097   1.772   6.726   6.106 -0.0917  0.0370 -0.1848
  116OSM    C1S12098   1.702   6.689   6.376  0.5458 -0.2242  0.5333
  116OSM    H1S12099   1.797   6.742   6.351 -0.6636  0.9244 -1.8169
  116OSM    H1T12100   1.722   6.583   6.400  1.8245 -0.0372  0.3553
  116OSM     NF12101   1.762   6.738   6.606 -0.0988 -0.2186  0.1361
  116OSM    HNF12102   1.769   6.651   6.654  0.1421  1.3753  3.0670
  116OSM    C2S12103   1.652   6.737   6.514  0.0677  0.0974 -0.2179
  116OSM    H2S12104   1.616   6.842   6.506  0.7549  0.4197  0.7682
  116OSM    C3S12105   1.532   6.656   6.575 -1.2876  0.2263  0.0463
  116OSM    H3S12106   1.581   6.563   6.610  0.9806  1.9922  1.7798
  116OSM     O312107   1.434   6.611   6.483 -0.4525  0.1969  0.1489
  116OSM    HO312108   1.467   6.630   6.395 -2.6703 -0.3288 -0.8180
  116OSM    C4S12109   1.470   6.720   6.693  0.4478 -0.2339 -0.2536
  116OSM    H4S12110   1.510   6.696   6.793 -1.8924 -0.7791  0.5939
  116OSM    C5S12111   1.367   6.805   6.691 -0.6017  0.1069 -0.1874
  116OSM    H5S12112   1.324   6.822   6.591 -0.7126 -1.4978 -0.4236
  116OSM    C6S12113   1.309   6.884   6.802  0.3590 -0.5633 -0.3996
  116OSM    H6S12114   1.198   6.875   6.807  0.2328  0.7254 -0.7950
  116OSM    H6T12115   1.331   6.988   6.771 -1.2730 -0.6845 -2.0373
  116OSM    C7S12116   1.368   6.870   6.938 -0.2952  0.8161 -0.0867
  116OSM    H7S12117   1.473   6.907   6.943  0.9268 -2.5489  0.8908
  116OSM    H7T12118   1.366   6.763   6.970  0.4330  1.3560  1.8494
  116OSM    C8S12119   1.275   6.937   7.040 -0.6503  0.3716 -0.0637
  116OSM    H8S12120   1.176   6.887   7.052 -0.6282  0.7837  1.9667
  116OSM    H8T12121   1.266   7.044   7.012  0.4952  0.1692 -1.2467
  116OSM    C9S12122   1.332   6.932   7.178  1.0225  0.0703  0.3698
  116OSM    H9S12123   1.423   6.994   7.185  0.6655  0.4988  1.3925
  116OSM    H9T12124   1.350   6.825   7.200  0.4044  0.0211  0.6600
  116OSM   C10S12125   1.236   6.972   7.287  0.3395 -0.4387 -0.4494
  116OSM   H10S12126   1.167   6.886   7.300  2.5380 -2.1796 -0.0482
  116OSM   H10T12127   1.170   7.054   7.250  2.1006  0.1722 -2.3794
  116OSM   C11S12128   1.293   7.038   7.413  0.4694 -0.1544  0.1329
  116OSM   H11S12129   1.314   7.142   7.380  0.6210 -0.5157 -0.8966
  116OSM   H11T12130   1.388   6.990   7.444  0.0160  0.3347  2.4579
  116OSM   C12S12131   1.197   7.040   7.529 -0.3923  0.1625  0.6510
  116OSM   H12S12132   1.153   6.938   7.534 -0.8084  0.1724 -2.1544
  116OSM   H12T12133   1.113   7.108   7.505  0.2990  0.9540  0.4680
  116OSM   C13S12134   1.262   7.082   7.656  0.2156  0.0599 -0.7899
  116OSM   H13S12135   1.319   7.177   7.649 -0.0918  0.3537  0.5657
  116OSM   H13T12136   1.318   6.994   7.692 -0.0305  0.7128  1.2240
  116OSM   C14S12137   1.153   7.105   7.758 -0.2659  0.8501 -0.4600
  116OSM   H14S12138   1.074   7.028   7.748  1.1282 -0.7850  0.8192
  116OSM   H14T12139   1.098   7.200   7.742 -4.0005 -0.9550  1.0520
  116OSM   C15S12140   1.207   7.093   7.908 -0.4346 -0.1309  0.3233
  116OSM   H15S12141   1.266   7.186   7.920 -0.7737  0.3714 -1.6418
  116OSM   H15T12142   1.251   6.992   7.925 -0.3270 -0.1781 -0.2171
  116OSM   C16S12143   1.100   7.104   8.012 -0.0509 -0.1606 -0.6880
  116OSM   H16S12144   1.025   7.022   8.023  0.6499 -0.7982 -0.6210
  116OSM   H16T12145   1.043   7.198   7.995  3.4364  2.0531 -0.6524
  116OSM   C17S12146   1.158   7.116   8.161 -0.4643  0.1376  0.3838
  116OSM   H17S12147   1.211   7.214   8.163  0.1795 -0.2240  1.4566
  116OSM   H17T12148   1.236   7.038   8.171  1.2967  1.5750 -1.4787
  116OSM   C18S12149   1.047   7.103   8.265  0.3422  0.1257  0.0276
  116OSM   H18S12150   0.970   7.182   8.252 -1.4319 -1.9760 -3.1024
  116OSM   H18T12151   1.081   7.120   8.369  2.0268  0.1375 -0.5125
  116OSM   H18U12152   1.000   7.004   8.247 -1.9216  1.2311 -0.4794
  116OSM    C1F12153   1.871   6.822   6.601  0.6282  0.2834  0.2803
  116OSM     OF12154   1.876   6.904   6.505 -1.0163  0.3348  0.2400
  116OSM    C2F12155   1.984   6.808   6.699 -0.1127 -0.1058  0.1372
  116OSM    H2F12156   2.079   6.784   6.646 -0.4427  1.7869 -1.3739
  116OSM    H2G12157   1.961   6.723   6.767  0.2744  1.3187  2.0914
  116OSM    C3F12158   2.012   6.940   6.772 -0.9021  0.3471  0.2008
  116OSM    H3F12159   1.918   6.983   6.810 -0.3031  1.2885  0.6402
  116OSM    H3G12160   2.052   7.011   6.696 -0.2786 -2.3274 -2.0368
  116OSM    C4F12161   2.122   6.922   6.881 -0.0649  0.3833  0.5030
  116OSM    H4F12162   2.215   6.927   6.819  0.0343 -0.6036  0.5692
  116OSM    H4G12163   2.112   6.823   6.931  0.5248  1.1780  2.2467
  116OSM    C5F12164   2.119   7.043   6.985  0.1106  0.4372  0.6099
  116OSM    H5F12165   2.014   7.075   7.003 -0.4688 -0.6220 -0.8097
  116OSM    H5G12166   2.167   7.129   6.932 -1.0176  1.7862  1.7384
  116OSM    C6F12167   2.191   7.012   7.114 -0.2307 -0.3577  0.7822
  116OSM    H6F12168   2.194   7.102   7.177 -0.4927  0.6579 -0.6280
  116OSM    H6G12169   2.295   6.977   7.099  0.3467  1.4664  0.4707
  116OSM    C7F12170   2.115   6.908   7.194  0.2586 -0.4131  0.4618
  116OSM    H7F12171   2.156   6.806   7.179 -1.4285 -0.8878 -1.0727
  116OSM    H7G12172   2.010   6.917   7.160  1.0127 -1.4216 -2.3148
  116OSM    C8F12173   2.124   6.934   7.345 -0.0785  0.6748  0.5813
  116OSM    H8F12174   2.073   7.032   7.362 -0.7907  0.4682 -0.2773
  116OSM    H8G12175   2.228   6.940   7.383  0.6096 -0.7018 -1.0329
  116OSM    C9F12176   2.051   6.830   7.427  0.1719  0.1034 -0.2258
  116OSM    H9F12177   1.996   6.758   7.364  0.7799 -0.5657 -0.0047
  116OSM   C10F12178   2.050   6.820   7.563 -0.0505  0.0955  0.2285
  116OSM   H10F12179   1.986   6.743   7.609 -1.4696  0.8987 -0.3656
  116OSM   C11F12180   2.118   6.913   7.662  0.3873  0.1635  0.1520
  116OSM   H11F12181   2.034   6.948   7.726  1.7643  1.7044  1.1413
  116OSM   H11G12182   2.155   7.006   7.615 -1.1558  0.6758 -0.0794
  116OSM   C12F12183   2.206   6.847   7.764 -0.5049 -0.2935 -0.2778
  116OSM   H12F12184   2.287   6.911   7.806 -0.0157  0.7079 -2.6884
  116OSM   H12G12185   2.249   6.760   7.711 -0.1147 -1.2744  1.6089
  116OSM   C13F12186   2.129   6.804   7.893  0.3750 -0.1879 -0.3900
  116OSM   H13F12187   2.020   6.787   7.886  0.5656 -1.8135  0.4425
  116OSM   H13G12188   2.142   6.895   7.957 -1.6991 -0.1321 -0.0312
  116OSM   C14F12189   2.174   6.676   7.968 -0.4900 -0.1448  0.5038
  116OSM   H14F12190   2.284   6.666   7.980 -0.4354 -0.0244  0.1150
  116OSM   H14G12191   2.139   6.593   7.904 -2.4354  0.5554  0.6440
  116OSM   C15F12192   2.111   6.664   8.108  0.6093  0.4441  0.4106
  116OSM   H15F12193   2.001   6.661   8.093  0.3709  2.4719  1.4697
  116OSM   H15G12194   2.128   6.759   8.164 -0.3202 -0.7716  2.8445
  116OSM   C16F12195   2.157   6.537   8.183  0.2064 -0.3325  0.3363
  116OSM   H16F12196   2.268   6.532   8.194  0.4807  0.2804 -1.8685
  116OSM   H16G12197   2.123   6.457   8.113  0.4459  2.3303 -2.9770
  116OSM   C17F12198   2.076   6.519   8.313  0.2053 -0.5537 -0.1378
  116OSM   H17F12199   2.049   6.412   8.308 -0.2655 -0.3123 -3.5888
  116OSM   H17G12200   1.980   6.574   8.303 -0.0574 -0.8484  0.6818
  116OSM   C18F12201   2.155   6.536   8.442  0.0548 -0.5056 -0.3151
  116OSM   H18F12202   2.189   6.641   8.453  2.6873 -1.6041  2.7233
  116OSM   H18G12203   2.258   6.493   8.439 -0.6207 -2.4119  2.1282
  116OSM   H18H12204   2.092   6.495   8.524  0.3539  0.6869  0.5233
  117OSM      N12205   0.181   1.981   6.183 -0.2756  0.6622  0.0865
  117OSM    C1512206   0.133   1.852   6.119 -0.1717 -0.8334 -0.3511
  117OSM   H15A12207   0.076   1.797   6.193  0.4401 -0.0445  0.7264
  117OSM   H15B12208   0.215   1.789   6.085 -0.2578 -0.2541 -1.6468
  117OSM   H15C12209   0.068   1.880   6.038 -0.9429  1.4751  1.0141
  117OSM    C1412210   0.209   2.072   6.067  0.0882 -0.8358  0.5870
  117OSM   H14A12211   0.289   2.031   6.007  0.6365  1.8255 -0.6121
  117OSM   H14B12212   0.246   2.165   6.110 -1.7817  0.1287  0.1696
  117OSM   H14C12213   0.115   2.089   6.016 -0.0866 -1.1403  0.8107
  117OSM    C1312214   0.069   2.040   6.270 -0.5843  0.1226  0.9458
  117OSM   H13A12215   0.099   2.139   6.301  0.2663  0.1583  0.0310
  117OSM   H13B12216   0.053   1.970   6.351 -0.0490  0.5104  1.3952
  117OSM   H13C12217  -0.021   2.055   6.213  0.2743 -0.2078 -0.5417
  117OSM    C1212218   0.313   1.969   6.263 -0.4721  0.4011 -0.4340
  117OSM   H12A12219   0.293   1.905   6.348  1.6175  0.3170  0.0174
  117OSM   H12B12220   0.333   2.066   6.306 -1.0040  0.9744 -1.4613
  117OSM    C1112221   0.440   1.915   6.186  0.4291 -0.2585 -0.3606
  117OSM   H11A12222   0.530   1.905   6.249  1.4168 -1.2466 -1.8888
  117OSM   H11B12223   0.464   1.988   6.105  0.2715  1.2432  0.9205
  117OSM      P12224   0.435   1.648   6.184 -0.2110  0.5207 -0.0658
  117OSM    O1312225   0.320   1.560   6.140 -0.3363  0.4697  0.5091
  117OSM    O1412226   0.573   1.601   6.161 -0.8075 -1.0182  0.6015
  117OSM    O1112227   0.416   1.680   6.336  0.4941 -0.3512 -0.4472
  117OSM    O1212228   0.411   1.793   6.124 -0.3693 -0.0416 -0.0849
  117OSM    C1S12229   0.452   1.570   6.424  0.0471  0.0533  0.3784
  117OSM    H1S12230   0.563   1.565   6.429  0.0861 -0.4443 -0.7984
  117OSM    H1T12231   0.409   1.472   6.393  0.0645 -0.5456  2.2170
  117OSM     NF12232   0.439   1.493   6.658  0.3397 -0.6583  0.3872
  117OSM    HNF12233   0.366   1.425   6.667 -1.2763  0.8168 -1.0634
  117OSM    C2S12234   0.392   1.593   6.565 -0.2394  0.7842  0.4067
  117OSM    H2S12235   0.429   1.693   6.596  2.9753 -0.0023 -0.5748
  117OSM    C3S12236   0.241   1.605   6.568 -0.3361 -0.5952 -0.1392
  117OSM    H3S12237   0.189   1.515   6.526 -3.4298  0.2742  1.6528
  117OSM     O312238   0.200   1.716   6.478  0.0982  0.3061 -0.2531
  117OSM    HO312239   0.264   1.712   6.407 -0.6758 -0.9040 -0.9165
  117OSM    C4S12240   0.199   1.613   6.710 -0.4467 -0.0225 -0.5187
  117OSM    H4S12241   0.185   1.519   6.765 -2.9514  2.1606  2.7273
  117OSM    C5S12242   0.174   1.730   6.777  0.3730 -0.0561 -0.1947
  117OSM    H5S12243   0.186   1.822   6.717 -1.2954 -1.0025 -2.0559
  117OSM    C6S12244   0.135   1.740   6.922 -0.1588  0.3077 -0.2287
  117OSM    H6S12245   0.029   1.773   6.926 -0.7092 -1.5155  0.6571
  117OSM    H6T12246   0.205   1.821   6.953 -0.8535  0.7103  0.2983
  117OSM    C7S12247   0.151   1.613   7.020  0.8035  0.1815 -0.0951
  117OSM    H7S12248   0.234   1.549   6.984 -0.2259 -0.2979 -1.6790
  117OSM    H7T12249   0.060   1.549   7.018  0.9527 -0.1664  2.5323
  117OSM    C8S12250   0.186   1.645   7.172  0.7902  0.4551  0.2451
  117OSM    H8S12251   0.290   1.685   7.166  1.0785 -0.2124  0.7468
  117OSM    H8T12252   0.187   1.549   7.228  0.3293 -0.2323 -0.9224
  117OSM    C9S12253   0.100   1.744   7.247 -0.1633  0.1028 -0.3987
  117OSM    H9S12254  -0.003   1.702   7.256 -0.1462  0.0473 -0.4636
  117OSM    H9T12255   0.108   1.834   7.183  1.1986 -0.9633 -1.7558
  117OSM   C10S12256   0.164   1.789   7.386 -0.7465  0.1996 -0.2728
  117OSM   H10S12257   0.114   1.880   7.426 -0.0990  1.7000 -2.7851
  117OSM   H10T12258   0.267   1.822   7.363 -0.0799 -1.1089  0.7949
  117OSM   C11S12259   0.173   1.674   7.490  0.2537  0.1194 -0.1000
  117OSM   H11S12260   0.225   1.589   7.442  1.6326 -0.4352  2.2849
  117OSM   H11T12261   0.069   1.641   7.507  0.8345 -0.8479  1.7472
  117OSM   C12S12262   0.241   1.712   7.623  0.1670  0.4293 -0.2472
  117OSM   H12S12263   0.206   1.809   7.665  0.9608  0.3888  0.5140
  117OSM   H12T12264   0.348   1.730   7.602 -0.1991  1.3753 -1.3856
  117OSM   C13S12265   0.245   1.616   7.744  0.0763 -0.3646 -0.2425
  117OSM   H13S12266   0.287   1.520   7.706 -0.0490 -0.0476 -1.1787
  117OSM   H13T12267   0.144   1.583   7.776 -0.4180  1.0307 -0.3490
  117OSM   C14S12268   0.325   1.669   7.864 -0.2707  0.4457  0.3611
  117OSM   H14S12269   0.259   1.752   7.899 -0.3574  0.8130 -0.6575
  117OSM   H14T12270   0.416   1.717   7.821 -0.2219 -0.0773 -0.1222
  117OSM   C15S12271   0.352   1.558   7.969 -0.0241 -0.5252 -0.4808
  117OSM   H15S12272   0.436   1.495   7.932  0.0883  0.3763 -1.7867
  117OSM   H15T12273   0.268   1.487   7.984  2.1776 -2.8705  1.4960
  117OSM   C16S12274   0.395   1.623   8.097  0.0120 -0.3061  0.6543
  117OSM   H16S12275   0.316   1.699   8.117  2.0115  2.1454 -0.5418
  117OSM   H16T12276   0.489   1.682   8.088  0.8721 -1.8750 -0.6423
  117OSM   C17S12277   0.419   1.522   8.215  0.0490 -0.0094  0.4964
  117OSM   H17S12278   0.482   1.565   8.295 -1.6067 -2.4975  3.2340
  117OSM   H17T12279   0.459   1.430   8.168 -2.4033  1.0074 -3.8331
  117OSM   C18S12280   0.288   1.482   8.280  0.6906 -0.5814 -0.6132
  117OSM   H18S12281   0.308   1.388   8.337  1.1269 -0.7863 -1.1017
  117OSM   H18T12282   0.209   1.456   8.205  1.1068 -0.2659 -1.1645
  117OSM   H18U12283   0.251   1.558   8.352  0.1369 -1.5695  0.1665
  117OSM    C1F12284   0.565   1.458   6.683  0.4454 -0.6345  0.7920
  117OSM     OF12285   0.661   1.524   6.647  0.5486 -0.9779 -0.2813
  117OSM    C2F12286   0.576   1.329   6.759 -0.4654  0.3627  0.7355
  117OSM    H2F12287   0.662   1.271   6.720 -1.2004 -1.1048  1.2639
  117OSM    H2G12288   0.486   1.272   6.728  0.9638 -1.6987  0.2328
  117OSM    C3F12289   0.568   1.339   6.912 -0.5264 -0.0637 -0.2183
  117OSM    H3F12290   0.577   1.232   6.941  0.1397 -0.1416 -0.6884
  117OSM    H3G12291   0.466   1.372   6.940 -0.5764  1.3134 -1.9197
  117OSM    C4F12292   0.673   1.425   6.988 -0.1501  0.0175 -0.0878
  117OSM    H4F12293   0.682   1.528   6.945 -2.1354  0.8415  1.3882
  117OSM    H4G12294   0.778   1.388   6.987 -0.3158 -0.4642  0.6587
  117OSM    C5F12295   0.640   1.450   7.138 -0.0875 -0.4646 -0.0534
  117OSM    H5F12296   0.538   1.493   7.127 -0.2789 -0.2893  2.2517
  117OSM    H5G12297   0.707   1.533   7.166  0.6337 -0.5364 -1.5007
  117OSM    C6F12298   0.651   1.324   7.226 -0.8494 -0.0567 -0.7557
  117OSM    H6F12299   0.759   1.305   7.237 -1.1940 -0.4360  2.4415
  117OSM    H6G12300   0.599   1.232   7.194 -1.6873  0.5200 -1.0765
  117OSM    C7F12301   0.599   1.335   7.375 -0.2067 -0.3577  0.2172
  117OSM    H7F12302   0.635   1.259   7.447  3.2355  0.9313 -0.0390
  117OSM    H7G12303   0.489   1.316   7.367  0.0506 -1.8128  0.0741
  117OSM    C8F12304   0.609   1.480   7.431 -0.0568 -0.5784  0.5701
  117OSM    H8F12305   0.538   1.539   7.369  1.8074  2.5297  1.2886
  117OSM    H8G12306   0.710   1.514   7.399 -0.1379 -1.6695 -0.9285
  117OSM    C9F12307   0.582   1.489   7.577 -0.0507  0.1008 -0.2714
  117OSM    H9F12308   0.477   1.499   7.607  0.7015  1.2638  2.0793
  117OSM   C10F12309   0.665   1.520   7.675 -0.8028  0.5574  0.3647
  117OSM   H10F12310   0.638   1.515   7.781  4.3114  1.0578  1.8288
  117OSM   C11F12311   0.813   1.546   7.652  0.2144 -0.1950  0.2285
  117OSM   H11F12312   0.830   1.615   7.566  0.0603 -3.7806 -2.8044
  117OSM   H11G12313   0.867   1.450   7.640  1.3118  0.3309  0.8940
  117OSM   C12F12314   0.874   1.610   7.778  0.3555 -0.3433  0.1910
  117OSM   H12F12315   0.984   1.605   7.763  0.5531  2.6141  0.3384
  117OSM   H12G12316   0.859   1.550   7.871  0.5698  1.7763  1.6299
  117OSM   C13F12317   0.839   1.753   7.788 -0.2049 -0.5975 -0.0960
  117OSM   H13F12318   0.728   1.757   7.795 -0.2438 -2.3881  0.3209
  117OSM   H13G12319   0.873   1.820   7.707 -1.4185  1.8452  1.3292
  117OSM   C14F12320   0.877   1.817   7.923 -0.2607  0.1168  0.1911
  117OSM   H14F12321   0.849   1.925   7.922  0.8108  0.3984  0.5725
  117OSM   H14G12322   0.987   1.826   7.935 -0.5215  1.0760  2.0234
  117OSM   C15F12323   0.813   1.746   8.047 -0.1335 -0.2003 -0.0426
  117OSM   H15F12324   0.855   1.644   8.058  0.1639  0.0712  1.3654
  117OSM   H15G12325   0.703   1.736   8.036 -0.2501 -1.9902  2.4673
  117OSM   C16F12326   0.845   1.817   8.180  0.3605 -0.1031  0.4535
  117OSM   H16F12327   0.836   1.924   8.152 -1.3676 -0.3925 -0.1865
  117OSM   H16G12328   0.946   1.796   8.220 -0.0674 -0.6103  1.2757
  117OSM   C17F12329   0.742   1.784   8.288  0.2649  0.3621 -0.2111
  117OSM   H17F12330   0.646   1.826   8.253 -1.1850 -0.7135  2.3467
  117OSM   H17G12331   0.746   1.678   8.322  0.4411  0.3744 -0.1880
  117OSM   C18F12332   0.770   1.862   8.412 -0.3327  0.1603 -0.2095
  117OSM   H18F12333   0.796   1.969   8.394 -2.9725  1.0999  1.3145
  117OSM   H18G12334   0.841   1.818   8.485  0.1155  0.3558 -0.5257
  117OSM   H18H12335   0.679   1.875   8.474  0.4228 -0.4267  1.0403
  118OSM      N12336   3.254   4.333   6.031  0.7156 -0.4350  0.4333
  118OSM    C1512337   3.185   4.451   5.978 -0.0782  0.4386 -0.4799
  118OSM   H15A12338   3.213   4.541   6.032 -0.9583 -0.1650  1.0133
  118OSM   H15B12339   3.077   4.448   5.973 -0.2175  0.4982  1.7963
  118OSM   H15C12340   3.227   4.450   5.879  0.3356  0.1861 -0.3051
  118OSM    C1412341   3.227   4.219   5.940 -0.4753  0.2116  0.0576
  118OSM   H14A12342   3.279   4.223   5.846 -1.0041 -3.0173 -0.4254
  118OSM   H14B12343   3.122   4.218   5.913  0.0029  1.2088 -1.9267
  118OSM   H14C12344   3.258   4.133   5.997  1.0466 -0.4659 -1.7553
  118OSM    C1312345   3.398   4.351   6.040  0.7432  0.7390  0.2075
  118OSM   H13A12346   3.440   4.371   5.942  1.6352 -0.1870  0.3975
  118OSM   H13B12347   3.441   4.260   6.078 -0.6400 -0.0152 -0.0278
  118OSM   H13C12348   3.428   4.436   6.099 -0.3116  0.4533  1.1516
  118OSM    C1212349   3.197   4.313   6.176  0.2583  0.1265  0.2145
  118OSM   H12A12350   3.092   4.288   6.171  0.5056 -0.9426  0.2219
  118OSM   H12B12351   3.201   4.409   6.226 -0.8590  0.3379 -0.0928
  118OSM    C1112352   3.254   4.201   6.257  0.0003  0.9262  0.0400
  118OSM   H11A12353   3.214   4.204   6.361 -0.0467 -0.9746  0.0860
  118OSM   H11B12354   3.364   4.218   6.267  0.2007 -0.8276  1.0084
  118OSM      P12355   3.110   3.970   6.233 -0.0172 -0.3065  0.1463
  118OSM    O1312356   2.984   4.034   6.188  0.2170  0.0550  0.5418
  118OSM    O1412357   3.139   3.836   6.179  0.4660 -0.2470 -0.4461
  118OSM    O1112358   3.112   3.960   6.384 -0.3912  0.2274 -0.3141
  118OSM    O1212359   3.230   4.072   6.188  0.0965 -0.0509 -0.1684
  118OSM    C1S12360   3.224   3.893   6.448  0.0285 -0.0600  0.5183
  118OSM    H1S12361   3.322   3.944   6.432 -0.9338  1.8130  0.4956
  118OSM    H1T12362   3.234   3.788   6.411 -0.0490  0.2293 -0.3372
  118OSM     NF12363   3.313   3.792   6.645 -0.0016 -0.5522 -0.2848
  118OSM    HNF12364   3.296   3.696   6.667 -0.1322 -0.1946  1.2641
  118OSM    C2S12365   3.209   3.877   6.599  0.1854  0.1774 -0.6206
  118OSM    H2S12366   3.217   3.975   6.651  1.1054 -0.4715  0.4921
  118OSM    C3S12367   3.064   3.816   6.630  0.0606 -0.3541  0.0587
  118OSM    H3S12368   3.054   3.721   6.573  1.8400 -0.0669 -0.7499
  118OSM     O312369   2.954   3.888   6.583  0.2122 -0.9466  0.3214
  118OSM    HO312370   2.999   3.937   6.514  0.1201 -2.1822 -0.6403
  118OSM    C4S12371   3.040   3.793   6.773 -0.9913  0.4972  0.0061
  118OSM    H4S12372   3.042   3.889   6.828  0.4986 -0.2462  1.2808
  118OSM    C5S12373   3.012   3.685   6.842  0.2115  0.3191 -0.0324
  118OSM    H5S12374   3.000   3.589   6.791  1.0650 -0.3125  0.9532
  118OSM    C6S12375   2.994   3.668   6.986  0.0122  0.1955  0.4419
  118OSM    H6S12376   2.950   3.566   6.991 -0.6612  0.4892  0.5598
  118OSM    H6T12377   2.916   3.730   7.034 -0.9466 -2.2778  2.1831
  118OSM    C7S12378   3.124   3.689   7.064  0.1143 -0.5427  0.0289
  118OSM    H7S12379   3.163   3.791   7.040 -0.3176 -0.4648 -0.3570
  118OSM    H7T12380   3.201   3.618   7.028  1.9807  0.8667  1.1401
  118OSM    C8S12381   3.102   3.671   7.217 -0.0998  0.0565  1.0515
  118OSM    H8S12382   3.105   3.561   7.228  0.2150  0.0642  1.0594
  118OSM    H8T12383   3.000   3.711   7.237 -0.8549 -0.1391 -2.0916
  118OSM    C9S12384   3.194   3.736   7.314  0.1709 -0.1034  0.1790
  118OSM    H9S12385   3.169   3.842   7.296  1.5305  0.1314 -0.3254
  118OSM    H9T12386   3.301   3.719   7.291  0.0540 -0.6508  0.0402
  118OSM   C10S12387   3.166   3.710   7.463 -0.1677  0.0237 -0.9146
  118OSM   H10S12388   3.186   3.602   7.481 -1.0076 -0.1470 -0.9966
  118OSM   H10T12389   3.058   3.727   7.484 -0.0233 -0.0742 -0.0876
  118OSM   C11S12390   3.248   3.801   7.555  0.1438 -0.1815  0.0235
  118OSM   H11S12391   3.181   3.879   7.597  2.2987  0.1728  2.9866
  118OSM   H11T12392   3.333   3.850   7.502 -0.4965  0.5681 -0.3147
  118OSM   C12S12393   3.306   3.718   7.673 -0.1121 -0.6660  0.1449
  118OSM   H12S12394   3.373   3.646   7.621  0.1158 -0.0599 -0.4030
  118OSM   H12T12395   3.231   3.655   7.728 -1.3121 -0.2541 -0.9934
  118OSM   C13S12396   3.385   3.812   7.764 -0.1138 -1.0827 -0.7339
  118OSM   H13S12397   3.437   3.891   7.705  2.1397 -1.5881  0.5153
  118OSM   H13T12398   3.467   3.751   7.808 -0.7014 -1.3089  0.0713
  118OSM   C14S12399   3.302   3.878   7.881  0.0601  0.3014 -1.0361
  118OSM   H14S12400   3.270   3.790   7.941  1.8481 -0.1942 -0.7627
  118OSM   H14T12401   3.212   3.935   7.849 -0.5675  0.1832  0.4697
  118OSM   C15S12402   3.387   3.967   7.970 -0.9320 -0.0050 -0.5976
  118OSM   H15S12403   3.422   4.051   7.906  0.8454 -0.6790 -0.5317
  118OSM   H15T12404   3.478   3.908   7.992 -0.8237  0.4205  0.1167
  118OSM   C16S12405   3.320   4.024   8.097  0.1432 -0.0787 -0.1564
  118OSM   H16S12406   3.227   4.081   8.078  0.5138  0.6232  0.1210
  118OSM   H16T12407   3.395   4.101   8.127 -0.4891  1.0223 -1.4084
  118OSM   C17S12408   3.303   3.928   8.214  0.8319 -0.2031 -0.8574
  118OSM   H17S12409   3.389   3.860   8.198  0.1006 -1.4157  0.3127
  118OSM   H17T12410   3.205   3.876   8.207 -0.7431  2.3358  1.3210
  118OSM   C18S12411   3.317   3.991   8.355  0.6370 -0.3940  0.2105
  118OSM   H18S12412   3.297   3.931   8.447  0.2502  2.4382  2.0219
  118OSM   H18T12413   3.251   4.080   8.361  1.8405  0.4564  1.1225
  118OSM   H18U12414   3.417   4.038   8.365  0.3389 -0.0007  1.4262
  118OSM    C1F12415   3.433   3.838   6.678 -0.2633 -0.4169 -0.0257
  118OSM     OF12416   3.449   3.959   6.702  0.4071  0.5396  0.1421
  118OSM    C2F12417   3.536   3.738   6.684 -0.1030 -0.0547 -0.0073
  118OSM    H2F12418   3.494   3.651   6.630 -2.5906  0.3529  1.2398
  118OSM    H2G12419   3.552   3.717   6.792  1.3312  1.0138  0.0145
  118OSM    C3F12420   3.666   3.784   6.611 -0.0070  0.0739  0.8317
  118OSM    H3F12421   3.726   3.860   6.667 -0.4701 -0.3930  1.9915
  118OSM    H3G12422   3.646   3.839   6.517  2.4503  0.0924  0.2865
  118OSM    C4F12423   3.753   3.673   6.547 -0.1455 -0.6337 -0.1524
  118OSM    H4F12424   3.853   3.717   6.523  0.5183 -1.7066  0.6308
  118OSM    H4G12425   3.699   3.632   6.459  2.4239 -0.2157 -2.0032
  118OSM    C5F12426   3.776   3.558   6.638 -1.1138 -0.0083 -0.1295
  118OSM    H5F12427   3.676   3.515   6.660 -3.0867  2.7995 -3.1099
  118OSM    H5G12428   3.819   3.582   6.738 -0.5500  0.4013 -0.4720
  118OSM    C6F12429   3.868   3.455   6.572 -0.2437  0.8425  0.0613
  118OSM    H6F12430   3.962   3.506   6.545  0.1977  1.0491  1.8962
  118OSM    H6G12431   3.826   3.413   6.478  1.8308 -1.6788  0.1914
  118OSM    C7F12432   3.905   3.338   6.669  0.3065 -0.2522  0.8745
  118OSM    H7F12433   3.956   3.384   6.756  1.1568 -1.5216  1.0616
  118OSM    H7G12434   3.985   3.279   6.619 -0.9188 -2.3857  1.3703
  118OSM    C8F12435   3.788   3.253   6.711  0.2649 -0.8402 -0.0073
  118OSM    H8F12436   3.741   3.208   6.621  0.3936 -0.4711 -0.2594
  118OSM    H8G12437   3.708   3.321   6.747  0.0795 -1.1921  0.2428
  118OSM    C9F12438   3.825   3.148   6.816  0.4129 -0.2567  0.4434
  118OSM    H9F12439   3.769   3.056   6.795 -0.0583  0.0504  0.3505
  118OSM   C10F12440   3.899   3.154   6.927  0.0115  0.4312  0.3683
  118OSM   H10F12441   3.917   3.060   6.981  1.7264  0.3210 -0.3600
  118OSM   C11F12442   3.968   3.273   6.975  0.3091  0.6492  0.5354
  118OSM   H11F12443   3.906   3.360   6.943  1.0576  1.4350  1.2110
  118OSM   H11G12444   4.069   3.279   6.928 -0.7949  0.2385 -1.9890
  118OSM   C12F12445   3.983   3.264   7.130 -0.5841 -0.3201 -0.3298
  118OSM   H12F12446   4.010   3.160   7.158 -1.2702 -0.7651 -1.2881
  118OSM   H12G12447   3.893   3.306   7.181 -0.5713 -2.1075  1.2083
  118OSM   C13F12448   4.105   3.351   7.176 -0.0335 -0.5756  0.2464
  118OSM   H13F12449   4.099   3.456   7.141 -1.0133  0.0899  2.3466
  118OSM   H13G12450   4.191   3.302   7.126 -1.3478 -1.6909 -0.9652
  118OSM   C14F12451   4.116   3.350   7.330 -0.2861 -0.3388  0.4252
  118OSM   H14F12452   4.146   3.251   7.369 -0.3682 -0.2388  0.7425
  118OSM   H14G12453   4.012   3.374   7.359 -0.8402  0.3271 -1.9887
  118OSM   C15F12454   4.206   3.467   7.380 -0.0179  0.3396  1.4261
  118OSM   H15F12455   4.145   3.557   7.359 -1.1990 -0.4424  1.4459
  118OSM   H15G12456   4.298   3.477   7.318 -1.3751 -0.4000 -0.7705
  118OSM   C16F12457   4.256   3.464   7.517 -0.1954 -0.9938  0.0144
  118OSM   H16F12458   4.321   3.550   7.546 -0.5520 -0.9136  0.5989
  118OSM   H16G12459   4.319   3.373   7.525 -0.3303 -1.0253  0.8247
  118OSM   C17F12460   4.137   3.463   7.613  0.2019 -0.8288 -0.6960
  118OSM   H17F12461   4.066   3.377   7.606 -1.1080  0.1787 -0.0809
  118OSM   H17G12462   4.072   3.552   7.601  1.3322  0.0295 -0.5767
  118OSM   C18F12463   4.184   3.453   7.755 -0.8874  0.5055  0.1126
  118OSM   H18F12464   4.291   3.482   7.765  0.3121 -2.0936 -4.0421
  118OSM   H18G12465   4.171   3.346   7.784  1.6503 -1.0169 -3.9153
  118OSM   H18H12466   4.123   3.518   7.821 -0.3899  0.5091  0.5662
  119OSM      N12467   5.283   2.416   6.014  0.2387  0.1343  0.5585
  119OSM    C1512468   5.276   2.397   6.163  0.1187 -1.0101  0.2064
  119OSM   H15A12469   5.222   2.470   6.221 -2.1598 -2.7431  0.3673
  119OSM   H15B12470   5.374   2.389   6.208  0.1920 -1.4078 -0.0247
  119OSM   H15C12471   5.243   2.296   6.184 -0.0204 -0.5923  2.1389
  119OSM    C1412472   5.341   2.298   5.939 -0.0989  0.4183 -0.2980
  119OSM   H14A12473   5.391   2.329   5.849  0.3573 -0.5821 -0.3942
  119OSM   H14B12474   5.276   2.214   5.921 -0.3573  0.4153  0.6219
  119OSM   H14C12475   5.420   2.261   6.004 -0.0383  0.4230 -0.3691
  119OSM    C1312476   5.139   2.428   5.978  0.0440 -0.3920  0.1037
  119OSM   H13A12477   5.126   2.463   5.876  0.7250 -1.2366 -0.2759
  119OSM   H13B12478   5.085   2.494   6.044  3.7157 -0.6539  3.5243
  119OSM   H13C12479   5.075   2.342   5.990 -1.5112  0.6730 -0.3833
  119OSM    C1212480   5.356   2.546   5.998 -0.5701 -1.3327 -0.3569
  119OSM   H12A12481   5.453   2.536   6.045 -0.8648 -2.7804 -0.0296
  119OSM   H12B12482   5.296   2.622   6.046  1.4554  0.9225 -1.2898
  119OSM    C1112483   5.367   2.600   5.855  0.0130 -0.4381 -0.0118
  119OSM   H11A12484   5.401   2.516   5.789 -2.0063 -0.7442 -0.6971
  119OSM   H11B12485   5.452   2.672   5.851  1.4752 -2.0984  0.5040
  119OSM      P12486   5.210   2.803   5.835 -0.4241 -0.0291 -0.0594
  119OSM    O1312487   5.302   2.896   5.765 -0.4301 -0.2435  0.3060
  119OSM    O1412488   5.069   2.813   5.799  0.4355 -0.4542 -0.4496
  119OSM    O1112489   5.222   2.823   5.985  0.3454 -0.5542 -0.1926
  119OSM    O1212490   5.244   2.654   5.804  0.8523  0.3227 -0.1077
  119OSM    C1S12491   5.116   2.829   6.080  0.5343  0.8431 -0.2270
  119OSM    H1S12492   5.093   2.724   6.110 -1.5324  0.7582 -1.9478
  119OSM    H1T12493   5.020   2.875   6.047  0.3191 -0.0318 -0.8435
  119OSM     NF12494   5.066   2.903   6.307 -0.2483 -0.2217  0.1681
  119OSM    HNF12495   4.991   2.968   6.317  0.4785  0.4218  1.6176
  119OSM    C2S12496   5.166   2.912   6.197 -0.0844  0.0274  0.1095
  119OSM    H2S12497   5.265   2.868   6.223 -1.7058 -3.9601 -0.2166
  119OSM    C3S12498   5.189   3.061   6.157  0.1316 -0.4728  0.3173
  119OSM    H3S12499   5.091   3.096   6.117 -0.2854 -0.0756  1.6306
  119OSM     O312500   5.295   3.089   6.065  0.3134  0.3128  0.2471
  119OSM    HO312501   5.341   3.005   6.059 -1.4787 -0.6800  0.0681
  119OSM    C4S12502   5.196   3.152   6.280  0.4997  0.1688  0.3560
  119OSM    H4S12503   5.099   3.194   6.311  1.0536  1.3189  0.5709
  119OSM    C5S12504   5.302   3.184   6.350  0.5137  0.0370  0.0836
  119OSM    H5S12505   5.401   3.149   6.317  1.3315  0.1229  2.3892
  119OSM    C6S12506   5.304   3.282   6.472  0.0989 -0.2801  0.3928
  119OSM    H6S12507   5.215   3.348   6.477 -1.4204 -2.0022 -2.4627
  119OSM    H6T12508   5.394   3.347   6.470 -0.0380 -0.1167 -1.6412
  119OSM    C7S12509   5.293   3.201   6.606  0.0708 -0.2547 -0.4572
  119OSM    H7S12510   5.369   3.125   6.635  0.1822 -0.9429 -2.4562
  119OSM    H7T12511   5.200   3.140   6.593 -1.3868  1.8670 -0.2420
  119OSM    C8S12512   5.281   3.299   6.723 -0.3811 -0.7764 -1.0758
  119OSM    H8S12513   5.208   3.377   6.693  0.3915 -0.1269 -1.2712
  119OSM    H8T12514   5.377   3.354   6.731  0.1336 -0.9445 -5.0200
  119OSM    C9S12515   5.237   3.222   6.851  0.2492  0.4804  0.4740
  119OSM    H9S12516   5.324   3.165   6.891  2.3466  0.5693 -3.7051
  119OSM    H9T12517   5.143   3.164   6.839  0.4066  0.3294 -0.0546
  119OSM   C10S12518   5.200   3.325   6.961  0.1874  0.0520  0.3900
  119OSM   H10S12519   5.097   3.361   6.937 -0.0134  0.4522  1.8270
  119OSM   H10T12520   5.269   3.411   6.946  1.1596 -0.4843  1.7354
  119OSM   C11S12521   5.199   3.285   7.111  0.3855 -0.7375  0.4889
  119OSM   H11S12522   5.307   3.261   7.127 -0.0484 -0.1022  4.9547
  119OSM   H11T12523   5.131   3.198   7.127 -0.5983 -0.4144 -1.7787
  119OSM   C12S12524   5.171   3.400   7.204 -0.3703 -0.2165 -0.1679
  119OSM   H12S12525   5.075   3.451   7.179 -1.1461 -0.6753  1.7706
  119OSM   H12T12526   5.252   3.473   7.182 -2.1220  1.2701 -1.8803
  119OSM   C13S12527   5.180   3.358   7.351  0.2776 -0.7637 -0.5325
  119OSM   H13S12528   5.275   3.310   7.383 -1.4599 -3.2141  1.1094
  119OSM   H13T12529   5.102   3.281   7.369 -0.3303 -0.4773 -1.8879
  119OSM   C14S12530   5.156   3.468   7.459  0.2315  0.3598  0.4020
  119OSM   H14S12531   5.061   3.520   7.435  0.1312  0.3118  0.6903
  119OSM   H14T12532   5.235   3.545   7.457 -0.2085  0.8837  2.4359
  119OSM   C15S12533   5.144   3.409   7.599 -0.3894  0.1093  0.0746
  119OSM   H15S12534   5.240   3.363   7.629  0.7768  2.3630 -0.1383
  119OSM   H15T12535   5.076   3.321   7.606 -0.8301  0.2744 -1.8232
  119OSM   C16S12536   5.097   3.512   7.708  0.0736  0.0155 -0.4501
  119OSM   H16S12537   4.996   3.556   7.688 -1.1952 -2.8085 -0.4177
  119OSM   H16T12538   5.164   3.601   7.701 -1.6052  1.3178 -0.3646
  119OSM   C17S12539   5.094   3.457   7.848  0.4485 -0.4779  0.5814
  119OSM   H17S12540   5.175   3.381   7.846  0.6797 -0.2664  1.4682
  119OSM   H17T12541   5.004   3.399   7.876  0.9197 -0.8957  1.2601
  119OSM   C18S12542   5.093   3.561   7.963 -0.0681 -0.0791  0.6710
  119OSM   H18S12543   4.994   3.564   8.014 -1.1564 -0.1079 -1.3776
  119OSM   H18T12544   5.112   3.660   7.915 -0.3967  0.6330  1.9820
  119OSM   H18U12545   5.168   3.537   8.041 -0.2950 -2.1851  0.2570
  119OSM    C1F12546   5.081   2.807   6.397 -0.5423 -0.7711  0.1711
  119OSM     OF12547   5.161   2.714   6.363 -0.3393  0.1445 -0.1160
  119OSM    C2F12548   5.007   2.813   6.520 -0.7822 -0.2397  0.5521
  119OSM    H2F12549   4.972   2.710   6.544 -0.2793 -1.1758 -2.4401
  119OSM    H2G12550   4.911   2.869   6.516 -1.4198 -1.3448  0.1227
  119OSM    C3F12551   5.101   2.864   6.632 -0.1233  0.3747 -0.2073
  119OSM    H3F12552   5.155   2.958   6.606  0.2618 -0.2147 -1.5611
  119OSM    H3G12553   5.177   2.786   6.652  0.0921  0.4907 -0.5606
  119OSM    C4F12554   5.028   2.909   6.766 -0.1403  1.0014 -0.2730
  119OSM    H4F12555   4.947   2.979   6.737 -1.2864  0.2770  1.0970
  119OSM    H4G12556   5.102   2.965   6.827 -1.6042  1.3167  1.2797
  119OSM    C5F12557   4.975   2.787   6.837 -0.3811  0.0694 -0.6313
  119OSM    H5F12558   5.056   2.716   6.862  0.0432  0.5964 -0.5124
  119OSM    H5G12559   4.893   2.734   6.783  0.3788 -2.2126  0.3755
  119OSM    C6F12560   4.931   2.835   6.978  0.6153  0.1175  0.4920
  119OSM    H6F12561   4.886   2.937   6.971  1.4011  0.2995 -3.1315
  119OSM    H6G12562   5.018   2.835   7.046 -0.2968 -1.6568  1.6880
  119OSM    C7F12563   4.839   2.737   7.047 -0.1721  0.0586  0.7487
  119OSM    H7F12564   4.884   2.639   7.072 -2.1118 -1.6939 -2.4166
  119OSM    H7G12565   4.762   2.713   6.972 -0.9322 -2.7436  2.3814
  119OSM    C8F12566   4.770   2.801   7.162 -0.2943 -0.3904  0.5431
  119OSM    H8F12567   4.698   2.876   7.125  0.8842  0.9245  0.8784
  119OSM    H8G12568   4.844   2.863   7.217 -1.9671  1.5856  0.6094
  119OSM    C9F12569   4.714   2.710   7.272  0.9119  0.4073 -0.1741
  119OSM    H9F12570   4.606   2.698   7.253  1.0928  1.2069 -1.7858
  119OSM   C10F12571   4.772   2.654   7.379 -0.6323 -0.9070 -0.3583
  119OSM   H10F12572   4.721   2.591   7.453 -0.6283  1.6432  1.8963
  119OSM   C11F12573   4.912   2.660   7.412 -1.1711 -0.8098  0.6207
  119OSM   H11F12574   4.970   2.695   7.324 -1.7853  1.1473  0.9795
  119OSM   H11G12575   4.956   2.561   7.439 -1.4106 -0.8874  0.7219
  119OSM   C12F12576   4.942   2.750   7.536  0.0280  0.2064 -0.7810
  119OSM   H12F12577   4.926   2.860   7.528  0.3332  0.1327 -2.6762
  119OSM   H12G12578   5.051   2.741   7.557 -0.4540 -0.8791  1.4854
  119OSM   C13F12579   4.881   2.694   7.667 -0.2897  0.1480 -0.3792
  119OSM   H13F12580   4.956   2.616   7.693  0.0748  0.9723  1.1079
  119OSM   H13G12581   4.778   2.658   7.648 -0.1292  0.2965 -1.6166
  119OSM   C14F12582   4.889   2.794   7.788 -0.7860 -0.1725  0.1294
  119OSM   H14F12583   4.830   2.879   7.747  0.5586  0.5130 -0.4099
  119OSM   H14G12584   4.991   2.831   7.813 -1.5370  0.4005  2.4545
  119OSM   C15F12585   4.821   2.731   7.915 -0.3062  0.2790  0.2437
  119OSM   H15F12586   4.891   2.660   7.964 -0.3015 -0.8684 -1.4080
  119OSM   H15G12587   4.738   2.668   7.877 -1.0769  1.0644  0.6202
  119OSM   C16F12588   4.776   2.832   8.016  0.2625  0.2245 -0.8421
  119OSM   H16F12589   4.681   2.870   7.972  0.5789  1.0298 -0.8387
  119OSM   H16G12590   4.854   2.910   8.030 -0.0345  0.3877 -0.0781
  119OSM   C17F12591   4.755   2.769   8.162  0.3488 -0.4031  0.3573
  119OSM   H17F12592   4.705   2.671   8.152  1.7810 -0.9607 -1.4487
  119OSM   H17G12593   4.683   2.833   8.218  0.3898 -0.5863  0.6211
  119OSM   C18F12594   4.882   2.760   8.244  0.9866 -0.6599  0.0107
  119OSM   H18F12595   4.865   2.719   8.346  2.2859  0.0555  0.5158
  119OSM   H18G12596   4.912   2.866   8.253 -0.7573  0.0303 -1.9590
  119OSM   H18H12597   4.961   2.708   8.185  0.5962  0.0534 -1.1543
  120OSM      N12598   1.730   0.993   6.707 -0.4202 -0.1626 -0.3785
  120OSM    C1512599   1.699   0.869   6.780 -0.2337 -0.1484 -0.0545
  120OSM   H15A12600   1.796   0.836   6.816  0.4804  1.9086 -0.0166
  120OSM   H15B12601   1.634   0.813   6.715  0.8365  2.0668 -3.1108
  120OSM   H15C12602   1.628   0.881   6.861  2.0548  1.7207  1.7579
  120OSM    C1412603   1.598   1.055   6.671  0.4765  0.0604  0.0810
  120OSM   H14A12604   1.611   1.135   6.600  1.5953  0.7284  1.0177
  120OSM   H14B12605   1.541   1.101   6.750 -1.8352 -0.5512 -1.1908
  120OSM   H14C12606   1.531   0.981   6.629 -1.3988  3.2066 -2.6918
  120OSM    C1312607   1.795   1.082   6.812  0.7669 -0.4095 -0.0187
  120OSM   H13A12608   1.884   1.025   6.836  0.0755 -1.3450  0.3232
  120OSM   H13B12609   1.734   1.080   6.901  0.3587 -0.5949 -0.3004
  120OSM   H13C12610   1.819   1.180   6.773 -1.5592 -0.6791 -2.2689
  120OSM    C1212611   1.825   0.979   6.596  0.3993  0.0023  0.3347
  120OSM   H12A12612   1.916   0.931   6.628  0.3743  0.5169  1.1848
  120OSM   H12B12613   1.860   1.073   6.555  3.0913 -1.8882 -1.8955
  120OSM    C1112614   1.769   0.897   6.473 -0.7357 -0.4564  1.3690
  120OSM   H11A12615   1.691   0.959   6.424 -0.3775 -0.3881  0.8774
  120OSM   H11B12616   1.732   0.800   6.514 -2.9976 -0.8728 -1.4943
  120OSM      P12617   1.914   0.757   6.298  0.1860 -0.1560 -0.2861
  120OSM    O1312618   1.789   0.692   6.253  0.1623 -0.7912  0.0992
  120OSM    O1412619   2.016   0.783   6.196  0.6458  0.0178  0.2304
  120OSM    O1112620   1.969   0.663   6.424 -0.3610  0.2985 -0.1944
  120OSM    O1212621   1.880   0.895   6.372 -0.0336  0.0957 -0.0992
  120OSM    C1S12622   2.069   0.698   6.519 -0.0094  0.2651  0.4567
  120OSM    H1S12623   2.084   0.808   6.517 -0.9834  0.3874 -0.6222
  120OSM    H1T12624   2.163   0.644   6.496  0.9421  0.2026  4.0664
  120OSM     NF12625   2.116   0.721   6.758  0.1325 -0.1491  0.2143
  120OSM    HNF12626   2.178   0.659   6.806  1.9031  0.5144 -1.1369
  120OSM    C2S12627   2.019   0.664   6.666 -0.1694 -0.2482  0.3164
  120OSM    H2S12628   1.926   0.724   6.672  2.0868  3.2946  1.5143
  120OSM    C3S12629   1.985   0.514   6.689 -0.3245 -0.0440  0.3693
  120OSM    H3S12630   2.076   0.453   6.704 -2.3689 -3.1241  0.6118
  120OSM     O312631   1.925   0.445   6.577  0.0356  0.4932 -0.1356
  120OSM    HO312632   1.940   0.507   6.504  1.3175  0.2379 -0.1068
  120OSM    C4S12633   1.911   0.510   6.818  0.1287  0.6619  0.1928
  120OSM    H4S12634   1.972   0.481   6.904  0.4125  0.2367 -0.1496
  120OSM    C5S12635   1.776   0.513   6.834 -0.8998  0.3121  0.6240
  120OSM    H5S12636   1.706   0.533   6.751  1.3089  0.4432 -1.2393
  120OSM    C6S12637   1.696   0.490   6.960 -0.3936 -0.4169  0.6097
  120OSM    H6S12638   1.611   0.422   6.935 -0.6259 -0.5316  1.6729
  120OSM    H6T12639   1.652   0.587   6.992 -0.2802 -0.6444  1.4749
  120OSM    C7S12640   1.764   0.445   7.094 -0.0359 -0.1890  0.6784
  120OSM    H7S12641   1.832   0.523   7.132 -1.8767  1.1533  1.3085
  120OSM    H7T12642   1.832   0.359   7.079  0.9860  0.8616 -0.9448
  120OSM    C8S12643   1.665   0.424   7.207  0.4564  0.6459  0.2467
  120OSM    H8S12644   1.596   0.340   7.186 -1.9168  1.8720  2.8589
  120OSM    H8T12645   1.601   0.513   7.220 -1.4362 -0.4181 -1.4124
  120OSM    C9S12646   1.736   0.377   7.337 -0.1661 -0.4283 -0.0656
  120OSM    H9S12647   1.798   0.462   7.374  0.1728 -0.1537 -1.2315
  120OSM    H9T12648   1.804   0.293   7.311  2.0655  1.2538  0.1847
  120OSM   C10S12649   1.629   0.333   7.441 -0.3764  0.5667  0.1940
  120OSM   H10S12650   1.592   0.232   7.415  1.7149 -1.2079  3.6867
  120OSM   H10T12651   1.541   0.401   7.447 -1.3873 -0.7709  0.8700
  120OSM   C11S12652   1.700   0.342   7.582  0.2942  0.9316 -0.1361
  120OSM   H11S12653   1.722   0.448   7.608  0.0635  1.7613 -3.1520
  120OSM   H11T12654   1.788   0.273   7.584 -0.6755 -0.3261 -0.4143
  120OSM   C12S12655   1.602   0.290   7.696 -0.3637 -0.7243  0.6721
  120OSM   H12S12656   1.566   0.193   7.656  1.7622 -1.4127  0.3551
  120OSM   H12T12657   1.514   0.357   7.696  1.3620  1.6193  0.5425
  120OSM   C13S12658   1.665   0.268   7.826 -0.7870  0.1117  0.0601
  120OSM   H13S12659   1.719   0.360   7.857 -2.0318  1.7608 -2.4421
  120OSM   H13T12660   1.750   0.200   7.808  0.0965  1.3153 -0.3656
  120OSM   C14S12661   1.565   0.206   7.925  0.3803  0.1297  0.0936
  120OSM   H14S12662   1.521   0.117   7.874  1.9038 -1.3165  1.2559
  120OSM   H14T12663   1.476   0.271   7.937  0.3766 -0.1179  1.5195
  120OSM   C15S12664   1.631   0.148   8.054 -0.8170  0.0481  0.4068
  120OSM   H15S12665   1.726   0.202   8.073 -1.1244  0.1364  1.7648
  120OSM   H15T12666   1.641   0.039   8.034 -0.9794  0.2232 -0.6708
  120OSM   C16S12667   1.536   0.164   8.168  0.0919  0.3858  0.5384
  120OSM   H16S12668   1.452   0.096   8.142  0.3364  0.4041 -0.3007
  120OSM   H16T12669   1.490   0.265   8.163 -1.4368 -0.2919  0.4098
  120OSM   C17S12670   1.588   0.130   8.309  0.1047 -0.8025 -0.5987
  120OSM   H17S12671   1.684   0.182   8.328 -1.2354  2.0332 -1.3382
  120OSM   H17T12672   1.605   0.020   8.316 -0.1618 -0.8717 -1.0465
  120OSM   C18S12673   1.496   0.174   8.426 -0.4524 -0.5122 -0.3373
  120OSM   H18S12674   1.462   0.279   8.417 -0.3995 -0.4002  0.6694
  120OSM   H18T12675   1.546   0.156   8.523 -2.0424 -0.4831  0.5081
  120OSM   H18U12676   1.400   0.118   8.425 -0.1081 -1.1520  1.2182
  120OSM    C1F12677   2.142   0.850   6.788 -0.7717  0.6255  0.6455
  120OSM     OF12678   2.078   0.936   6.730 -0.1133 -0.0414  0.2437
  120OSM    C2F12679   2.249   0.886   6.878  0.3290 -0.0717 -0.3161
  120OSM    H2F12680   2.336   0.919   6.817 -0.1294  2.8674  0.5328
  120OSM    H2G12681   2.281   0.798   6.937  1.2705  0.7920  0.4962
  120OSM    C3F12682   2.212   0.998   6.978  0.0992 -0.3008 -0.2923
  120OSM    H3F12683   2.136   0.959   7.049 -1.6616  1.7131 -1.0104
  120OSM    H3G12684   2.171   1.085   6.923  2.1041 -0.9927 -3.0037
  120OSM    C4F12685   2.338   1.066   7.056  0.2985 -0.5641 -0.5661
  120OSM    H4F12686   2.311   1.164   7.102 -0.5038 -0.0331 -2.1277
  120OSM    H4G12687   2.402   1.092   6.969 -0.1608  1.9218 -0.1977
  120OSM    C5F12688   2.414   0.978   7.154 -0.1169  0.4919  0.6929
  120OSM    H5F12689   2.511   1.027   7.178 -0.0515  1.5273 -1.5125
  120OSM    H5G12690   2.427   0.878   7.109 -0.6447  0.4099  0.7154
  120OSM    C6F12691   2.341   0.972   7.292 -0.3018  0.0692 -0.1837
  120OSM    H6F12692   2.372   0.876   7.339  0.4661  2.3446  4.2113
  120OSM    H6G12693   2.231   0.980   7.287 -0.2504  0.3481 -1.0414
  120OSM    C7F12694   2.390   1.086   7.383 -0.4252  0.0929  0.3932
  120OSM    H7F12695   2.347   1.184   7.353 -0.5827 -0.3660 -0.9014
  120OSM    H7G12696   2.500   1.098   7.384 -0.5902  1.6152  1.6288
  120OSM    C8F12697   2.347   1.065   7.530 -0.5393 -0.7787 -0.0077
  120OSM    H8F12698   2.392   1.149   7.588 -1.0539 -0.5686  0.0911
  120OSM    H8G12699   2.386   0.967   7.564 -0.7549 -0.3012  1.6593
  120OSM    C9F12700   2.195   1.066   7.539 -0.1812 -0.4364 -0.7812
  120OSM    H9F12701   2.157   1.105   7.444 -0.1739 -2.1902 -1.5165
  120OSM   C10F12702   2.112   1.017   7.634  1.1585  0.4197  0.0737
  120OSM   H10F12703   2.004   1.012   7.614  1.5178  2.0193 -2.4952
  120OSM   C11F12704   2.148   0.948   7.762 -0.2110 -0.0945 -0.7788
  120OSM   H11F12705   2.256   0.922   7.761  0.0299  0.8192  0.3764
  120OSM   H11G12706   2.088   0.854   7.766  0.2989 -0.3584  0.9126
  120OSM   C12F12707   2.112   1.040   7.882  0.6381 -0.0508 -1.1274
  120OSM   H12F12708   2.004   1.068   7.878  0.8357  0.9251 -0.0173
  120OSM   H12G12709   2.173   1.133   7.872  0.5176 -0.1689 -3.3538
  120OSM   C13F12710   2.131   0.965   8.011  0.4685  0.0988 -0.2084
  120OSM   H13F12711   2.240   0.949   8.026  0.3214  0.3902  1.2390
  120OSM   H13G12712   2.082   0.865   8.017  0.4686  0.1669  0.9926
  120OSM   C14F12713   2.082   1.045   8.124 -0.2096 -0.8888  0.1487
  120OSM   H14F12714   1.982   1.076   8.087 -0.0754 -1.5028 -0.7552
  120OSM   H14G12715   2.148   1.134   8.134 -1.2239 -0.1640  0.5880
  120OSM   C15F12716   2.075   0.957   8.253 -0.2290 -0.5160 -0.0189
  120OSM   H15F12717   2.173   0.905   8.264 -0.2581 -0.4195  0.7273
  120OSM   H15G12718   1.995   0.882   8.235  0.1840 -1.1889  0.8683
  120OSM   C16F12719   2.037   1.037   8.379  0.3411  0.3754 -0.0778
  120OSM   H16F12720   1.947   1.097   8.353  0.0010  0.3602  1.0432
  120OSM   H16G12721   2.121   1.106   8.405  1.6808 -1.0415 -0.5727
  120OSM   C17F12722   1.993   0.947   8.496 -0.1365  0.4004  0.3623
  120OSM   H17F12723   1.920   0.877   8.449 -1.3972  0.1682  2.5977
  120OSM   H17G12724   1.928   0.994   8.574  0.6601 -2.1577  2.6405
  120OSM   C18F12725   2.107   0.871   8.566 -0.0691  0.0022  0.2170
  120OSM   H18F12726   2.173   0.948   8.614 -1.9370  2.9338 -1.7603
  120OSM   H18G12727   2.167   0.808   8.498 -0.6520  1.6098 -1.8398
  120OSM   H18H12728   2.068   0.818   8.655  0.7471 -1.4007 -0.2548
  121OSM      N12729   4.177   2.916   5.989 -0.2881 -0.2704 -0.2190
  121OSM    C1512730   4.131   2.985   5.869 -0.2579  0.1791  0.6100
  121OSM   H15A12731   4.206   3.045   5.820  0.4131 -1.7218 -0.7828
  121OSM   H15B12732   4.041   3.039   5.891 -0.5255 -0.8769  2.1757
  121OSM   H15C12733   4.105   2.920   5.786 -0.3866  0.0425  0.7553
  121OSM    C1412734   4.293   2.834   5.946 -0.4721  0.2479 -0.4802
  121OSM   H14A12735   4.261   2.757   5.877 -1.9457  0.7856 -0.4115
  121OSM   H14B12736   4.353   2.796   6.028 -1.2237 -1.0426 -0.5239
  121OSM   H14C12737   4.369   2.892   5.896 -1.3552  2.5599  0.7518
  121OSM    C1312738   4.227   3.020   6.086 -0.5678 -0.2727 -0.1076
  121OSM   H13A12739   4.323   3.060   6.055 -1.0153 -0.0264 -1.1995
  121OSM   H13B12740   4.231   2.976   6.184 -1.2161 -0.2188 -0.0566
  121OSM   H13C12741   4.156   3.101   6.089  1.0543  1.4574 -4.1472
  121OSM    C1212742   4.072   2.837   6.053  0.2031 -0.3756 -0.1713
  121OSM   H12A12743   3.997   2.905   6.090  1.9159  0.9468  0.9287
  121OSM   H12B12744   4.115   2.795   6.142  0.5549  1.3791  0.5090
  121OSM    C1112745   3.997   2.736   5.970 -0.6034 -0.3709 -0.9969
  121OSM   H11A12746   4.061   2.653   5.933  1.2242  1.1281 -1.2668
  121OSM   H11B12747   3.953   2.783   5.880 -0.6734  1.5357  0.0040
  121OSM      P12748   3.766   2.757   6.084  0.2968 -0.0819  0.1316
  121OSM    O1312749   3.805   2.891   6.115  0.1134 -0.5551  0.3263
  121OSM    O1412750   3.659   2.734   5.988 -0.0446  0.0542  0.3207
  121OSM    O1112751   3.733   2.681   6.218 -0.3205 -0.6959 -0.0738
  121OSM    O1212752   3.894   2.676   6.045 -0.1755  0.2795 -0.3407
  121OSM    C1S12753   3.814   2.691   6.338 -0.5293 -0.0651 -0.1457
  121OSM    H1S12754   3.877   2.783   6.340  2.7587 -2.2523  1.5690
  121OSM    H1T12755   3.885   2.607   6.350 -1.0603 -0.4855  0.0667
  121OSM     NF12756   3.812   2.714   6.585 -0.0116  0.2638  0.0860
  121OSM    HNF12757   3.844   2.629   6.628  0.8185 -0.1496 -1.3169
  121OSM    C2S12758   3.723   2.699   6.464  0.3382  0.6794 -0.4191
  121OSM    H2S12759   3.658   2.787   6.445 -1.3034 -0.6467 -1.1207
  121OSM    C3S12760   3.637   2.576   6.489 -0.1873  0.7474 -0.0159
  121OSM    H3S12761   3.703   2.492   6.518 -1.3332 -0.4367 -0.7684
  121OSM     O312762   3.581   2.524   6.367  0.3721  0.0201 -0.1305
  121OSM    HO312763   3.610   2.580   6.295 -1.5982  1.7117  0.3171
  121OSM    C4S12764   3.541   2.607   6.594  0.4874  0.3930 -0.4287
  121OSM    H4S12765   3.475   2.692   6.574  0.2171  0.1059 -0.7713
  121OSM    C5S12766   3.529   2.540   6.715 -0.0514 -0.3378 -1.1615
  121OSM    H5S12767   3.608   2.466   6.733  1.5527  1.2989 -1.3299
  121OSM    C6S12768   3.440   2.581   6.827 -0.5066  0.0053  0.3609
  121OSM    H6S12769   3.357   2.508   6.838 -0.4238  0.3408  4.0249
  121OSM    H6T12770   3.398   2.682   6.812 -1.1931 -0.2986  0.2352
  121OSM    C7S12771   3.526   2.570   6.953  0.0850  0.0224  0.7198
  121OSM    H7S12772   3.594   2.658   6.954  0.2762 -0.1227  0.4649
  121OSM    H7T12773   3.589   2.479   6.946  0.6392  0.6559 -4.8385
  121OSM    C8S12774   3.440   2.571   7.083 -0.1608  1.0194  0.1662
  121OSM    H8S12775   3.383   2.476   7.082  1.6935 -0.1030 -0.1309
  121OSM    H8T12776   3.375   2.662   7.087  1.5270  2.2862 -0.6526
  121OSM    C9S12777   3.515   2.567   7.213 -0.4823 -0.6045  0.2216
  121OSM    H9S12778   3.592   2.646   7.228  0.2763 -1.6589  2.1316
  121OSM    H9T12779   3.579   2.476   7.220  0.5181  0.0627 -0.0866
  121OSM   C10S12780   3.416   2.592   7.324 -0.0923  0.0477  0.6897
  121OSM   H10S12781   3.359   2.497   7.333  2.1746 -1.6069 -1.5687
  121OSM   H10T12782   3.352   2.677   7.291 -1.1179 -1.1062 -0.3865
  121OSM   C11S12783   3.485   2.626   7.456 -0.6908  0.5154  0.5933
  121OSM   H11S12784   3.554   2.712   7.441 -1.6710  1.1761 -0.1566
  121OSM   H11T12785   3.549   2.541   7.490  0.2389  0.4414 -1.2704
  121OSM   C12S12786   3.388   2.664   7.577  0.7893  0.0506 -0.1251
  121OSM   H12S12787   3.305   2.590   7.582  1.3364 -0.4495  1.8719
  121OSM   H12T12788   3.342   2.757   7.539 -0.3453 -0.8895 -1.1183
  121OSM   C13S12789   3.464   2.686   7.710 -0.5183 -0.7014 -0.2419
  121OSM   H13S12790   3.539   2.768   7.701 -0.3002 -0.4823  2.9771
  121OSM   H13T12791   3.511   2.596   7.754  2.7075  2.3336  2.8509
  121OSM   C14S12792   3.382   2.752   7.818 -0.4291  0.6045  0.2432
  121OSM   H14S12793   3.301   2.683   7.852 -0.3439 -0.3401 -1.4221
  121OSM   H14T12794   3.332   2.841   7.772 -2.7632  0.2432  1.9904
  121OSM   C15S12795   3.463   2.794   7.934  0.1073  0.6902 -0.7201
  121OSM   H15S12796   3.397   2.809   8.022 -0.9310 -0.4588 -1.2907
  121OSM   H15T12797   3.518   2.887   7.906  0.4997  1.5308  2.5509
  121OSM   C16S12798   3.561   2.683   7.982 -0.1865 -0.6440  0.1078
  121OSM   H16S12799   3.650   2.704   7.919  1.9977 -1.0442  2.9377
  121OSM   H16T12800   3.526   2.579   7.965  0.3286 -0.9914  1.1266
  121OSM   C17S12801   3.605   2.701   8.125 -0.1810  0.1768 -0.6718
  121OSM   H17S12802   3.523   2.723   8.198 -0.4450 -0.4867 -0.7603
  121OSM   H17T12803   3.680   2.781   8.134  0.4065 -0.6691  2.7730
  121OSM   C18S12804   3.685   2.578   8.187 -0.7198 -0.1756  0.6972
  121OSM   H18S12805   3.610   2.501   8.217 -0.2576 -0.4087  1.2569
  121OSM   H18T12806   3.743   2.615   8.273  0.1459 -1.3319  0.6175
  121OSM   H18U12807   3.758   2.538   8.113  1.4894  3.0703  1.0451
  121OSM    C1F12808   3.863   2.827   6.626  0.3664 -0.5246 -0.8349
  121OSM     OF12809   3.815   2.932   6.577  0.2986  0.4220  0.2141
  121OSM    C2F12810   3.955   2.815   6.733  0.4976 -0.4653  0.3002
  121OSM    H2F12811   4.015   2.909   6.737 -1.2473  0.7036 -0.4720
  121OSM    H2G12812   4.022   2.729   6.710  1.9787  0.8670 -0.4775
  121OSM    C3F12813   3.877   2.790   6.872 -0.4756 -0.4319  0.0893
  121OSM    H3F12814   3.785   2.731   6.848 -4.0885  3.8605  2.7399
  121OSM    H3G12815   3.828   2.883   6.907  1.3768  0.5358  0.1929
  121OSM    C4F12816   3.972   2.731   6.982  0.2180  0.3206 -0.4907
  121OSM    H4F12817   4.060   2.793   7.010  1.7149 -1.9828  0.0556
  121OSM    H4G12818   4.014   2.639   6.935 -1.4008  0.7525 -2.8851
  121OSM    C5F12819   3.897   2.688   7.113  0.5232  0.1145 -0.5159
  121OSM    H5F12820   3.823   2.619   7.066  1.1335 -0.7459 -0.2217
  121OSM    H5G12821   3.842   2.775   7.153  0.4980 -0.1407  0.0071
  121OSM    C6F12822   3.986   2.631   7.225  0.3100  0.6575 -0.4280
  121OSM    H6F12823   4.025   2.722   7.276  2.3193  0.1914 -1.0978
  121OSM    H6G12824   4.067   2.571   7.180 -0.5150  0.2261 -1.3418
  121OSM    C7F12825   3.901   2.557   7.316 -0.6848  0.5487 -0.0908
  121OSM    H7F12826   3.870   2.470   7.255 -2.8680  0.8592  0.5332
  121OSM    H7G12827   3.806   2.609   7.339 -1.4094  0.0445 -1.8569
  121OSM    C8F12828   3.978   2.508   7.434 -0.1722  0.1259 -0.9703
  121OSM    H8F12829   4.014   2.590   7.500  0.1913 -1.3594  0.7192
  121OSM    H8G12830   4.073   2.467   7.395 -0.0689  1.4511 -2.1392
  121OSM    C9F12831   3.897   2.403   7.513 -0.1450  0.1631  0.9815
  121OSM    H9F12832   3.849   2.330   7.446  0.7149  0.9799 -0.5542
  121OSM   C10F12833   3.885   2.392   7.643 -0.3084 -0.4495 -0.2061
  121OSM   H10F12834   3.818   2.321   7.694  1.0508  0.2217  2.5986
  121OSM   C11F12835   3.940   2.485   7.746 -0.2860  0.2714  0.8655
  121OSM   H11F12836   3.885   2.581   7.736 -0.8018 -0.0747  0.2871
  121OSM   H11G12837   4.049   2.503   7.738 -0.1657 -1.2204 -1.4382
  121OSM   C12F12838   3.918   2.438   7.893  0.3494 -0.3853 -0.3427
  121OSM   H12F12839   3.813   2.424   7.925  0.7052 -0.0743  0.9968
  121OSM   H12G12840   3.960   2.516   7.960  0.6974  0.3654 -1.4125
  121OSM   C13F12841   3.986   2.306   7.923 -0.0272 -0.1308 -0.1946
  121OSM   H13F12842   4.094   2.319   7.948 -0.3989 -1.0826  2.0309
  121OSM   H13G12843   3.991   2.228   7.844  0.6944 -0.5982  0.3084
  121OSM   C14F12844   3.928   2.237   8.048  0.0053  0.2012  0.1718
  121OSM   H14F12845   3.965   2.134   8.065 -0.1244  0.3802  1.5865
  121OSM   H14G12846   3.817   2.234   8.042 -0.2880 -1.2577  4.5301
  121OSM   C15F12847   3.967   2.299   8.178 -0.0088  0.3960 -0.6395
  121OSM   H15F12848   3.922   2.401   8.185 -0.4325  0.1557  0.1591
  121OSM   H15G12849   4.076   2.317   8.194  0.1450 -1.4315  0.4182
  121OSM   C16F12850   3.887   2.246   8.301  0.1963 -0.4253 -0.8525
  121OSM   H16F12851   3.909   2.138   8.315 -1.1343 -0.4021  1.6368
  121OSM   H16G12852   3.781   2.266   8.275  0.0532 -2.0176 -1.5604
  121OSM   C17F12853   3.933   2.308   8.432  0.1891  0.5956 -0.4607
  121OSM   H17F12854   3.871   2.273   8.517  3.0411 -0.8354  1.0925
  121OSM   H17G12855   3.922   2.418   8.431 -1.8823  0.4061 -0.4124
  121OSM   C18F12856   4.074   2.269   8.466  0.8710 -0.0598  0.0356
  121OSM   H18F12857   4.146   2.318   8.397 -1.0591  3.8352  0.6611
  121OSM   H18G12858   4.097   2.161   8.455 -0.9662 -0.4781  0.1581
  121OSM   H18H12859   4.098   2.296   8.572  2.6909 -0.6578 -0.1999
  122OSM      N12860   2.698   4.334   5.627  0.2439 -0.0978 -0.1514
  122OSM    C1512861   2.795   4.221   5.592  0.0387  0.6429 -0.0300
  122OSM   H15A12862   2.804   4.138   5.661 -0.7264  0.3617 -0.2516
  122OSM   H15B12863   2.888   4.266   5.561 -0.0157 -0.5583 -2.0561
  122OSM   H15C12864   2.768   4.169   5.501  1.8632  0.1084 -0.2793
  122OSM    C1412865   2.739   4.382   5.766  0.2433 -0.3112  0.0794
  122OSM   H14A12866   2.842   4.415   5.776 -0.4250  1.8166  0.0631
  122OSM   H14B12867   2.729   4.295   5.830  0.6859 -0.8261 -0.5379
  122OSM   H14C12868   2.676   4.457   5.809  0.9541  1.3407 -1.6955
  122OSM    C1312869   2.700   4.440   5.528 -0.1739  0.2795 -0.0447
  122OSM   H13A12870   2.793   4.495   5.526  0.1279 -0.0922  2.3137
  122OSM   H13B12871   2.621   4.508   5.555 -0.3885 -0.8382  2.2735
  122OSM   H13C12872   2.676   4.395   5.433  0.2453 -0.1303  0.0396
  122OSM    C1212873   2.556   4.263   5.632  0.0086 -0.0072  0.2212
  122OSM   H12A12874   2.514   4.242   5.535 -0.7358  1.1941  0.2755
  122OSM   H12B12875   2.484   4.341   5.654  0.5552  0.2263  1.2424
  122OSM    C1112876   2.539   4.155   5.727  0.3668 -0.2876 -0.1282
  122OSM   H11A12877   2.608   4.074   5.694  0.7171  0.2851 -0.8253
  122OSM   H11B12878   2.439   4.114   5.702 -0.0908  0.6475  0.1528
  122OSM      P12879   2.450   4.260   5.957 -0.2938 -0.1362  0.1876
  122OSM    O1312880   2.520   4.379   6.008  0.2766 -0.4071  0.0316
  122OSM    O1412881   2.318   4.272   5.901 -0.2354  0.0450 -0.3744
  122OSM    O1112882   2.434   4.157   6.072 -0.0043  0.8769  0.3623
  122OSM    O1212883   2.556   4.194   5.862 -0.0659 -0.4105 -0.5218
  122OSM    C1S12884   2.524   4.137   6.182 -0.0838  0.0805 -0.6352
  122OSM    H1S12885   2.625   4.170   6.149 -0.7620  2.0920 -0.7564
  122OSM    H1T12886   2.532   4.029   6.208 -1.1590  0.8008  2.9445
  122OSM     NF12887   2.600   4.204   6.410 -0.1264  0.2404  0.3891
  122OSM    HNF12888   2.590   4.127   6.473  1.5468 -0.7962 -0.5479
  122OSM    C2S12889   2.486   4.211   6.315  0.2029  0.2471 -0.2121
  122OSM    H2S12890   2.470   4.317   6.289 -0.5735 -0.1494 -1.4029
  122OSM    C3S12891   2.352   4.150   6.360 -0.3933  0.1753 -0.2189
  122OSM    H3S12892   2.369   4.041   6.375  1.0149  0.6501  1.8653
  122OSM     O312893   2.245   4.160   6.266  0.1094  0.1025  1.2450
  122OSM    HO312894   2.295   4.176   6.185  2.4363 -2.4192  2.0977
  122OSM    C4S12895   2.295   4.218   6.479 -0.6990 -0.3605  0.1052
  122OSM    H4S12896   2.304   4.328   6.473  0.2153 -0.4445 -0.2147
  122OSM    C5S12897   2.255   4.162   6.593 -0.0752  0.2335  0.6004
  122OSM    H5S12898   2.266   4.054   6.615  0.9273  0.4468  1.1340
  122OSM    C6S12899   2.192   4.242   6.712 -0.3704 -0.2662 -0.0383
  122OSM    H6S12900   2.228   4.202   6.809  4.5043  2.4407 -0.5396
  122OSM    H6T12901   2.082   4.229   6.710 -0.2024 -1.3760 -2.9348
  122OSM    C7S12902   2.209   4.397   6.707 -0.8949 -0.4583 -0.6977
  122OSM    H7S12903   2.175   4.439   6.610  2.2108 -0.2156 -1.7551
  122OSM    H7T12904   2.316   4.413   6.732 -0.0986 -3.7003 -1.8226
  122OSM    C8S12905   2.134   4.464   6.823 -0.3017 -0.1199  0.3874
  122OSM    H8S12906   2.024   4.471   6.808 -0.0350  2.2997 -0.7428
  122OSM    H8T12907   2.171   4.568   6.815  0.5631 -0.5501 -1.5403
  122OSM    C9S12908   2.188   4.434   6.967 -0.9545 -0.3010 -0.7179
  122OSM    H9S12909   2.295   4.404   6.958 -0.3313  1.5909  0.2346
  122OSM    H9T12910   2.133   4.344   7.003 -0.5885  0.2533  1.2621
  122OSM   C10S12911   2.154   4.542   7.073  0.2095 -0.0185  0.5810
  122OSM   H10S12912   2.053   4.587   7.081  0.1007  0.1379 -1.4247
  122OSM   H10T12913   2.222   4.624   7.041 -1.4254  1.8670  1.8906
  122OSM   C11S12914   2.190   4.495   7.220  0.3356 -0.2871 -0.1102
  122OSM   H11S12915   2.292   4.454   7.219  1.2286  1.8335  0.1709
  122OSM   H11T12916   2.116   4.416   7.247  2.2843 -1.9891  0.2948
  122OSM   C12S12917   2.181   4.601   7.324  0.2904 -0.0374 -0.8617
  122OSM   H12S12918   2.090   4.663   7.306  0.6876  0.9215  0.3940
  122OSM   H12T12919   2.261   4.675   7.307 -0.7660  1.1686 -0.6580
  122OSM   C13S12920   2.205   4.562   7.474  0.8842 -0.5314  0.5234
  122OSM   H13S12921   2.312   4.535   7.478  0.9809  0.1594  3.7757
  122OSM   H13T12922   2.143   4.475   7.506 -0.9523  1.2064  1.7531
  122OSM   C14S12923   2.190   4.689   7.566  0.9205 -0.1281 -1.0138
  122OSM   H14S12924   2.082   4.708   7.580  1.0121  0.7203 -1.4115
  122OSM   H14T12925   2.247   4.777   7.528 -0.0135  0.4529 -1.0644
  122OSM   C15S12926   2.244   4.649   7.706  0.2590  0.2509 -0.0343
  122OSM   H15S12927   2.339   4.593   7.700 -0.3752 -0.8048 -0.3125
  122OSM   H15T12928   2.178   4.581   7.764 -1.5659  2.4025  0.4993
  122OSM   C16S12929   2.249   4.770   7.797 -0.2152 -0.4857  0.8026
  122OSM   H16S12930   2.145   4.800   7.823  0.3114  0.9824  1.2868
  122OSM   H16T12931   2.290   4.856   7.741  1.2527 -1.7431 -0.0880
  122OSM   C17S12932   2.325   4.758   7.924  0.2753 -0.6796  0.3358
  122OSM   H17S12933   2.434   4.743   7.907  0.3349 -1.5483  1.4161
  122OSM   H17T12934   2.275   4.682   7.987 -2.7842 -0.2595 -1.5023
  122OSM   C18S12935   2.315   4.894   7.986 -0.7991 -0.4089  0.4161
  122OSM   H18S12936   2.367   4.973   7.928  1.4100 -0.3038  2.4473
  122OSM   H18T12937   2.372   4.874   8.080 -1.2676 -2.0099  0.3768
  122OSM   H18U12938   2.211   4.917   8.020 -1.6954 -0.1243 -2.4222
  122OSM    C1F12939   2.715   4.262   6.394 -0.2621 -0.3144  0.5273
  122OSM     OF12940   2.733   4.343   6.307 -0.3665 -0.7128 -0.5422
  122OSM    C2F12941   2.825   4.213   6.478  0.4980  0.1730 -0.2970
  122OSM    H2F12942   2.891   4.158   6.407  1.1460 -2.7433  2.4457
  122OSM    H2G12943   2.791   4.130   6.543 -0.0312  0.3378 -0.3626
  122OSM    C3F12944   2.902   4.328   6.552 -0.2885  0.1513  0.1113
  122OSM    H3F12945   2.839   4.382   6.627 -1.8129 -0.9918 -0.3142
  122OSM    H3G12946   2.943   4.405   6.483 -0.2419  0.2721  0.2728
  122OSM    C4F12947   3.019   4.261   6.621  0.0642  0.2858  0.2746
  122OSM    H4F12948   3.069   4.199   6.543 -0.5265  0.8910 -0.5902
  122OSM    H4G12949   2.989   4.194   6.705  2.5070 -1.4787 -0.1770
  122OSM    C5F12950   3.127   4.357   6.669  0.4138 -0.4094  0.2232
  122OSM    H5F12951   3.084   4.451   6.710 -0.4349 -0.6784 -0.0377
  122OSM    H5G12952   3.177   4.384   6.574  0.1023 -3.0113 -0.7297
  122OSM    C6F12953   3.238   4.290   6.752 -0.2441 -0.1477 -0.1289
  122OSM    H6F12954   3.320   4.363   6.763  0.1036 -0.3708 -1.2349
  122OSM    H6G12955   3.276   4.206   6.691 -0.2848 -3.7374  4.4549
  122OSM    C7F12956   3.202   4.245   6.895  0.2881 -0.3683  0.6326
  122OSM    H7F12957   3.092   4.247   6.908 -0.0242  0.6220 -1.8105
  122OSM    H7G12958   3.241   4.324   6.963 -2.4251  0.5189  1.1971
  122OSM    C8F12959   3.255   4.112   6.936  0.6685  0.2585 -0.3056
  122OSM    H8F12960   3.366   4.113   6.931  0.7360 -1.6029  0.4040
  122OSM    H8G12961   3.231   4.034   6.861  1.5060  0.1647 -0.4816
  122OSM    C9F12962   3.197   4.065   7.069  0.5107  0.3164 -0.1954
  122OSM    H9F12963   3.096   4.022   7.055  1.5535 -2.8806  1.4878
  122OSM   C10F12964   3.251   4.078   7.193  0.2577  0.8851  0.0372
  122OSM   H10F12965   3.203   4.023   7.276 -0.0427  1.0009 -0.0589
  122OSM   C11F12966   3.381   4.152   7.218 -0.0178 -0.0200  0.0772
  122OSM   H11F12967   3.440   4.186   7.131  0.2089 -0.9707 -0.1489
  122OSM   H11G12968   3.452   4.085   7.272  1.7022  0.9823 -0.9041
  122OSM   C12F12969   3.365   4.268   7.315  0.3843 -0.5811 -0.1280
  122OSM   H12F12970   3.283   4.329   7.270  1.6516  1.8664  0.7424
  122OSM   H12G12971   3.462   4.322   7.325  0.3171 -0.6752  1.1589
  122OSM   C13F12972   3.322   4.235   7.456 -0.2838  0.8461  0.0874
  122OSM   H13F12973   3.410   4.198   7.513 -0.4277 -0.4479 -0.5068
  122OSM   H13G12974   3.258   4.144   7.464 -0.4780  0.8442 -1.2606
  122OSM   C14F12975   3.269   4.357   7.539 -0.6686 -0.0058 -0.3523
  122OSM   H14F12976   3.164   4.385   7.516 -0.1913  0.1034 -2.5019
  122OSM   H14G12977   3.334   4.444   7.515 -0.7070  0.0888 -0.1160
  122OSM   C15F12978   3.278   4.330   7.693  0.6342 -0.0791  0.7708
  122OSM   H15F12979   3.386   4.311   7.712  0.5355 -0.0812  1.3453
  122OSM   H15G12980   3.209   4.245   7.715  0.0618 -0.0237 -0.8038
  122OSM   C16F12981   3.233   4.447   7.787  0.2562  0.1669 -0.3897
  122OSM   H16F12982   3.128   4.475   7.762  0.7916 -0.4938 -3.6253
  122OSM   H16G12983   3.289   4.539   7.762 -0.8486  0.9132 -0.1488
  122OSM   C17F12984   3.267   4.419   7.941 -0.5790  0.5492 -0.3627
  122OSM   H17F12985   3.270   4.309   7.959  3.0661  0.4676 -1.0642
  122OSM   H17G12986   3.183   4.450   8.006  1.9858  0.8843  2.9407
  122OSM   C18F12987   3.406   4.482   7.977 -0.1560 -0.5536 -0.4358
  122OSM   H18F12988   3.435   4.462   8.082  0.1782  2.6646  0.1331
  122OSM   H18G12989   3.404   4.593   7.966 -0.4600 -0.6270 -1.1363
  122OSM   H18H12990   3.487   4.448   7.909 -1.0575  0.5324 -2.0927
  123OSM      N12991   0.904   6.820   6.070 -0.2875  0.2833 -0.0777
  123OSM    C1512992   0.852   6.778   5.934 -0.2457 -0.7635 -0.3381
  123OSM   H15A12993   0.938   6.748   5.876  0.5149  0.0324  0.3584
  123OSM   H15B12994   0.789   6.844   5.877  0.5046  0.5675  0.3424
  123OSM   H15C12995   0.799   6.684   5.943 -0.5486 -0.8360 -2.5442
  123OSM    C1412996   0.951   6.693   6.135 -0.7887 -0.1040 -0.0198
  123OSM   H14A12997   0.874   6.618   6.142  0.9041 -1.9737 -0.8126
  123OSM   H14B12998   0.993   6.710   6.232  0.6788  0.4589 -0.7413
  123OSM   H14C12999   1.028   6.657   6.068 -0.8660  0.0232 -0.1779
  123OSM    C1313000   1.017   6.913   6.060 -1.0268 -0.1529 -0.1426
  123OSM   H13A13001   0.978   7.012   6.039 -1.3868 -0.6364 -1.8967
  123OSM   H13B13002   1.089   6.893   5.981  1.0317  0.9926  1.3822
  123OSM   H13C13003   1.075   6.925   6.150  0.2329 -1.7837 -0.7057
  123OSM    C1213004   0.789   6.884   6.155  0.2633  0.2492  0.0898
  123OSM   H12A13005   0.702   6.822   6.139  1.5441 -1.2221 -1.3306
  123OSM   H12B13006   0.756   6.967   6.095 -2.6848 -0.6800  0.3243
  123OSM    C1113007   0.821   6.906   6.305  0.5977  0.5801 -0.0952
  123OSM   H11A13008   0.724   6.926   6.354  0.1057  0.8201 -1.1609
  123OSM   H11B13009   0.883   6.997   6.319  0.8529  0.4651 -0.4589
  123OSM      P13010   0.950   6.806   6.505  0.0066  0.4087 -0.0765
  123OSM    O1313011   0.969   6.670   6.564 -0.5283  0.3637  0.6300
  123OSM    O1413012   1.070   6.890   6.483 -0.1259 -0.8188  0.2499
  123OSM    O1113013   0.847   6.885   6.593 -0.3622  0.5637  0.2833
  123OSM    O1213014   0.876   6.792   6.368 -0.2480 -0.2539 -0.1345
  123OSM    C1S13015   0.876   6.894   6.732 -0.4558  0.9392 -0.3844
  123OSM    H1S13016   0.954   6.972   6.744  0.6905 -0.2584 -0.0050
  123OSM    H1T13017   0.920   6.802   6.776 -0.4141  1.3398  0.4233
  123OSM     NF13018   0.805   6.963   6.951 -0.3331  0.5121 -0.0386
  123OSM    HNF13019   0.794   6.905   7.032  0.3538  2.8030  1.7388
  123OSM    C2S13020   0.754   6.935   6.822  0.4780  0.2880  0.0749
  123OSM    H2S13021   0.722   7.030   6.774  0.3494  0.0655 -0.2835
  123OSM    C3S13022   0.647   6.821   6.826  0.6101 -0.7707  0.3681
  123OSM    H3S13023   0.685   6.723   6.864 -0.1510 -1.4000 -0.4975
  123OSM     O313024   0.604   6.795   6.689  0.6507  0.1207  0.1312
  123OSM    HO313025   0.669   6.831   6.627 -0.5204  0.3711 -0.9587
  123OSM    C4S13026   0.524   6.878   6.907 -0.1642 -0.0297  0.1088
  123OSM    H4S13027   0.455   6.944   6.853  1.4024 -0.1009 -2.0502
  123OSM    C5S13028   0.487   6.825   7.030 -0.0053  0.1848  0.1697
  123OSM    H5S13029   0.554   6.747   7.069  0.6479 -0.1397 -1.5807
  123OSM    C6S13030   0.354   6.852   7.100  0.2135  0.0014 -0.2006
  123OSM    H6S13031   0.283   6.776   7.060  0.8091 -0.0725 -1.1163
  123OSM    H6T13032   0.324   6.957   7.079 -2.7839 -1.4600 -3.8233
  123OSM    C7S13033   0.364   6.823   7.254 -0.0763  0.7824  0.2349
  123OSM    H7S13034   0.271   6.852   7.308  1.1484  2.4739  1.4660
  123OSM    H7T13035   0.449   6.879   7.298 -0.8611  0.6258  1.9816
  123OSM    C8S13036   0.399   6.673   7.285 -0.3816  0.0693 -0.2884
  123OSM    H8S13037   0.510   6.669   7.277 -0.3896  0.8363 -0.8495
  123OSM    H8T13038   0.363   6.608   7.203  2.4193 -2.8332  0.6594
  123OSM    C9S13039   0.344   6.611   7.413  0.0068  0.1770  0.3433
  123OSM    H9S13040   0.239   6.647   7.417 -1.2015 -3.1594  0.2329
  123OSM    H9T13041   0.381   6.646   7.512 -1.2055 -2.1140  1.6376
  123OSM   C10S13042   0.346   6.459   7.394  0.3458 -0.2949  0.3265
  123OSM   H10S13043   0.452   6.429   7.411  1.2981  1.1567 -2.6176
  123OSM   H10T13044   0.318   6.425   7.293 -2.9831  0.6116  0.8867
  123OSM   C11S13045   0.261   6.388   7.497 -0.2527 -0.4253  0.1413
  123OSM   H11S13046   0.276   6.278   7.485  1.6625 -0.1011 -0.5731
  123OSM   H11T13047   0.155   6.417   7.478 -0.6620 -1.4922  0.7822
  123OSM   C12S13048   0.312   6.420   7.642  0.2316 -0.0034 -0.4041
  123OSM   H12S13049   0.292   6.524   7.675  2.7685  0.3087  0.2882
  123OSM   H12T13050   0.422   6.403   7.649  0.4276  0.4252 -2.1955
  123OSM   C13S13051   0.229   6.350   7.752  0.7672  0.4192  0.3137
  123OSM   H13S13052   0.242   6.240   7.743 -1.3854 -0.3703  4.9824
  123OSM   H13T13053   0.121   6.376   7.748 -0.0878 -2.4723  2.8213
  123OSM   C14S13054   0.274   6.383   7.900  0.6921 -0.2327  0.5033
  123OSM   H14S13055   0.281   6.493   7.912 -0.9248 -0.0794  0.1914
  123OSM   H14T13056   0.378   6.345   7.913 -0.0269 -1.5646  2.6188
  123OSM   C15S13057   0.173   6.330   8.003  0.1439 -0.0752 -0.1548
  123OSM   H15S13058   0.158   6.221   7.997  0.2177 -0.0210 -1.4446
  123OSM   H15T13059   0.070   6.367   7.982  0.3834  0.2069 -0.8633
  123OSM   C16S13060   0.218   6.375   8.140  0.1437  0.3067 -0.3646
  123OSM   H16S13061   0.229   6.485   8.151  1.5715  0.0598  0.8142
  123OSM   H16T13062   0.311   6.321   8.169 -0.1140  0.9067  1.6303
  123OSM   C17S13063   0.131   6.330   8.257 -0.3316 -0.5835 -0.3974
  123OSM   H17S13064   0.039   6.391   8.245  1.1154  1.9038  0.6556
  123OSM   H17T13065   0.176   6.350   8.356  3.2124 -0.4797 -1.9415
  123OSM   C18S13066   0.085   6.186   8.253  0.3166 -0.0788 -0.3037
  123OSM   H18S13067   0.006   6.166   8.328  1.5569  0.2068  1.0940
  123OSM   H18T13068   0.173   6.118   8.260 -1.8422 -2.8536  0.9069
  123OSM   H18U13069   0.029   6.168   8.158  1.5291 -1.3599 -0.8016
  123OSM    C1F13070   0.873   7.071   6.974 -0.3348  0.2757  0.3481
  123OSM     OF13071   0.895   7.155   6.889 -0.5315  0.3433 -0.1190
  123OSM    C2F13072   0.922   7.089   7.113 -0.4836 -0.0163  0.2698
  123OSM    H2F13073   1.013   7.151   7.124  1.0148 -1.9084 -1.1296
  123OSM    H2G13074   0.949   6.986   7.145  1.6222  0.7985  1.1858
  123OSM    C3F13075   0.806   7.146   7.208 -1.1250  0.7371  0.7903
  123OSM    H3F13076   0.721   7.076   7.206 -0.0578 -0.6617  2.3694
  123OSM    H3G13077   0.771   7.246   7.174  1.9093  2.4314  2.3972
  123OSM    C4F13078   0.857   7.148   7.356  0.2220 -0.5838 -0.3800
  123OSM    H4F13079   0.946   7.214   7.363  0.5539 -0.9797 -0.8091
  123OSM    H4G13080   0.880   7.046   7.396  0.9023 -0.0317  0.6669
  123OSM    C5F13081   0.754   7.215   7.455  0.6366  0.2781 -0.0400
  123OSM    H5F13082   0.731   7.320   7.427  2.4553  0.1835 -2.0162
  123OSM    H5G13083   0.808   7.223   7.551 -2.0992  2.3033  1.4049
  123OSM    C6F13084   0.622   7.133   7.463  0.0712 -0.2175  0.2997
  123OSM    H6F13085   0.643   7.024   7.454 -0.7028 -0.4499  1.2272
  123OSM    H6G13086   0.550   7.157   7.382 -0.9142 -2.1269  0.5967
  123OSM    C7F13087   0.558   7.159   7.605  0.2910  0.3445  0.0104
  123OSM    H7F13088   0.529   7.266   7.601  1.8019  0.9118  2.7975
  123OSM    H7G13089   0.641   7.147   7.678 -0.7915  0.8933  1.3537
  123OSM    C8F13090   0.437   7.074   7.641 -0.2663  0.6676  0.1880
  123OSM    H8F13091   0.371   7.073   7.553  1.6727  1.0059 -1.3022
  123OSM    H8G13092   0.390   7.123   7.729  1.1683  2.0899  0.1878
  123OSM    C9F13093   0.485   6.935   7.688 -0.0492 -0.0142 -0.5910
  123OSM    H9F13094   0.588   6.898   7.690 -0.5302 -1.3427 -0.2200
  123OSM   C10F13095   0.398   6.839   7.726 -0.5110  0.6678  0.3772
  123OSM   H10F13096   0.432   6.743   7.768  0.4372  1.1191  0.6672
  123OSM   C11F13097   0.247   6.850   7.719 -1.0854  0.1362 -0.2887
  123OSM   H11F13098   0.206   6.747   7.706  1.2474 -1.0759  1.6680
  123OSM   H11G13099   0.218   6.912   7.631  0.4885 -0.2187 -1.0801
  123OSM   C12F13100   0.185   6.917   7.839 -0.0044 -0.4320  0.2066
  123OSM   H12F13101   0.085   6.961   7.817  0.2249 -0.1001 -0.1753
  123OSM   H12G13102   0.226   7.015   7.870  0.9606 -0.9899  0.6842
  123OSM   C13F13103   0.179   6.841   7.976 -0.1688 -0.0924 -0.0163
  123OSM   H13F13104   0.275   6.786   7.981  0.4925  1.0043 -0.3106
  123OSM   H13G13105   0.097   6.766   7.978  1.1279 -1.5278  0.6246
  123OSM   C14F13106   0.168   6.932   8.103  0.5124 -0.1234 -0.1800
  123OSM   H14F13107   0.064   6.970   8.110  0.3930 -0.2776 -1.1385
  123OSM   H14G13108   0.243   7.011   8.086  1.8652 -0.9410  1.8327
  123OSM   C15F13109   0.209   6.855   8.231  0.3271 -0.1574 -0.0389
  123OSM   H15F13110   0.312   6.815   8.223  0.1485 -0.6917  0.2596
  123OSM   H15G13111   0.126   6.784   8.252 -1.0961  0.9221 -1.8787
  123OSM   C16F13112   0.229   6.954   8.344 -0.4884 -0.8165 -0.0204
  123OSM   H16F13113   0.131   6.995   8.374  0.5140  1.6480 -0.0300
  123OSM   H16G13114   0.301   7.031   8.310 -1.5075  0.4030  0.5551
  123OSM   C17F13115   0.297   6.884   8.457 -0.0752  0.2688 -0.5262
  123OSM   H17F13116   0.401   6.858   8.426 -0.1258  0.5360 -0.9220
  123OSM   H17G13117   0.251   6.783   8.454 -0.0931  0.2989 -1.4665
  123OSM   C18F13118   0.286   6.947   8.593 -0.1728  0.2639 -0.6395
  123OSM   H18F13119   0.181   6.940   8.627  0.0918 -1.1584 -0.0912
  123OSM   H18G13120   0.320   7.053   8.589 -1.7515  0.7275 -3.3379
  123OSM   H18H13121   0.350   6.889   8.662 -0.3921 -0.4608 -1.0408
  124OSM      N13122   1.131   2.703   6.021  0.3410  0.0741 -0.7245
  124OSM    C1513123   1.231   2.652   5.930 -0.4092  0.5467  0.2018
  124OSM   H15A13124   1.304   2.594   5.986  0.7676  2.3758  0.6277
  124OSM   H15B13125   1.286   2.726   5.874  2.5684 -1.4311  0.3678
  124OSM   H15C13126   1.204   2.583   5.852  1.1413  1.5947 -1.3043
  124OSM    C1413127   1.049   2.795   5.942  0.6391  0.4859 -0.1895
  124OSM   H14A13128   0.991   2.744   5.866  3.1291 -1.4647 -0.8451
  124OSM   H14B13129   1.109   2.868   5.891 -1.8316  1.7380 -1.4182
  124OSM   H14C13130   0.985   2.853   6.006 -0.2591 -0.5530 -0.1276
  124OSM    C1313131   1.035   2.591   6.066  0.0141 -0.3468  0.4530
  124OSM   H13A13132   0.958   2.631   6.130 -0.9168 -2.1048  0.4480
  124OSM   H13B13133   1.091   2.522   6.128 -0.3878 -3.1596 -2.2353
  124OSM   H13C13134   0.994   2.531   5.987 -1.3603 -0.1465  0.9983
  124OSM    C1213135   1.189   2.771   6.147  0.1157 -0.2140 -0.0356
  124OSM   H12A13136   1.284   2.820   6.134  0.1921  0.5942  3.2685
  124OSM   H12B13137   1.211   2.703   6.228 -0.9711  0.3932  0.7797
  124OSM    C1113138   1.108   2.874   6.221  0.1832  0.0771  0.4921
  124OSM   H11A13139   1.151   2.896   6.321  0.2837 -1.7343  0.8646
  124OSM   H11B13140   1.008   2.833   6.246  1.1926 -2.1233  1.0231
  124OSM      P13141   1.225   3.084   6.106 -0.3513  0.2316 -0.2330
  124OSM    O1313142   1.318   3.014   6.018 -0.1188  0.3325 -0.1917
  124OSM    O1413143   1.165   3.212   6.066  0.1463 -0.5251 -0.6678
  124OSM    O1113144   1.299   3.091   6.248 -1.1741 -0.6326 -0.8737
  124OSM    O1213145   1.107   2.992   6.139 -0.1839 -0.3441  0.4330
  124OSM    C1S13146   1.252   3.182   6.349 -0.5110  0.1791 -0.5493
  124OSM    H1S13147   1.142   3.197   6.347 -0.4243  1.7762  3.0163
  124OSM    H1T13148   1.286   3.286   6.333  0.7555  0.3022  2.4701
  124OSM     NF13149   1.242   3.207   6.600  0.5564 -0.5280  0.1164
  124OSM    HNF13150   1.314   3.262   6.642  0.6481 -1.1355  0.7634
  124OSM    C2S13151   1.297   3.128   6.496  0.1771 -0.3516  0.3792
  124OSM    H2S13152   1.251   3.028   6.511  0.4255 -0.3862  0.9007
  124OSM    C3S13153   1.449   3.118   6.504  0.0749 -0.3045 -0.2229
  124OSM    H3S13154   1.500   3.211   6.471 -0.6109  0.6126  1.2303
  124OSM     O313155   1.492   3.020   6.413 -0.7349 -0.4200 -0.4893
  124OSM    HO313156   1.419   3.025   6.351 -0.2579 -1.2134 -1.1160
  124OSM    C4S13157   1.500   3.083   6.647  0.3195 -0.3573  0.2850
  124OSM    H4S13158   1.489   2.978   6.678  1.7632 -0.1110  1.7023
  124OSM    C5S13159   1.554   3.168   6.736 -0.2883 -0.4738 -0.0978
  124OSM    H5S13160   1.574   3.274   6.711 -2.2507 -0.7286 -2.9285
  124OSM    C6S13161   1.603   3.123   6.872  0.4134 -0.1588  0.1855
  124OSM    H6S13162   1.542   3.038   6.909  0.3583  0.3219  1.2175
  124OSM    H6T13163   1.581   3.201   6.948 -0.9462  0.0658 -0.4180
  124OSM    C7S13164   1.748   3.079   6.866 -0.3326  0.6995  0.3872
  124OSM    H7S13165   1.819   3.164   6.856 -0.3127  0.4806 -1.6842
  124OSM    H7T13166   1.762   3.013   6.778  1.1906 -0.6002  1.5818
  124OSM    C8S13167   1.788   3.004   6.993  0.2643  0.0546  0.8417
  124OSM    H8S13168   1.893   2.969   6.985  0.5648  0.7375  1.6179
  124OSM    H8T13169   1.725   2.914   7.008  0.6041 -0.4028 -0.4686
  124OSM    C9S13170   1.781   3.087   7.122 -0.0018 -0.3480  0.1527
  124OSM    H9S13171   1.675   3.116   7.139 -0.3609  1.2607 -4.2141
  124OSM    H9T13172   1.831   3.186   7.114 -0.3595  0.0218  2.1497
  124OSM   C10S13173   1.831   3.022   7.254  0.2193 -0.3552  0.0500
  124OSM   H10S13174   1.923   2.967   7.227  0.0702 -0.7293  0.3023
  124OSM   H10T13175   1.759   2.944   7.286  0.8381 -1.2618 -0.7533
  124OSM   C11S13176   1.850   3.124   7.371  0.0662 -0.4769 -0.0032
  124OSM   H11S13177   1.752   3.147   7.416  0.5885  1.4805  0.1942
  124OSM   H11T13178   1.900   3.213   7.327  0.7117  0.1416  1.9561
  124OSM   C12S13179   1.959   3.070   7.477  0.5264 -0.4332  0.2270
  124OSM   H12S13180   2.053   3.055   7.420 -0.7601 -2.2093 -1.4671
  124OSM   H12T13181   1.923   2.969   7.503 -1.4173 -0.1410 -1.1390
  124OSM   C13S13182   1.999   3.169   7.592 -0.3857  0.3213 -0.6971
  124OSM   H13S13183   1.922   3.174   7.671  0.8452  1.9501  0.4513
  124OSM   H13T13184   2.009   3.271   7.547 -0.0887  0.0157 -1.3382
  124OSM   C14S13185   2.139   3.125   7.645  0.2822  0.1986  0.0754
  124OSM   H14S13186   2.190   3.092   7.551 -1.9928 -0.1675 -1.0613
  124OSM   H14T13187   2.119   3.035   7.705 -0.5409 -0.0424 -0.5534
  124OSM   C15S13188   2.215   3.230   7.727 -0.4434  0.5612 -0.0942
  124OSM   H15S13189   2.155   3.255   7.817 -0.0634  3.8921 -0.6972
  124OSM   H15T13190   2.209   3.328   7.675 -2.1523  0.9192  0.7578
  124OSM   C16S13191   2.355   3.190   7.759 -0.8028  0.0692  0.6128
  124OSM   H16S13192   2.423   3.276   7.767 -1.0533  0.3487 -0.1877
  124OSM   H16T13193   2.394   3.126   7.676  1.2113  0.4235  1.2661
  124OSM   C17S13194   2.363   3.114   7.894  0.1356 -0.6242  0.5252
  124OSM   H17S13195   2.280   3.042   7.910  1.2206 -1.7096  1.3011
  124OSM   H17T13196   2.342   3.190   7.972  1.5737 -0.4236  0.7381
  124OSM   C18S13197   2.499   3.054   7.920  0.0656  0.4099  0.0082
  124OSM   H18S13198   2.506   3.036   8.029 -0.8521 -0.1670 -0.0229
  124OSM   H18T13199   2.581   3.121   7.886 -0.1097  2.4510  3.3791
  124OSM   H18U13200   2.515   2.957   7.869  2.8176  1.4068 -1.1619
  124OSM    C1F13201   1.117   3.231   6.623  0.3420  0.0522  0.8787
  124OSM     OF13202   1.026   3.178   6.555 -0.2833  0.0978 -0.7111
  124OSM    C2F13203   1.086   3.333   6.723 -0.2996 -0.0152  0.2996
  124OSM    H2F13204   1.089   3.430   6.669 -0.2816  0.5827  1.3569
  124OSM    H2G13205   1.151   3.323   6.813  2.1561 -1.5407 -1.5638
  124OSM    C3F13206   0.935   3.327   6.768  0.0693  0.2783 -0.1228
  124OSM    H3F13207   0.899   3.224   6.788 -3.7678  2.1074  2.9850
  124OSM    H3G13208   0.881   3.370   6.681  1.1237 -0.4860 -1.1912
  124OSM    C4F13209   0.918   3.413   6.888  0.0756  0.7412  0.3363
  124OSM    H4F13210   0.809   3.421   6.909 -0.3741  3.0414 -2.4630
  124OSM    H4G13211   0.957   3.514   6.862 -1.1297  0.9968 -0.5353
  124OSM    C5F13212   0.979   3.360   7.019  0.5043  0.9016 -0.3046
  124OSM    H5F13213   1.089   3.343   7.018  0.3263 -0.4694  0.8158
  124OSM    H5G13214   0.931   3.260   7.032  0.5379  0.7458 -1.3391
  124OSM    C6F13215   0.947   3.460   7.127  0.2478 -0.2505  0.4664
  124OSM    H6F13216   0.837   3.475   7.126  0.5949  2.4219 -0.7822
  124OSM    H6G13217   1.014   3.546   7.107  2.8288 -1.6805  2.6599
  124OSM    C7F13218   0.983   3.392   7.268 -0.1349 -0.3695 -0.0167
  124OSM    H7F13219   1.093   3.378   7.264  0.1863  1.7260  0.6921
  124OSM    H7G13220   0.928   3.295   7.268 -3.2694  1.3202 -0.9131
  124OSM    C8F13221   0.935   3.471   7.396 -0.3289  0.3117  0.0134
  124OSM    H8F13222   0.960   3.424   7.493  0.9123  0.5124 -0.1976
  124OSM    H8G13223   0.826   3.490   7.394 -0.2358  0.9429  0.8452
  124OSM    C9F13224   0.994   3.612   7.374 -0.4324 -0.5571 -0.0204
  124OSM    H9F13225   0.968   3.665   7.281 -0.5562  2.6204  1.7710
  124OSM   C10F13226   1.070   3.677   7.466  0.1033 -0.1893  0.2162
  124OSM   H10F13227   1.106   3.780   7.452 -1.5298  0.5945  1.5086
  124OSM   C11F13228   1.117   3.629   7.606 -0.3016 -0.6379 -0.2984
  124OSM   H11F13229   1.223   3.656   7.623 -0.6249 -0.0693  0.8376
  124OSM   H11G13230   1.113   3.518   7.610 -0.5894 -0.6601 -1.1220
  124OSM   C12F13231   1.037   3.683   7.731 -0.6502  0.3758 -0.6917
  124OSM   H12F13232   0.931   3.652   7.732 -0.3987 -0.4735  0.3343
  124OSM   H12G13233   1.033   3.794   7.718 -0.5315  0.2690 -1.6573
  124OSM   C13F13234   1.099   3.644   7.862 -0.2088  0.1718  0.5461
  124OSM   H13F13235   1.204   3.678   7.871  0.6822 -1.9842 -1.2525
  124OSM   H13G13236   1.103   3.533   7.864  3.0277  0.1391 -2.2661
  124OSM   C14F13237   1.023   3.694   7.984 -0.4624  0.1824 -0.1352
  124OSM   H14F13238   0.917   3.662   7.982 -0.4164 -0.2484  2.2294
  124OSM   H14G13239   1.027   3.804   7.970  0.0986  0.0665 -0.8780
  124OSM   C15F13240   1.076   3.636   8.109  0.5186 -0.1435  0.2767
  124OSM   H15F13241   1.063   3.525   8.116  0.3007 -0.0560  1.3698
  124OSM   H15G13242   1.015   3.685   8.188  1.2732  3.0501 -1.0501
  124OSM   C16F13243   1.223   3.665   8.135 -0.3477  0.2070 -0.3045
  124OSM   H16F13244   1.263   3.761   8.097  0.2987 -0.9024 -2.4589
  124OSM   H16G13245   1.282   3.586   8.085 -1.2561 -0.8105  0.2169
  124OSM   C17F13246   1.254   3.655   8.291 -1.1869 -0.5304  0.9661
  124OSM   H17F13247   1.228   3.559   8.340 -5.2339  1.0021  2.0494
  124OSM   H17G13248   1.196   3.735   8.340  0.8554  1.1045  0.8014
  124OSM   C18F13249   1.404   3.685   8.319  0.4755  0.0108 -1.0920
  124OSM   H18F13250   1.427   3.791   8.295 -0.2477  0.7585  1.3604
  124OSM   H18G13251   1.471   3.617   8.263  1.4583 -0.4449  0.6109
  124OSM   H18H13252   1.420   3.678   8.429 -1.0969  0.9288 -0.7867
  125OSM      N13253   4.549   2.099   5.908  0.1358  0.1730 -0.1511
  125OSM    C1513254   4.593   2.085   5.761  0.3138 -0.1520 -0.5165
  125OSM   H15A13255   4.545   2.162   5.704 -0.2982 -0.9954 -1.1436
  125OSM   H15B13256   4.568   1.990   5.717 -0.8610  0.5819 -1.4502
  125OSM   H15C13257   4.697   2.108   5.747  0.1306 -0.5210 -2.5893
  125OSM    C1413258   4.645   2.012   5.978  0.2663  0.5663  0.4369
  125OSM   H14A13259   4.635   1.910   5.943 -0.9248  0.3033  1.4773
  125OSM   H14B13260   4.622   2.014   6.083 -0.7496  0.8713  0.2232
  125OSM   H14C13261   4.743   2.053   5.963 -1.1310  3.5234 -1.1280
  125OSM    C1313262   4.574   2.249   5.945 -0.2758  0.0131 -0.1066
  125OSM   H13A13263   4.674   2.273   5.910  0.7960 -1.1770  1.9852
  125OSM   H13B13264   4.564   2.268   6.051  1.2194  0.3589 -0.0036
  125OSM   H13C13265   4.510   2.314   5.888 -1.4795  0.9426  2.2245
  125OSM    C1213266   4.407   2.057   5.932  0.1455  0.3207  0.1675
  125OSM   H12A13267   4.403   1.955   5.897 -0.4269  0.3873  0.0325
  125OSM   H12B13268   4.339   2.117   5.873 -1.0909 -1.0406  0.1678
  125OSM    C1113269   4.343   2.056   6.071  0.1120 -0.7114 -0.0164
  125OSM   H11A13270   4.237   2.024   6.064  0.2456 -1.2576  0.4312
  125OSM   H11B13271   4.339   2.159   6.113  0.5906 -0.4103 -0.6901
  125OSM      P13272   4.375   1.838   6.215  0.0520  0.3137  0.1533
  125OSM    O1313273   4.385   1.742   6.102  0.4098 -0.0381  0.1214
  125OSM    O1413274   4.455   1.809   6.336 -0.5045  0.0427  0.3887
  125OSM    O1113275   4.217   1.850   6.240 -0.3075 -0.0593 -0.1820
  125OSM    O1213276   4.410   1.980   6.171 -0.4493 -0.4193  0.4126
  125OSM    C1S13277   4.173   1.803   6.368 -0.0629 -0.0417 -0.2630
  125OSM    H1S13278   4.205   1.697   6.379  1.2997  0.3603 -0.2971
  125OSM    H1T13279   4.063   1.796   6.378  0.2185 -0.6008  3.1877
  125OSM     NF13280   4.173   1.831   6.608  0.5509 -0.3276  0.2091
  125OSM    HNF13281   4.087   1.851   6.654 -0.1963 -0.4196 -1.1020
  125OSM    C2S13282   4.214   1.908   6.484  0.0645  0.3272 -0.4119
  125OSM    H2S13283   4.324   1.926   6.479  0.2792 -0.4875  1.1153
  125OSM    C3S13284   4.141   2.045   6.465 -0.2504  0.7514  0.3803
  125OSM    H3S13285   4.031   2.035   6.470 -0.1767  0.3064  1.2901
  125OSM     O313286   4.175   2.112   6.342 -0.0770 -0.3128 -0.1692
  125OSM    HO313287   4.218   2.044   6.289 -0.5430 -1.1546  0.5117
  125OSM    C4S13288   4.164   2.143   6.581 -0.2036 -0.0343 -0.3348
  125OSM    H4S13289   4.089   2.137   6.662  3.2415  0.6193  3.0466
  125OSM    C5S13290   4.266   2.226   6.610 -0.0026 -1.1229 -0.4685
  125OSM    H5S13291   4.352   2.224   6.541  0.1970 -0.4172 -0.2403
  125OSM    C6S13292   4.288   2.321   6.728  0.0161  0.4470 -0.2866
  125OSM    H6S13293   4.247   2.421   6.704 -1.6819  0.0042  0.6909
  125OSM    H6T13294   4.396   2.338   6.742 -0.0552  1.7556 -1.2455
  125OSM    C7S13295   4.214   2.268   6.856  0.1686  0.1693 -0.3498
  125OSM    H7S13296   4.273   2.182   6.895  0.3214 -0.6090 -2.2113
  125OSM    H7T13297   4.110   2.238   6.833  1.3914 -1.4797 -4.1571
  125OSM    C8S13298   4.209   2.373   6.973 -0.1727 -0.6247  0.3424
  125OSM    H8S13299   4.177   2.317   7.063  0.0004 -1.8127 -0.3277
  125OSM    H8T13300   4.137   2.457   6.966 -1.0454 -1.4313 -0.7116
  125OSM    C9S13301   4.352   2.428   7.020 -0.0760 -0.8905  0.7494
  125OSM    H9S13302   4.361   2.512   6.948  0.0837 -0.5299  1.1919
  125OSM    H9T13303   4.431   2.349   7.018  1.7066  0.8919 -1.4768
  125OSM   C10S13304   4.371   2.483   7.165  0.2488 -0.3772 -0.8003
  125OSM   H10S13305   4.295   2.562   7.181 -1.5827 -2.0210 -1.0828
  125OSM   H10T13306   4.476   2.520   7.171  0.3504 -0.8647  0.8265
  125OSM   C11S13307   4.358   2.371   7.277  0.2303 -0.6702 -0.0561
  125OSM   H11S13308   4.439   2.294   7.271  1.2777  0.5265 -1.7266
  125OSM   H11T13309   4.255   2.330   7.271  0.3911 -1.3529  1.4731
  125OSM   C12S13310   4.361   2.447   7.413 -0.2823  0.0249 -0.7631
  125OSM   H12S13311   4.281   2.524   7.405  2.5697  3.2706  0.2925
  125OSM   H12T13312   4.459   2.500   7.421  0.3287 -1.3091  1.0733
  125OSM   C13S13313   4.347   2.358   7.534  0.6048 -0.1395 -0.6391
  125OSM   H13S13314   4.441   2.300   7.544  1.2403  0.2372 -3.8775
  125OSM   H13T13315   4.253   2.300   7.520 -0.2956  1.5978 -2.0394
  125OSM   C14S13316   4.342   2.436   7.661 -0.0322 -0.3256  0.4959
  125OSM   H14S13317   4.259   2.509   7.667  0.6738  0.3072  3.9392
  125OSM   H14T13318   4.442   2.485   7.660 -0.1397 -0.1155 -1.7153
  125OSM   C15S13319   4.348   2.351   7.789 -0.1068  0.4450  0.0870
  125OSM   H15S13320   4.448   2.302   7.792 -0.6867 -0.7440  0.5555
  125OSM   H15T13321   4.266   2.276   7.785 -0.9035  1.2062  1.7236
  125OSM   C16S13322   4.338   2.443   7.916 -0.0580 -0.1414 -0.3750
  125OSM   H16S13323   4.235   2.484   7.921  0.6551  1.9072 -1.6415
  125OSM   H16T13324   4.406   2.530   7.908 -0.4681  0.1597 -0.6378
  125OSM   C17S13325   4.364   2.375   8.045 -0.3184  0.7090 -0.3157
  125OSM   H17S13326   4.462   2.325   8.041  0.4233  2.0199  0.9198
  125OSM   H17T13327   4.283   2.299   8.058  1.7577 -1.3075  1.1221
  125OSM   C18S13328   4.361   2.468   8.167 -0.2798  0.5166  0.2640
  125OSM   H18S13329   4.437   2.547   8.149  1.4966 -1.1280  0.4422
  125OSM   H18T13330   4.406   2.417   8.254  1.6356  1.6174 -0.0437
  125OSM   H18U13331   4.258   2.506   8.189 -0.5128  0.3384 -0.4954
  125OSM    C1F13332   4.242   1.721   6.643  0.6936 -0.0244  0.3028
  125OSM     OF13333   4.360   1.706   6.618  0.5935  0.5085 -0.0768
  125OSM    C2F13334   4.167   1.617   6.719  0.7093 -0.0904  0.2100
  125OSM    H2F13335   4.080   1.576   6.664  0.7461 -0.5013  0.4488
  125OSM    H2G13336   4.146   1.667   6.816 -0.1543  1.8982 -0.9952
  125OSM    C3F13337   4.255   1.497   6.737  0.3480 -0.1550 -0.0822
  125OSM    H3F13338   4.342   1.537   6.794  0.2024  0.4131 -0.2590
  125OSM    H3G13339   4.292   1.451   6.642  0.8381 -0.0937  0.0757
  125OSM    C4F13340   4.182   1.388   6.821  0.1239 -0.2647  0.2359
  125OSM    H4F13341   4.101   1.336   6.765  0.0072 -0.2891  0.4255
  125OSM    H4G13342   4.133   1.442   6.905 -1.6224  0.2200 -1.0546
  125OSM    C5F13343   4.280   1.292   6.884 -0.5066  0.6967 -0.3232
  125OSM    H5F13344   4.353   1.245   6.814 -1.2730 -1.2295  0.1158
  125OSM    H5G13345   4.222   1.203   6.919  1.9301 -1.5361 -1.7573
  125OSM    C6F13346   4.339   1.349   7.012 -1.1610 -0.0248  1.1551
  125OSM    H6F13347   4.394   1.444   6.992  0.0975 -1.2108 -1.2391
  125OSM    H6G13348   4.407   1.278   7.064 -1.4310  1.2135  3.2529
  125OSM    C7F13349   4.248   1.388   7.126  0.3698 -0.7589 -0.7118
  125OSM    H7F13350   4.168   1.310   7.127 -0.3874  0.0130 -0.1441
  125OSM    H7G13351   4.192   1.482   7.105  0.5133 -0.2709  1.0186
  125OSM    C8F13352   4.319   1.381   7.259  0.3803  0.6342 -0.2987
  125OSM    H8F13353   4.402   1.454   7.270  0.9744  0.2730 -2.1912
  125OSM    H8G13354   4.379   1.289   7.245 -0.8281 -0.1701 -0.3078
  125OSM    C9F13355   4.230   1.375   7.384  0.3222  0.0141 -1.0160
  125OSM    H9F13356   4.132   1.424   7.370  0.1627 -0.3695 -1.2879
  125OSM   C10F13357   4.255   1.326   7.508 -0.9923 -0.3269 -0.5043
  125OSM   H10F13358   4.177   1.338   7.585 -0.2723 -0.4992  0.2587
  125OSM   C11F13359   4.386   1.250   7.550 -0.0284 -0.2731  0.1221
  125OSM   H11F13360   4.433   1.204   7.460 -1.0776  0.8064 -1.0054
  125OSM   H11G13361   4.368   1.170   7.625 -1.8155 -0.4229 -0.4342
  125OSM   C12F13362   4.502   1.339   7.609  0.7378  0.1001  0.1482
  125OSM   H12F13363   4.466   1.397   7.696  1.6585  0.4464  0.3083
  125OSM   H12G13364   4.548   1.409   7.535  1.1396  0.7295  0.9830
  125OSM   C13F13365   4.621   1.258   7.674  0.2758 -0.2633  0.2354
  125OSM   H13F13366   4.663   1.194   7.594  2.7100 -0.2107  1.4215
  125OSM   H13G13367   4.591   1.187   7.754  0.6764 -0.6712  0.0205
  125OSM   C14F13368   4.738   1.367   7.712 -0.8782  0.3601  0.5896
  125OSM   H14F13369   4.676   1.443   7.764 -0.2250  0.5546  1.0895
  125OSM   H14G13370   4.785   1.407   7.619  0.5224  0.4472  1.3048
  125OSM   C15F13371   4.846   1.305   7.801  0.7545 -0.0976  0.3765
  125OSM   H15F13372   4.889   1.208   7.769 -0.2996 -0.4819  0.1039
  125OSM   H15G13373   4.796   1.286   7.898  1.0541  0.8150  0.7137
  125OSM   C16F13374   4.958   1.409   7.839 -1.0437 -0.3897  0.1801
  125OSM   H16F13375   5.001   1.448   7.744  0.3187 -1.7679  0.2049
  125OSM   H16G13376   5.041   1.374   7.904 -0.0056 -0.6630 -1.2672
  125OSM   C17F13377   4.883   1.530   7.907 -0.1445  0.4763 -0.4881
  125OSM   H17F13378   4.789   1.486   7.946  0.5617 -0.1726  0.5091
  125OSM   H17G13379   4.860   1.598   7.822 -0.3613  0.3032 -0.5673
  125OSM   C18F13380   4.948   1.603   8.027 -0.2519  0.2017 -0.4780
  125OSM   H18F13381   5.053   1.625   8.001  0.1857 -2.2198 -0.8909
  125OSM   H18G13382   4.962   1.536   8.114 -1.0157  1.0878  0.3432
  125OSM   H18H13383   4.889   1.694   8.050 -2.7962 -1.3062 -0.7796
  126OSM      N13384   1.346   6.253   6.222 -0.0564  0.9904 -0.0890
  126OSM    C1513385   1.209   6.309   6.208  0.0007  0.5906  0.1626
  126OSM   H15A13386   1.149   6.278   6.293  0.6829  0.8345  0.7319
  126OSM   H15B13387   1.161   6.284   6.115 -0.1781  1.0360  0.1376
  126OSM   H15C13388   1.218   6.416   6.207  2.9923  0.4393  2.6889
  126OSM    C1413389   1.349   6.105   6.212 -0.1203 -0.0396 -0.5819
  126OSM   H14A13390   1.285   6.066   6.290 -0.2524 -2.5922 -1.9180
  126OSM   H14B13391   1.451   6.070   6.224  0.0103 -0.1389 -1.9795
  126OSM   H14C13392   1.317   6.061   6.119 -1.4907  1.6930 -0.9526
  126OSM    C1313393   1.422   6.310   6.102 -0.3464  0.3771 -0.1920
  126OSM   H13A13394   1.523   6.316   6.138  0.0979 -2.7327 -0.8195
  126OSM   H13B13395   1.388   6.408   6.072 -0.2739  0.8205  1.1353
  126OSM   H13C13396   1.413   6.242   6.019  0.4456  1.0326 -0.8250
  126OSM    C1213397   1.390   6.307   6.357 -0.2111 -0.3683  0.5779
  126OSM   H12A13398   1.341   6.253   6.437 -1.0117  0.8394  0.9064
  126OSM   H12B13399   1.364   6.411   6.370 -0.6241 -0.5275  1.0103
  126OSM    C1113400   1.539   6.294   6.401 -0.7095 -0.0434 -0.1940
  126OSM   H11A13401   1.551   6.345   6.499 -0.8157 -1.4997  0.5851
  126OSM   H11B13402   1.602   6.356   6.333 -2.7446  1.9796 -0.3071
  126OSM      P13403   1.710   6.085   6.406  0.2054 -0.0526  0.0798
  126OSM    O1313404   1.698   5.940   6.436 -0.6231  0.3254  0.2862
  126OSM    O1413405   1.792   6.121   6.292  0.7797 -0.2529 -0.2327
  126OSM    O1113406   1.772   6.146   6.539  0.1159 -0.0774  0.3477
  126OSM    O1213407   1.567   6.154   6.398 -0.4247 -0.0513 -0.0228
  126OSM    C1S13408   1.701   6.121   6.663 -0.1637 -0.8207  0.2737
  126OSM    H1S13409   1.723   6.016   6.691 -1.3076 -1.2751 -0.4899
  126OSM    H1T13410   1.591   6.129   6.654  0.1310  1.4047 -2.1602
  126OSM     NF13411   1.677   6.192   6.890 -0.3693  0.3596 -0.6226
  126OSM    HNF13412   1.598   6.245   6.922 -0.4725 -0.6404  0.8215
  126OSM    C2S13413   1.749   6.219   6.773  0.2660 -0.0470  1.1631
  126OSM    H2S13414   1.856   6.192   6.784 -0.2365 -2.2164  0.8782
  126OSM    C3S13415   1.748   6.365   6.730  0.0211 -0.1172 -0.1561
  126OSM    H3S13416   1.642   6.392   6.713  0.0475 -0.4365 -0.8423
  126OSM     O313417   1.821   6.401   6.614  0.5635  0.1227  0.1140
  126OSM    HO313418   1.857   6.319   6.580  1.3718 -0.9982  3.5124
  126OSM    C4S13419   1.802   6.444   6.843  0.2135 -0.2447  0.1638
  126OSM    H4S13420   1.909   6.440   6.869  0.3684 -1.0817 -0.5742
  126OSM    C5S13421   1.727   6.523   6.918  0.6053 -0.1437 -0.5645
  126OSM    H5S13422   1.621   6.530   6.891  0.6822 -0.2446 -0.8949
  126OSM    C6S13423   1.785   6.598   7.036 -0.8120  0.0844 -0.1671
  126OSM    H6S13424   1.892   6.619   7.017 -0.7333  0.1560  0.3531
  126OSM    H6T13425   1.787   6.539   7.131 -2.1081  0.4341  0.0940
  126OSM    C7S13426   1.717   6.732   7.064  0.2827  0.8322 -0.2028
  126OSM    H7S13427   1.615   6.736   7.021 -0.2943 -2.4188  0.7629
  126OSM    H7T13428   1.772   6.812   7.009 -0.5739 -0.6061 -3.2629
  126OSM    C8S13429   1.699   6.776   7.206 -0.3128 -0.1502  0.3901
  126OSM    H8S13430   1.654   6.877   7.207  0.5186  0.2265  0.2070
  126OSM    H8T13431   1.801   6.778   7.251 -0.4024  1.5409  0.5537
  126OSM    C9S13432   1.600   6.686   7.278 -0.0045 -0.5951  0.1053
  126OSM    H9S13433   1.638   6.583   7.295 -0.9895 -0.4091  3.9459
  126OSM    H9T13434   1.498   6.684   7.236  0.1380  0.8086 -0.3240
  126OSM   C10S13435   1.587   6.720   7.431  0.5897 -0.2874 -0.0335
  126OSM   H10S13436   1.534   6.634   7.477 -3.4193  1.8791 -0.4247
  126OSM   H10T13437   1.513   6.802   7.445  1.1009 -0.3098  3.2490
  126OSM   C11S13438   1.716   6.748   7.505 -0.0396 -0.5463  0.5390
  126OSM   H11S13439   1.763   6.842   7.468 -0.8989 -0.3180  0.0185
  126OSM   H11T13440   1.794   6.675   7.475  1.8142  0.8404  1.8291
  126OSM   C12S13441   1.685   6.739   7.657 -0.1927 -0.0454  0.4654
  126OSM   H12S13442   1.581   6.768   7.681  0.0906  0.1985  1.3969
  126OSM   H12T13443   1.736   6.819   7.714  1.8687  1.2043 -2.9626
  126OSM   C13S13444   1.720   6.606   7.727  0.0828  0.2877 -0.0107
  126OSM   H13S13445   1.813   6.559   7.690 -0.8245 -0.6100 -1.2000
  126OSM   H13T13446   1.631   6.542   7.708  0.4460  0.0475 -0.9044
  126OSM   C14S13447   1.741   6.620   7.875 -0.3070  0.0048 -0.2149
  126OSM   H14S13448   1.636   6.638   7.906  0.3635  1.4785  1.2893
  126OSM   H14T13449   1.797   6.712   7.902 -0.5357  0.4505 -1.2383
  126OSM   C15S13450   1.796   6.499   7.949 -0.1086 -0.6345 -0.0897
  126OSM   H15S13451   1.906   6.486   7.938  0.0694 -1.3454  2.2852
  126OSM   H15T13452   1.748   6.416   7.893  0.5277 -1.9152  1.2260
  126OSM   C16S13453   1.750   6.490   8.097  0.1494  0.7761 -0.0799
  126OSM   H16S13454   1.761   6.590   8.143  0.7405  0.0056  1.4870
  126OSM   H16T13455   1.812   6.416   8.152  0.3491  2.0280  1.4190
  126OSM   C17S13456   1.608   6.436   8.135 -0.1056 -0.2198  0.5687
  126OSM   H17S13457   1.574   6.362   8.059 -1.1557 -0.9432  1.7256
  126OSM   H17T13458   1.541   6.524   8.120  1.0517  0.6193  0.2266
  126OSM   C18S13459   1.590   6.387   8.277 -0.2747  0.1445 -1.0003
  126OSM   H18S13460   1.560   6.474   8.339  2.0500  0.1593  0.1618
  126OSM   H18T13461   1.679   6.332   8.316  0.2934 -0.1820 -2.7408
  126OSM   H18U13462   1.502   6.318   8.279  0.7912 -1.2245  1.9719
  126OSM    C1F13463   1.711   6.083   6.962 -0.1401 -0.7119 -0.1075
  126OSM     OF13464   1.814   6.013   6.943 -0.0510 -0.3377  0.0466
  126OSM    C2F13465   1.620   6.053   7.075  0.0497 -0.4578  0.7452
  126OSM    H2F13466   1.524   6.009   7.041 -0.9081  1.0097  1.4819
  126OSM    H2G13467   1.608   6.144   7.139  1.7852  2.8053 -3.3798
  126OSM    C3F13468   1.687   5.952   7.172  0.5643 -0.0677 -0.2334
  126OSM    H3F13469   1.793   5.979   7.190  0.7868  0.4396 -2.1141
  126OSM    H3G13470   1.667   5.850   7.133 -1.8130  0.7791 -1.3380
  126OSM    C4F13471   1.627   5.946   7.319 -0.3029 -0.1660 -0.1359
  126OSM    H4F13472   1.519   5.927   7.303 -0.2920  0.3716 -0.8880
  126OSM    H4G13473   1.651   6.042   7.370 -0.1528 -0.1168 -0.2993
  126OSM    C5F13474   1.686   5.831   7.395 -0.3906  0.3983 -0.8101
  126OSM    H5F13475   1.794   5.833   7.424 -0.8674  0.7343  0.9953
  126OSM    H5G13476   1.675   5.742   7.330  0.6321 -0.8499  0.7001
  126OSM    C6F13477   1.614   5.804   7.523 -0.1883  0.2703  0.0076
  126OSM    H6F13478   1.511   5.782   7.489 -0.1437  1.1060 -0.6669
  126OSM    H6G13479   1.596   5.895   7.584 -0.1683  1.8486 -2.2812
  126OSM    C7F13480   1.689   5.691   7.600  0.0440 -0.1763  0.3122
  126OSM    H7F13481   1.794   5.721   7.620  0.0399  0.6252 -0.8053
  126OSM    H7G13482   1.683   5.598   7.539 -0.5833  0.6390 -0.8992
  126OSM    C8F13483   1.627   5.678   7.742 -0.4587 -0.6229 -0.2301
  126OSM    H8F13484   1.517   5.684   7.747 -0.3800  1.3818 -0.5587
  126OSM    H8G13485   1.668   5.765   7.798 -0.3535 -0.9003  0.1329
  126OSM    C9F13486   1.674   5.548   7.808 -0.1403  0.2159 -0.6170
  126OSM    H9F13487   1.636   5.455   7.762  1.5889 -1.0117  0.3972
  126OSM   C10F13488   1.757   5.529   7.913  0.0174  0.5380 -0.0142
  126OSM   H10F13489   1.764   5.427   7.955  5.4605  0.6182 -0.3612
  126OSM   C11F13490   1.826   5.638   7.993 -0.4859 -0.4479 -0.8815
  126OSM   H11F13491   1.830   5.736   7.942 -3.4699  0.6238  0.7939
  126OSM   H11G13492   1.933   5.618   8.013 -0.0742  1.2338 -1.3874
  126OSM   C12F13493   1.766   5.669   8.133  0.6451 -0.6290 -0.5084
  126OSM   H12F13494   1.655   5.681   8.130  0.7254  0.0747 -0.6446
  126OSM   H12G13495   1.805   5.769   8.162  0.2832 -1.2222  2.2416
  126OSM   C13F13496   1.804   5.588   8.261 -0.1567  0.0283  0.1919
  126OSM   H13F13497   1.913   5.594   8.278 -0.1927 -1.2245  0.9497
  126OSM   H13G13498   1.773   5.483   8.239 -1.9109  0.2670  1.3615
  126OSM   C14F13499   1.731   5.639   8.386 -0.4725 -0.1488 -0.1870
  126OSM   H14F13500   1.622   5.654   8.366 -0.8052 -1.0546  0.8979
  126OSM   H14G13501   1.766   5.742   8.411 -1.6777 -0.3464  2.5667
  126OSM   C15F13502   1.743   5.549   8.508 -0.3854 -0.3476  0.4082
  126OSM   H15F13503   1.716   5.444   8.484 -0.1493  0.3090 -2.9612
  126OSM   H15G13504   1.675   5.597   8.583 -0.7553  1.5996 -1.1314
  126OSM   C16F13505   1.883   5.545   8.574 -0.1021  0.6041  0.0496
  126OSM   H16F13506   1.918   5.649   8.592  0.9887  0.1171  0.8134
  126OSM   H16G13507   1.958   5.491   8.513 -0.6038 -1.6354  1.3809
  126OSM   C17F13508   1.883   5.462   8.713 -0.2275 -0.8625  0.5373
  126OSM   H17F13509   1.886   5.351   8.702 -1.4964 -1.0721  2.1195
  126OSM   H17G13510   1.789   5.498   8.760  0.5138  0.4085  1.0635
  126OSM   C18F13511   1.994   5.519   8.799  0.5403  0.1193  0.5723
  126OSM   H18F13512   2.100   5.501   8.772  0.8545 -1.7084  2.8644
  126OSM   H18G13513   1.982   5.486   8.905 -1.3016  0.7092  0.5654
  126OSM   H18H13514   1.979   5.629   8.809 -1.7340  0.1304 -2.4335
  127OSM      N13515   6.217   0.893   5.972 -1.4330  0.5494  0.0835
  127OSM    C1513516   6.097   0.835   6.026 -0.5727  0.3128 -0.5228
  127OSM   H15A13517   6.041   0.909   6.082  0.8546  0.6124  0.5519
  127OSM   H15B13518   6.122   0.753   6.092 -0.4854  0.5045 -0.3148
  127OSM   H15C13519   6.027   0.800   5.951  0.2978 -0.0610 -1.1645
  127OSM    C1413520   6.296   0.781   5.909 -0.3825 -0.0435 -0.4908
  127OSM   H14A13521   6.375   0.824   5.849 -0.7745  2.0026  0.4148
  127OSM   H14B13522   6.234   0.716   5.849  0.1394 -0.9400 -0.0689
  127OSM   H14C13523   6.342   0.724   5.988  0.9260  0.5652 -0.7954
  127OSM    C1313524   6.181   0.995   5.869  0.3045 -0.3489  0.5439
  127OSM   H13A13525   6.265   1.058   5.843 -1.0674  0.9521 -0.8700
  127OSM   H13B13526   6.127   1.080   5.908 -1.2065 -0.4145 -1.3164
  127OSM   H13C13527   6.140   0.959   5.775  0.2756 -0.1580  0.4819
  127OSM    C1213528   6.297   0.951   6.092 -0.0982  0.2512 -0.6006
  127OSM   H12A13529   6.227   1.014   6.145  1.9940  0.9728  1.4047
  127OSM   H12B13530   6.378   1.011   6.053  0.6283  0.0302  0.5394
  127OSM    C1113531   6.352   0.854   6.190 -0.3025 -0.3743 -0.4147
  127OSM   H11A13532   6.274   0.777   6.208  1.1194 -1.9477 -0.9078
  127OSM   H11B13533   6.374   0.899   6.289  0.0538 -0.9435 -0.2328
  127OSM      P13534   6.610   0.847   6.167 -0.1862  0.0739 -0.3285
  127OSM    O1313535   6.702   0.741   6.121  0.1144 -0.3663  0.1326
  127OSM    O1413536   6.633   0.983   6.120  0.6164  0.6552 -0.1618
  127OSM    O1113537   6.627   0.850   6.327  0.1009  0.1877 -0.2639
  127OSM    O1213538   6.470   0.793   6.144  0.0760  0.8381 -0.0769
  127OSM    C1S13539   6.574   0.736   6.404  0.4916  0.6180  0.3685
  127OSM    H1S13540   6.596   0.638   6.358  1.0467  0.6115  0.6317
  127OSM    H1T13541   6.463   0.741   6.401  0.3958 -1.8828 -2.1453
  127OSM     NF13542   6.607   0.605   6.620 -0.1624  0.2260 -0.2344
  127OSM    HNF13543   6.540   0.610   6.693 -1.4523  0.1583 -1.3750
  127OSM    C2S13544   6.628   0.738   6.558  0.5471  0.5738  0.4513
  127OSM    H2S13545   6.737   0.754   6.542  0.4287  2.7033  1.5292
  127OSM    C3S13546   6.556   0.849   6.635  0.5523 -0.6075  1.0766
  127OSM    H3S13547   6.449   0.820   6.646  0.2588 -0.1763 -0.4482
  127OSM     O313548   6.551   0.977   6.561  0.5978  0.2023 -0.3346
  127OSM    HO313549   6.572   0.942   6.474 -1.5186 -0.3723 -0.6422
  127OSM    C4S13550   6.609   0.874   6.774  0.2576 -0.4077 -0.4807
  127OSM    H4S13551   6.689   0.949   6.770  0.3045 -0.4807 -1.0616
  127OSM    C5S13552   6.571   0.824   6.889  0.0328 -0.0458 -0.4473
  127OSM    H5S13553   6.495   0.745   6.898 -1.4741  1.5832  1.5761
  127OSM    C6S13554   6.646   0.854   7.013 -0.7964  0.0552 -0.6449
  127OSM    H6S13555   6.733   0.921   6.996 -1.2896  1.5119  2.2221
  127OSM    H6T13556   6.694   0.763   7.056  2.4390  1.6850 -0.6361
  127OSM    C7S13557   6.567   0.917   7.131 -0.7171  0.2330 -0.1720
  127OSM    H7S13558   6.483   0.852   7.161 -0.6310 -0.5049 -1.4886
  127OSM    H7T13559   6.524   1.015   7.099 -3.6951 -0.5117  1.3644
  127OSM    C8S13560   6.656   0.947   7.251  0.4657  0.3990  0.4656
  127OSM    H8S13561   6.736   1.021   7.229  0.7533 -0.0792 -0.1222
  127OSM    H8T13562   6.711   0.852   7.270 -0.5139 -1.0713 -3.5134
  127OSM    C9S13563   6.586   0.996   7.382  0.1393  0.0695  0.0410
  127OSM    H9S13564   6.489   0.944   7.399 -1.4303  3.6142  2.4615
  127OSM    H9T13565   6.564   1.104   7.369  0.5949  0.0130 -1.2711
  127OSM   C10S13566   6.681   0.973   7.495 -0.1547  0.0081  0.7258
  127OSM   H10S13567   6.777   1.028   7.490 -0.1989  0.2677  2.4189
  127OSM   H10T13568   6.713   0.867   7.488 -0.6442 -0.1183  0.3716
  127OSM   C11S13569   6.611   0.982   7.635  0.2779 -0.7097  0.1583
  127OSM   H11S13570   6.525   0.912   7.634  0.9027 -1.4725 -0.4938
  127OSM   H11T13571   6.566   1.082   7.653  0.1628 -0.5160 -1.1256
  127OSM   C12S13572   6.705   0.936   7.743 -0.2107  0.3129  0.3693
  127OSM   H12S13573   6.782   1.015   7.755 -0.8063  0.9339  0.1403
  127OSM   H12T13574   6.752   0.841   7.709  0.7890  0.8896  0.1193
  127OSM   C13S13575   6.637   0.915   7.888  0.4650 -0.0966  0.4261
  127OSM   H13S13576   6.535   0.879   7.861 -0.1194  0.1346  2.3111
  127OSM   H13T13577   6.629   1.017   7.931 -0.8228  0.9096 -2.1032
  127OSM   C14S13578   6.702   0.812   7.980 -0.2063 -0.7987  0.8983
  127OSM   H14S13579   6.802   0.853   8.005  1.2424 -2.3282 -2.0335
  127OSM   H14T13580   6.726   0.721   7.920  0.5774  0.1259 -0.2269
  127OSM   C15S13581   6.617   0.790   8.100 -0.6338  0.3092 -1.1776
  127OSM   H15S13582   6.512   0.781   8.067 -2.3950  0.8627  3.8983
  127OSM   H15T13583   6.636   0.877   8.166  0.8860 -1.3643  0.6667
  127OSM   C16S13584   6.658   0.659   8.172  0.3531 -0.6880 -0.0756
  127OSM   H16S13585   6.665   0.688   8.279 -2.3994 -1.7678  0.4444
  127OSM   H16T13586   6.761   0.630   8.145  0.0255 -2.2818  0.3408
  127OSM   C17S13587   6.565   0.539   8.150 -0.2743  0.8510 -0.0458
  127OSM   H17S13588   6.554   0.527   8.040 -3.5441 -0.8817  0.4070
  127OSM   H17T13589   6.460   0.560   8.179 -0.1958 -0.8649  1.5871
  127OSM   C18S13590   6.609   0.407   8.221 -0.3812  0.0510 -0.3307
  127OSM   H18S13591   6.709   0.372   8.187 -0.6146 -0.8987 -0.0491
  127OSM   H18T13592   6.539   0.326   8.193  0.3553 -0.2967 -1.2048
  127OSM   H18U13593   6.593   0.424   8.330  0.7711  1.1921 -0.3250
  127OSM    C1F13594   6.663   0.486   6.578  1.3609 -0.1631  0.5751
  127OSM     OF13595   6.728   0.479   6.477  0.4198  0.1416  0.4963
  127OSM    C2F13596   6.650   0.370   6.665  0.2370  0.1642  0.3535
  127OSM    H2F13597   6.662   0.279   6.602  0.8159 -0.6194  1.5683
  127OSM    H2G13598   6.548   0.374   6.709 -0.0016 -0.5094 -0.1318
  127OSM    C3F13599   6.748   0.363   6.777 -0.0233 -0.2795 -0.2656
  127OSM    H3F13600   6.753   0.452   6.843 -1.3090 -0.2254 -0.2337
  127OSM    H3G13601   6.855   0.357   6.748 -0.1260  0.0477 -0.7220
  127OSM    C4F13602   6.711   0.249   6.880 -0.1294 -0.3879  0.5096
  127OSM    H4F13603   6.736   0.148   6.841 -1.7057 -0.2443 -0.8979
  127OSM    H4G13604   6.603   0.246   6.904  0.4772 -2.1556  3.2782
  127OSM    C5F13605   6.790   0.281   7.003 -0.2222 -0.1965  0.0949
  127OSM    H5F13606   6.742   0.372   7.045 -1.2993 -1.0295  0.6907
  127OSM    H5G13607   6.898   0.291   6.978 -0.1435 -1.5545 -0.1447
  127OSM    C6F13608   6.782   0.166   7.103 -0.2741  0.3722 -0.0956
  127OSM    H6F13609   6.849   0.191   7.188  0.9031 -0.3777 -0.7896
  127OSM    H6G13610   6.810   0.066   7.063  0.3954  0.4064  0.2812
  127OSM    C7F13611   6.640   0.160   7.173  0.0460 -0.0029  0.0509
  127OSM    H7F13612   6.566   0.134   7.093 -0.1035 -0.0989  0.2207
  127OSM    H7G13613   6.606   0.261   7.204 -1.0585 -0.6055  0.8245
  127OSM    C8F13614   6.621   0.071   7.296 -0.3672  0.1428  0.0717
  127OSM    H8F13615   6.517   0.060   7.334 -0.3426 -0.8736 -0.1433
  127OSM    H8G13616   6.671   0.109   7.388 -0.2778 -2.1174  0.9661
  127OSM    C9F13617   6.666  -0.069   7.280  0.1523  0.0143  0.0432
  127OSM    H9F13618   6.640  -0.118   7.186  1.7261 -0.1779 -0.2934
  127OSM   C10F13619   6.719  -0.153   7.377  0.2358  0.3571 -0.2020
  127OSM   H10F13620   6.749  -0.254   7.344 -0.9683  0.0902 -0.5072
  127OSM   C11F13621   6.749  -0.121   7.525  0.1298  0.4850  0.1820
  127OSM   H11F13622   6.695  -0.027   7.552 -0.8815  0.0777 -0.3925
  127OSM   H11G13623   6.858  -0.105   7.541  0.3815 -2.2148  1.3621
  127OSM   C12F13624   6.691  -0.225   7.626  0.0885  0.1564 -0.0018
  127OSM   H12F13625   6.750  -0.318   7.611  0.1033 -0.0179  1.0937
  127OSM   H12G13626   6.584  -0.244   7.600  0.7498 -1.6767 -1.4805
  127OSM   C13F13627   6.707  -0.192   7.779  0.9295 -0.5047 -0.0785
  127OSM   H13F13628   6.653  -0.098   7.804  3.4059  0.3072  2.4374
  127OSM   H13G13629   6.815  -0.172   7.794  0.4989 -0.4900  3.6170
  127OSM   C14F13630   6.669  -0.313   7.864 -0.6165  0.0275  0.4168
  127OSM   H14F13631   6.738  -0.397   7.842  0.0512  0.7778 -0.3701
  127OSM   H14G13632   6.570  -0.344   7.824  0.5549 -2.0312 -0.9673
  127OSM   C15F13633   6.660  -0.278   8.017 -0.7842 -0.1818  0.1584
  127OSM   H15F13634   6.760  -0.239   8.047 -0.3248 -0.3429 -1.1107
  127OSM   H15G13635   6.641  -0.377   8.063  1.8206 -1.2168 -0.8696
  127OSM   C16F13636   6.535  -0.193   8.041 -0.0393 -0.1319 -0.3882
  127OSM   H16F13637   6.442  -0.246   8.012 -0.6826 -1.0394  3.0975
  127OSM   H16G13638   6.545  -0.105   7.974 -0.4095  0.3710  0.2129
  127OSM   C17F13639   6.524  -0.138   8.179 -0.0478 -0.2787  0.9986
  127OSM   H17F13640   6.542  -0.226   8.244  1.5691 -0.7885 -0.0895
  127OSM   H17G13641   6.420  -0.099   8.184 -0.5029 -1.0659 -1.4400
  127OSM   C18F13642   6.623  -0.026   8.212  0.6332 -0.0256 -0.3663
  127OSM   H18F13643   6.724  -0.070   8.197 -0.5874 -3.4425  1.0221
  127OSM   H18G13644   6.620   0.025   8.310 -0.7373  0.3900 -0.6121
  127OSM   H18H13645   6.600   0.066   8.153  0.3690 -0.0272 -0.2666
  128OSM      N13646   0.117   3.850   5.819 -0.2821 -0.0246  0.4729
  128OSM    C1513647   0.106   3.998   5.796 -0.3371 -0.4452 -0.2102
  128OSM   H15A13648   0.196   4.057   5.811 -0.2911 -0.9278  1.4189
  128OSM   H15B13649   0.039   4.040   5.870 -0.6447 -1.6730  0.2077
  128OSM   H15C13650   0.058   4.017   5.701  0.5130 -1.6403 -0.8935
  128OSM    C1413651  -0.018   3.794   5.785  0.4866  0.1723  0.6962
  128OSM   H14A13652  -0.098   3.856   5.824 -0.2371  0.0003 -0.4854
  128OSM   H14B13653  -0.046   3.693   5.811 -0.1856  0.7707  2.3440
  128OSM   H14C13654  -0.036   3.801   5.678 -1.2868  0.3821  0.9928
  128OSM    C1313655   0.215   3.788   5.726  0.1450  0.1822 -0.1026
  128OSM   H13A13656   0.199   3.824   5.625 -0.4110  2.2100  0.6783
  128OSM   H13B13657   0.214   3.680   5.726  0.4693  0.1797 -0.4624
  128OSM   H13C13658   0.308   3.831   5.759 -0.6042  0.6984  1.3941
  128OSM    C1213659   0.159   3.810   5.962  0.0080 -0.0738 -0.3863
  128OSM   H12A13660   0.253   3.858   5.984  0.7708 -0.5366 -2.5282
  128OSM   H12B13661   0.169   3.702   5.965 -0.3930 -0.0899  0.4947
  128OSM    C1113662   0.050   3.830   6.067 -0.2166  0.0251  0.5174
  128OSM   H11A13663   0.086   3.784   6.162  1.0371 -0.9229 -0.3911
  128OSM   H11B13664  -0.038   3.767   6.045  0.3126 -1.0068  1.3027
  128OSM      P13665   0.125   4.064   6.146 -0.1618 -0.4905  0.2022
  128OSM    O1313666   0.253   4.034   6.073 -0.2096  0.3652  0.3875
  128OSM    O1413667   0.076   4.204   6.145  0.2537  0.2323 -0.2393
  128OSM    O1113668   0.124   4.017   6.296  0.8480  0.4151  0.1239
  128OSM    O1213669   0.014   3.968   6.084  0.7114  0.5652  0.2067
  128OSM    C1S13670   0.009   3.982   6.377  0.2009 -0.0133  0.3507
  128OSM    H1S13671  -0.010   3.874   6.357 -0.2248 -0.1842  1.6470
  128OSM    H1T13672  -0.081   4.043   6.352  0.1552 -0.2341 -0.0343
  128OSM     NF13673  -0.070   3.921   6.611  0.1271  0.4223 -0.0202
  128OSM    HNF13674  -0.148   3.978   6.636 -0.1983 -0.0269 -0.0085
  128OSM    C2S13675   0.038   3.985   6.535 -0.1023 -0.1386 -0.8037
  128OSM    H2S13676   0.133   3.928   6.539  0.0830 -0.2273 -4.8883
  128OSM    C3S13677   0.068   4.129   6.571  0.3053  0.2229  0.1836
  128OSM    H3S13678  -0.018   4.191   6.539  2.7921  2.9545 -1.4634
  128OSM     O313679   0.193   4.178   6.510  0.0607 -0.1814 -0.1335
  128OSM    HO313680   0.211   4.107   6.448  0.7771 -0.7071  0.6708
  128OSM    C4S13681   0.085   4.136   6.722  0.0631  0.2533  0.5789
  128OSM    H4S13682   0.191   4.129   6.751 -0.0082 -0.2521  0.7272
  128OSM    C5S13683   0.002   4.162   6.815  0.2959  0.5328  0.1451
  128OSM    H5S13684  -0.101   4.182   6.781  1.2555  1.7390 -2.1466
  128OSM    C6S13685   0.024   4.186   6.968 -0.2056 -0.4569  0.0030
  128OSM    H6S13686   0.114   4.133   7.005 -0.7344 -0.1710  1.7222
  128OSM    H6T13687  -0.066   4.146   7.019 -1.4289  1.0165 -0.9349
  128OSM    C7S13688   0.028   4.334   7.018  0.1213  0.4925 -0.0298
  128OSM    H7S13689  -0.059   4.385   6.971 -1.7771 -1.6213  1.0367
  128OSM    H7T13690   0.118   4.385   6.978  1.5734  0.3257  2.8561
  128OSM    C8S13691   0.006   4.349   7.174 -0.3974  0.6296  1.2543
  128OSM    H8S13692   0.063   4.268   7.225 -0.2432 -1.2373 -1.7813
  128OSM    H8T13693  -0.101   4.342   7.202 -1.3556  0.9675 -2.1508
  128OSM    C9S13694   0.069   4.475   7.235  0.3684 -0.7312  0.3459
  128OSM    H9S13695   0.012   4.567   7.209 -0.0400 -0.6726  1.4133
  128OSM    H9T13696   0.167   4.475   7.183  1.0965 -0.1565  1.7149
  128OSM   C10S13697   0.091   4.473   7.384 -0.7556 -0.1779 -0.0921
  128OSM   H10S13698   0.142   4.565   7.420 -0.6975 -0.0275 -0.5517
  128OSM   H10T13699   0.156   4.385   7.404  0.4409  1.1201  1.8755
  128OSM   C11S13700  -0.027   4.456   7.482 -0.1394 -0.0261 -0.3270
  128OSM   H11S13701  -0.079   4.360   7.462  1.7648 -0.6476 -2.5512
  128OSM   H11T13702  -0.113   4.524   7.466  0.3250  0.9213  1.1307
  128OSM   C12S13703   0.007   4.450   7.637 -0.4157  0.1844 -0.9303
  128OSM   H12S13704   0.038   4.550   7.674 -0.1824 -0.4496  0.6136
  128OSM   H12T13705   0.087   4.380   7.668 -1.5505  0.1065  2.0193
  128OSM   C13S13706  -0.119   4.409   7.719  0.5163 -0.3186  0.2711
  128OSM   H13S13707  -0.166   4.314   7.687 -1.2691  0.1287  1.4525
  128OSM   H13T13708  -0.200   4.486   7.722 -0.2497 -1.1305  0.7530
  128OSM   C14S13709  -0.080   4.406   7.871  0.8707 -0.4723  0.6293
  128OSM   H14S13710  -0.027   4.500   7.896 -2.4182  1.3968  0.7544
  128OSM   H14T13711  -0.007   4.323   7.888  0.3857 -0.9570  0.3813
  128OSM   C15S13712  -0.209   4.377   7.950 -0.2830  0.1954  0.0523
  128OSM   H15S13713  -0.265   4.295   7.899  1.0458 -0.8007  0.1676
  128OSM   H15T13714  -0.275   4.463   7.971 -1.4263 -1.0650  1.7672
  128OSM   C16S13715  -0.153   4.311   8.082 -0.6268 -0.4017 -0.2239
  128OSM   H16S13716  -0.103   4.218   8.048 -0.1069 -0.1347 -0.1854
  128OSM   H16T13717  -0.243   4.285   8.143 -1.2009  0.9650 -0.4494
  128OSM   C17S13718  -0.046   4.390   8.170 -0.1114  0.0407  0.4834
  128OSM   H17S13719  -0.087   4.483   8.216  0.4634 -1.0215  3.2468
  128OSM   H17T13720   0.037   4.416   8.102 -0.3578  1.3720  0.6797
  128OSM   C18S13721  -0.004   4.309   8.293 -0.5055 -0.1930 -0.6134
  128OSM   H18S13722   0.023   4.204   8.268  2.3762  0.4748 -0.4804
  128OSM   H18T13723  -0.083   4.308   8.371  3.1633 -0.1460  3.3075
  128OSM   H18U13724   0.088   4.351   8.338 -1.2020  0.4541  0.2007
  128OSM    C1F13725  -0.082   3.785   6.617 -0.0468 -0.5875  0.4941
  128OSM     OF13726   0.014   3.715   6.589 -0.2916 -0.1277  0.5353
  128OSM    C2F13727  -0.219   3.734   6.657 -0.4973 -0.1829  0.2148
  128OSM    H2F13728  -0.256   3.661   6.582  0.6326 -0.7339  0.1738
  128OSM    H2G13729  -0.287   3.822   6.654  0.0486  0.4316  3.6540
  128OSM    C3F13730  -0.203   3.670   6.799 -0.0848 -0.1026 -0.8608
  128OSM    H3F13731  -0.133   3.583   6.803  1.5365  1.2678  2.0221
  128OSM    H3G13732  -0.306   3.634   6.819 -0.1011  0.5371  0.2359
  128OSM    C4F13733  -0.159   3.769   6.908  0.4291  0.5553 -0.5066
  128OSM    H4F13734  -0.210   3.867   6.898  1.3330  1.1934  1.0594
  128OSM    H4G13735  -0.050   3.791   6.907  0.5155  0.4352  2.1783
  128OSM    C5F13736  -0.190   3.719   7.052 -0.6455 -0.3231 -0.1910
  128OSM    H5F13737  -0.159   3.613   7.060  0.1409 -0.1250 -0.5057
  128OSM    H5G13738  -0.301   3.729   7.056 -0.4958  0.9287  1.5661
  128OSM    C6F13739  -0.116   3.810   7.159  0.7162 -0.3060 -0.1168
  128OSM    H6F13740  -0.125   3.919   7.136 -2.0801 -0.3771  0.4920
  128OSM    H6G13741  -0.013   3.770   7.158 -0.1833 -2.6729 -1.5357
  128OSM    C7F13742  -0.186   3.811   7.296 -0.8040  0.7240  0.3675
  128OSM    H7F13743  -0.214   3.704   7.308 -0.4736  0.6047  0.0921
  128OSM    H7G13744  -0.277   3.873   7.285 -1.2544 -0.1408 -1.0717
  128OSM    C8F13745  -0.091   3.862   7.399 -0.7161 -0.0127  0.0645
  128OSM    H8F13746   0.003   3.804   7.396 -0.4776  0.3768 -0.0425
  128OSM    H8G13747  -0.153   3.848   7.491 -2.0839  2.0529 -0.4951
  128OSM    C9F13748  -0.039   4.005   7.395  0.2385 -0.2232  0.3704
  128OSM    H9F13749  -0.033   4.055   7.297  0.3939 -0.5424  0.2182
  128OSM   C10F13750  -0.002   4.084   7.499 -0.9717 -0.2390  0.3275
  128OSM   H10F13751   0.040   4.184   7.480  0.8407 -1.3113 -1.5874
  128OSM   C11F13752   0.001   4.040   7.644 -0.3223 -0.3044 -0.2497
  128OSM   H11F13753  -0.047   3.940   7.653  0.6169 -0.8168 -0.8437
  128OSM   H11G13754  -0.063   4.115   7.696  1.1724  0.6358  0.2352
  128OSM   C12F13755   0.127   4.035   7.719  0.8474  0.9297 -0.0327
  128OSM   H12F13756   0.191   4.124   7.701  2.0965  0.2358  0.8962
  128OSM   H12G13757   0.197   3.962   7.673  1.2765  1.0354  0.4457
  128OSM   C13F13758   0.101   4.018   7.865 -0.1056 -0.2076  0.6680
  128OSM   H13F13759   0.038   3.932   7.895  0.8080 -0.8368  0.7911
  128OSM   H13G13760   0.038   4.103   7.899 -1.8664 -1.6092  0.9727
  128OSM   C14F13761   0.233   4.015   7.938 -0.4631  0.1158 -0.6050
  128OSM   H14F13762   0.307   4.094   7.915  1.0925 -0.5612  1.8237
  128OSM   H14G13763   0.274   3.918   7.903  2.1657  0.8022  0.4311
  128OSM   C15F13764   0.206   4.030   8.091  0.2414 -0.3144 -0.5872
  128OSM   H15F13765   0.108   3.991   8.126  0.4500  2.6152  3.6743
  128OSM   H15G13766   0.196   4.140   8.107  0.5043 -0.2766 -0.6719
  128OSM   C16F13767   0.323   3.965   8.171 -0.1143 -0.4931 -0.0462
  128OSM   H16F13768   0.408   4.019   8.125  0.2431  0.4217  1.6170
  128OSM   H16G13769   0.342   3.856   8.163  0.5652 -0.4991  1.3783
  128OSM   C17F13770   0.308   3.980   8.324 -0.3888 -0.3088 -0.6889
  128OSM   H17F13771   0.284   4.083   8.357  1.4405 -0.4929  1.3999
  128OSM   H17G13772   0.408   3.958   8.367 -0.0138 -0.4284 -1.6098
  128OSM   C18F13773   0.203   3.877   8.385 -0.5441 -0.5173 -0.0360
  128OSM   H18F13774   0.101   3.918   8.366 -0.4887  0.7238  2.1508
  128OSM   H18G13775   0.218   3.866   8.495 -0.9396 -0.8621 -0.0150
  128OSM   H18H13776   0.204   3.771   8.352 -1.5375 -0.6832  0.4509
  129OSM      N13777   3.426   6.790   5.924 -0.2173 -0.0166  0.0481
  129OSM    C1513778   3.290   6.722   5.939  0.1603  0.1384  0.2818
  129OSM   H15A13779   3.240   6.708   5.844  0.8864  4.3384 -0.8431
  129OSM   H15B13780   3.229   6.787   6.000 -0.5670  0.8272 -1.1347
  129OSM   H15C13781   3.301   6.625   5.984  2.9329  0.1636 -0.2209
  129OSM    C1413782   3.497   6.713   5.821 -0.4394  0.3754  0.0783
  129OSM   H14A13783   3.496   6.610   5.854  2.0519 -0.4626 -2.2399
  129OSM   H14B13784   3.599   6.746   5.808 -0.6727  0.5452 -1.4048
  129OSM   H14C13785   3.448   6.720   5.725  1.1235  4.1030 -0.5616
  129OSM    C1313786   3.412   6.929   5.869 -0.0663  0.4261  0.5632
  129OSM   H13A13787   3.398   7.000   5.949 -3.1958 -0.1073  0.5774
  129OSM   H13B13788   3.331   6.936   5.798 -0.0833 -1.5985  0.3511
  129OSM   H13C13789   3.498   6.958   5.811  0.7745 -0.2259  1.4565
  129OSM    C1213790   3.505   6.780   6.053  0.1619 -0.6312  0.1485
  129OSM   H12A13791   3.518   6.674   6.065 -0.9961 -0.8417 -0.4191
  129OSM   H12B13792   3.457   6.819   6.142  0.1783  1.5064 -0.7425
  129OSM    C1113793   3.654   6.832   6.060 -0.8699 -0.6449 -0.4115
  129OSM   H11A13794   3.666   6.847   6.169 -0.9710  1.6841 -0.6806
  129OSM   H11B13795   3.664   6.935   6.018 -0.6096 -1.3706 -2.1985
  129OSM      P13796   3.808   6.622   6.058  0.0160 -0.4375  0.2637
  129OSM    O1313797   3.707   6.514   6.083  0.3902 -0.0171  0.1080
  129OSM    O1413798   3.922   6.582   5.972  0.3324  0.8667 -0.4182
  129OSM    O1113799   3.849   6.684   6.201  0.2433  0.4648  0.2967
  129OSM    O1213800   3.746   6.751   5.989  0.0818 -0.2883  0.0627
  129OSM    C1S13801   3.947   6.614   6.286 -0.3895  0.3114  0.0900
  129OSM    H1S13802   4.050   6.631   6.250 -0.3984 -1.8557 -1.1025
  129OSM    H1T13803   3.934   6.503   6.284 -1.4109  0.3796  2.0091
  129OSM     NF13804   4.034   6.585   6.510 -0.5225 -0.0064  0.7102
  129OSM    HNF13805   3.999   6.498   6.546  0.4617 -0.5974  0.2612
  129OSM    C2S13806   3.941   6.661   6.432 -0.4296 -0.0624 -0.3351
  129OSM    H2S13807   3.974   6.767   6.438 -3.1377  0.9487 -2.2793
  129OSM    C3S13808   3.795   6.654   6.482  0.6390 -0.0623  0.1688
  129OSM    H3S13809   3.745   6.556   6.471  0.7078 -0.2893  1.7350
  129OSM     O313810   3.706   6.739   6.409  0.4863 -0.2081 -0.0466
  129OSM    HO313811   3.755   6.754   6.327 -0.7748  0.3536 -0.7047
  129OSM    C4S13812   3.805   6.702   6.625  0.3763 -0.0380 -0.1965
  129OSM    H4S13813   3.785   6.809   6.638  1.8523  0.2837 -0.4645
  129OSM    C5S13814   3.821   6.616   6.724  0.7087  0.1470 -0.2200
  129OSM    H5S13815   3.827   6.509   6.700 -1.5604  0.3018 -1.6618
  129OSM    C6S13816   3.836   6.640   6.869  0.2851 -0.0117 -0.3100
  129OSM    H6S13817   3.779   6.571   6.934 -0.9779  0.5002 -0.8547
  129OSM    H6T13818   3.795   6.740   6.894  1.3649  0.6450 -1.0821
  129OSM    C7S13819   3.984   6.618   6.903 -0.0452  0.3054 -0.1051
  129OSM    H7S13820   4.041   6.700   6.854 -0.7590  1.8153  1.5288
  129OSM    H7T13821   4.010   6.517   6.866  2.1942  1.1207 -0.8719
  129OSM    C8S13822   4.015   6.625   7.059  0.3106  0.9572 -0.2389
  129OSM    H8S13823   3.946   6.553   7.107  0.5297 -1.4457 -3.3346
  129OSM    H8T13824   3.990   6.725   7.099 -0.4544  0.2123  1.1840
  129OSM    C9S13825   4.157   6.591   7.100 -0.4458  0.5408 -0.5841
  129OSM    H9S13826   4.230   6.673   7.082  1.6228 -1.2869 -0.7255
  129OSM    H9T13827   4.187   6.500   7.043  0.6369 -1.2464  2.7039
  129OSM   C10S13828   4.173   6.543   7.248  0.5741 -0.4307  0.2031
  129OSM   H10S13829   4.276   6.505   7.265  1.0642  1.5227  1.8551
  129OSM   H10T13830   4.100   6.460   7.252 -1.6516  1.5156  1.0898
  129OSM   C11S13831   4.144   6.646   7.353  0.1863  0.2748 -0.4043
  129OSM   H11S13832   4.042   6.683   7.330  0.8146  1.1032 -1.9679
  129OSM   H11T13833   4.216   6.731   7.348  1.1180 -0.5201 -0.7691
  129OSM   C12S13834   4.148   6.591   7.494  0.1763 -0.4412  0.3939
  129OSM   H12S13835   4.093   6.495   7.493  3.6500 -2.5371  1.8542
  129OSM   H12T13836   4.114   6.665   7.570  1.3691 -1.4728  1.9581
  129OSM   C13S13837   4.299   6.566   7.539  0.0757  0.6253 -0.4654
  129OSM   H13S13838   4.360   6.659   7.531 -0.7000  1.2669  1.0433
  129OSM   H13T13839   4.347   6.487   7.477  1.0810 -0.8008  2.0674
  129OSM   C14S13840   4.313   6.520   7.687 -0.3365 -0.3899 -1.0236
  129OSM   H14S13841   4.419   6.491   7.706 -1.2746 -2.0177  2.0275
  129OSM   H14T13842   4.270   6.422   7.715 -0.8836  0.1581  0.1307
  129OSM   C15S13843   4.273   6.636   7.788  0.4351 -0.4494 -0.1124
  129OSM   H15S13844   4.162   6.641   7.793  0.5218  2.5249 -0.5299
  129OSM   H15T13845   4.299   6.740   7.760 -2.4542  0.2696 -0.3173
  129OSM   C16S13846   4.334   6.613   7.923 -0.5975  0.4531 -0.4237
  129OSM   H16S13847   4.440   6.583   7.913 -0.6325 -0.7833  2.3206
  129OSM   H16T13848   4.277   6.542   7.987  0.5872 -0.3781 -0.2728
  129OSM   C17S13849   4.350   6.748   8.004  0.2591 -0.2077 -0.5050
  129OSM   H17S13850   4.380   6.715   8.106  1.8609  1.6261 -0.3442
  129OSM   H17T13851   4.261   6.813   8.019 -0.0527 -0.6590 -0.3939
  129OSM   C18S13852   4.468   6.830   7.960  0.1131  0.1095  0.2609
  129OSM   H18S13853   4.447   6.897   7.875  1.3413 -0.1375 -0.2536
  129OSM   H18T13854   4.550   6.763   7.925  0.8988  1.3511 -0.2944
  129OSM   H18U13855   4.513   6.893   8.039  1.1874 -0.9307  0.4940
  129OSM    C1F13856   4.167   6.600   6.504 -0.5134  0.2209 -1.0588
  129OSM     OF13857   4.219   6.698   6.446  0.5798  0.9462 -0.3261
  129OSM    C2F13858   4.249   6.488   6.568  0.8521 -0.1211 -0.2220
  129OSM    H2F13859   4.270   6.413   6.488  1.2379 -2.0930  1.6992
  129OSM    H2G13860   4.188   6.443   6.649  0.1495  2.5827  0.8057
  129OSM    C3F13861   4.384   6.541   6.614  0.1375 -0.1281  0.7343
  129OSM    H3F13862   4.374   6.617   6.694  0.7085  0.5168  0.2033
  129OSM    H3G13863   4.438   6.586   6.528  1.9042 -1.7952  0.9360
  129OSM    C4F13864   4.476   6.440   6.680 -0.0524  0.4847  0.3930
  129OSM    H4F13865   4.577   6.485   6.694  0.2245  0.0782 -0.3025
  129OSM    H4G13866   4.466   6.348   6.618 -1.7564  0.2853  0.9507
  129OSM    C5F13867   4.427   6.409   6.818 -0.8730  0.4241 -0.0813
  129OSM    H5F13868   4.320   6.377   6.814 -0.4507 -0.9412 -0.5522
  129OSM    H5G13869   4.426   6.501   6.881  1.0357  0.2593  0.2116
  129OSM    C6F13870   4.505   6.306   6.899  0.6025  0.2782 -0.2739
  129OSM    H6F13871   4.606   6.345   6.924  0.9467 -0.4543 -0.5026
  129OSM    H6G13872   4.505   6.222   6.826 -1.9020 -0.8082  0.9022
  129OSM    C7F13873   4.427   6.247   7.029 -0.2142  0.1844 -0.4584
  129OSM    H7F13874   4.324   6.218   6.999 -0.5228  0.0689  0.7109
  129OSM    H7G13875   4.427   6.321   7.112  0.9683  1.1162 -1.2727
  129OSM    C8F13876   4.487   6.120   7.086  0.0636  0.5822 -0.8439
  129OSM    H8F13877   4.489   6.033   7.016  0.8736 -0.5109  0.5134
  129OSM    H8G13878   4.427   6.085   7.172 -0.5828  1.1895 -1.0430
  129OSM    C9F13879   4.635   6.144   7.111 -0.4526  0.0416 -0.5598
  129OSM    H9F13880   4.698   6.170   7.025 -0.9661 -1.3671 -1.3829
  129OSM   C10F13881   4.694   6.137   7.234 -0.3847 -0.0462  0.4628
  129OSM   H10F13882   4.803   6.155   7.233  0.1847 -3.2160  0.3179
  129OSM   C11F13883   4.626   6.109   7.369 -0.2816 -0.1389 -1.0313
  129OSM   H11F13884   4.668   6.014   7.410  2.0159  0.5994 -1.5827
  129OSM   H11G13885   4.517   6.101   7.351 -0.1192  0.0792 -2.1132
  129OSM   C12F13886   4.649   6.212   7.484  0.2911  0.2234  0.1908
  129OSM   H12F13887   4.611   6.312   7.454 -1.4300 -0.9109 -1.5106
  129OSM   H12G13888   4.760   6.217   7.488  0.3350  0.1894 -0.8017
  129OSM   C13F13889   4.602   6.169   7.627 -0.0454  0.3739  0.4713
  129OSM   H13F13890   4.621   6.061   7.648  0.5974  0.2261 -0.8487
  129OSM   H13G13891   4.493   6.189   7.633  0.1374  0.8997  2.4600
  129OSM   C14F13892   4.662   6.259   7.735 -0.2229 -0.8544 -0.1493
  129OSM   H14F13893   4.609   6.357   7.741  0.1745 -0.7223  1.4646
  129OSM   H14G13894   4.770   6.276   7.714 -1.4669  0.4219 -6.4005
  129OSM   C15F13895   4.667   6.194   7.873 -0.1905  0.0269 -0.1750
  129OSM   H15F13896   4.563   6.172   7.905 -0.3614  1.3219  0.1885
  129OSM   H15G13897   4.701   6.258   7.957 -0.5490  0.3858 -0.2989
  129OSM   C16F13898   4.760   6.065   7.887  0.3956 -0.6033 -0.1918
  129OSM   H16F13899   4.867   6.088   7.868  0.9057 -1.7464  1.1990
  129OSM   H16G13900   4.729   5.995   7.806  0.8555 -0.6609 -0.3218
  129OSM   C17F13901   4.744   5.996   8.014 -0.4609  0.1703  0.3704
  129OSM   H17F13902   4.641   5.955   8.026 -0.4189 -0.0077  0.1171
  129OSM   H17G13903   4.758   6.069   8.097  2.1144 -0.1911  0.2924
  129OSM   C18F13904   4.846   5.885   8.012  0.1660  0.7808  0.1823
  129OSM   H18F13905   4.818   5.819   7.927  1.8912 -1.9098  1.6171
  129OSM   H18G13906   4.842   5.817   8.101  2.0912 -0.9325 -1.0055
  129OSM   H18H13907   4.950   5.922   8.002  0.9964 -1.3414  0.5381
  130OSM      N13908   5.957   2.219   6.094  0.1720  0.1326 -0.6541
  130OSM    C1513909   5.992   2.309   5.978 -1.1742 -0.0945  0.5983
  130OSM   H15A13910   5.895   2.341   5.941 -0.8997  1.7916  1.4343
  130OSM   H15B13911   6.047   2.265   5.896 -1.3650 -0.1318  0.4904
  130OSM   H15C13912   6.039   2.401   6.010 -2.5478  1.5298 -1.8849
  130OSM    C1413913   5.906   2.088   6.046  0.0649  0.6963  0.8007
  130OSM   H14A13914   5.810   2.102   5.998  0.8459 -2.6403 -1.9602
  130OSM   H14B13915   5.889   2.025   6.132  1.1873 -0.2141  0.3627
  130OSM   H14C13916   5.980   2.047   5.978 -1.4021  1.1838 -1.1580
  130OSM    C1313917   6.083   2.204   6.180  0.8779  0.4796  0.1660
  130OSM   H13A13918   6.066   2.159   6.276 -2.1704 -0.6818 -0.8416
  130OSM   H13B13919   6.123   2.301   6.205  2.0137  0.1857 -0.4732
  130OSM   H13C13920   6.156   2.143   6.128 -0.4440  1.2255 -2.7018
  130OSM    C1213921   5.844   2.289   6.168 -0.4300  0.3939 -0.3321
  130OSM   H12A13922   5.802   2.217   6.237 -0.7221  2.5984  1.8832
  130OSM   H12B13923   5.760   2.303   6.102 -2.2480 -1.2138  1.5444
  130OSM    C1113924   5.874   2.429   6.249 -0.5610 -0.3751  0.5895
  130OSM   H11A13925   5.969   2.427   6.306 -2.1766 -1.5135  3.3079
  130OSM   H11B13926   5.798   2.438   6.329  1.5381  1.0744  2.4821
  130OSM      P13927   5.724   2.596   6.120  0.4878 -0.2688  0.0085
  130OSM    O1313928   5.736   2.710   6.026 -0.5272 -0.0945  0.1782
  130OSM    O1413929   5.639   2.483   6.078 -0.2479  0.0172  0.4402
  130OSM    O1113930   5.681   2.655   6.262 -0.4381 -0.4008  0.2095
  130OSM    O1213931   5.869   2.539   6.164  0.3507 -0.1042  0.3445
  130OSM    C1S13932   5.562   2.596   6.322 -0.2155  0.1053  0.4024
  130OSM    H1S13933   5.588   2.489   6.334  0.1859  0.0371 -1.0036
  130OSM    H1T13934   5.474   2.612   6.258 -1.3003 -0.1051  1.8144
  130OSM     NF13935   5.405   2.597   6.519 -0.0125  0.2312  0.4213
  130OSM    HNF13936   5.324   2.654   6.510 -1.2698 -1.5038  0.4020
  130OSM    C2S13937   5.525   2.656   6.461  0.2575 -0.2831  0.4882
  130OSM    H2S13938   5.611   2.643   6.530  0.6536 -1.1750 -0.1636
  130OSM    C3S13939   5.521   2.815   6.454 -0.5785  0.6310  0.2786
  130OSM    H3S13940   5.438   2.838   6.384  0.3333  0.6751 -0.7988
  130OSM     O313941   5.626   2.873   6.385 -0.2497 -0.1183 -0.5846
  130OSM    HO313942   5.664   2.799   6.336  2.6898  1.7573 -1.2680
  130OSM    C4S13943   5.487   2.874   6.582 -0.1093  0.2094 -0.7406
  130OSM    H4S13944   5.379   2.877   6.604  0.1220 -0.4405  0.5616
  130OSM    C5S13945   5.584   2.930   6.666  0.3397  0.4525 -0.0446
  130OSM    H5S13946   5.691   2.919   6.642  0.6018 -0.0662  1.2873
  130OSM    C6S13947   5.557   2.981   6.804  0.2700 -0.5239  0.0990
  130OSM    H6S13948   5.537   3.090   6.800 -1.5819 -0.8721 -1.0178
  130OSM    H6T13949   5.648   2.952   6.861 -1.1092  0.0389  2.6571
  130OSM    C7S13950   5.444   2.902   6.871  0.4348 -0.3602 -0.3769
  130OSM    H7S13951   5.468   2.795   6.857 -2.1066 -0.9643 -0.3595
  130OSM    H7T13952   5.345   2.923   6.824  0.0523 -2.5478 -0.6051
  130OSM    C8S13953   5.431   2.912   7.024 -0.6018  0.4579 -0.2601
  130OSM    H8S13954   5.448   3.019   7.048  0.7395  0.3510 -0.7003
  130OSM    H8T13955   5.520   2.857   7.062 -1.4178 -0.8102 -0.1486
  130OSM    C9S13956   5.298   2.848   7.079  0.2915 -0.1471  0.2113
  130OSM    H9S13957   5.287   2.760   7.013 -1.4847  0.2071  0.0004
  130OSM    H9T13958   5.218   2.925   7.067  1.1271  0.5766 -0.8026
  130OSM   C10S13959   5.295   2.813   7.227  0.6009  0.5679 -0.0587
  130OSM   H10S13960   5.358   2.725   7.251 -0.0152  0.1223 -0.0486
  130OSM   H10T13961   5.194   2.771   7.247  0.4972  0.9741  0.2963
  130OSM   C11S13962   5.332   2.928   7.321  0.5346 -0.5194 -0.8634
  130OSM   H11S13963   5.254   3.006   7.311  0.6612 -0.7098 -3.5481
  130OSM   H11T13964   5.431   2.972   7.296  0.2488  0.4458 -0.3156
  130OSM   C12S13965   5.337   2.866   7.461 -0.8003 -0.0889 -0.6260
  130OSM   H12S13966   5.438   2.819   7.464 -0.6192  0.0611 -2.8953
  130OSM   H12T13967   5.248   2.803   7.478 -0.5395 -0.6436 -1.2853
  130OSM   C13S13968   5.348   2.971   7.574  0.7828 -0.4474  0.4341
  130OSM   H13S13969   5.263   3.040   7.556 -0.2137 -1.2430  2.0282
  130OSM   H13T13970   5.443   3.030   7.572 -0.2461  1.2905  1.8073
  130OSM   C14S13971   5.335   2.904   7.712  0.3745  0.8578 -0.3961
  130OSM   H14S13972   5.431   2.857   7.742  0.0295  0.7818  0.5995
  130OSM   H14T13973   5.246   2.839   7.725 -0.8512  2.0086 -2.6477
  130OSM   C15S13974   5.305   3.008   7.824 -0.0461 -0.7660 -0.4623
  130OSM   H15S13975   5.213   2.974   7.877 -0.1505  0.2560  0.0136
  130OSM   H15T13976   5.296   3.105   7.771 -0.9554 -0.4302  0.2793
  130OSM   C16S13977   5.410   3.005   7.930  0.3749  0.3234  0.3619
  130OSM   H16S13978   5.515   3.003   7.897  0.1272 -1.6252 -0.3276
  130OSM   H16T13979   5.395   2.913   7.991  0.2889  0.7045  0.9270
  130OSM   C17S13980   5.404   3.127   8.033 -0.5425  0.2363 -0.7182
  130OSM   H17S13981   5.306   3.112   8.083 -0.1598  0.0741 -0.0169
  130OSM   H17T13982   5.380   3.218   7.975  2.8546  1.9929  0.5469
  130OSM   C18S13983   5.514   3.138   8.140 -0.4398 -0.1056 -0.4835
  130OSM   H18S13984   5.538   3.043   8.193  0.5247  0.8334  0.7927
  130OSM   H18T13985   5.483   3.219   8.209 -1.1072  0.5392 -1.5145
  130OSM   H18U13986   5.612   3.169   8.096 -0.0148 -2.8418 -1.5763
  130OSM    C1F13987   5.388   2.464   6.539 -0.2192  0.2289 -0.3674
  130OSM     OF13988   5.479   2.385   6.545 -0.1760  0.1915  0.3714
  130OSM    C2F13989   5.238   2.420   6.539 -0.3765 -0.3099 -0.2448
  130OSM    H2F13990   5.219   2.360   6.447 -0.9992  1.3020 -1.1882
  130OSM    H2G13991   5.175   2.510   6.530  0.4626  0.3299  0.2030
  130OSM    C3F13992   5.205   2.348   6.672 -0.4366  0.1633 -0.7907
  130OSM    H3F13993   5.270   2.258   6.679  1.3144  1.4161 -0.5890
  130OSM    H3G13994   5.103   2.305   6.661 -2.1731  3.8514  0.3428
  130OSM    C4F13995   5.210   2.434   6.804 -0.0633 -0.0641  0.2166
  130OSM    H4F13996   5.139   2.514   6.777  0.7253  0.8445  0.8111
  130OSM    H4G13997   5.311   2.477   6.814  0.4231 -0.6062 -2.2393
  130OSM    C5F13998   5.212   2.351   6.936  0.5563  0.0549  0.1945
  130OSM    H5F13999   5.294   2.277   6.950 -1.4237 -1.8595  1.9931
  130OSM    H5G14000   5.118   2.293   6.934  1.2319 -1.0398 -0.2564
  130OSM    C6F14001   5.233   2.438   7.062  0.3686 -0.3907  0.3494
  130OSM    H6F14002   5.156   2.518   7.058 -0.3140 -1.1231 -1.5258
  130OSM    H6G14003   5.330   2.491   7.057 -0.4309  1.0398 -0.4318
  130OSM    C7F14004   5.218   2.360   7.192 -0.2443  0.6731 -0.5280
  130OSM    H7F14005   5.313   2.302   7.200 -1.7031 -1.5027  2.0916
  130OSM    H7G14006   5.137   2.285   7.179  2.7249 -2.5246 -1.4231
  130OSM    C8F14007   5.207   2.455   7.318  0.0626  0.1457  0.0442
  130OSM    H8F14008   5.137   2.539   7.301  0.6170  1.0859  2.1966
  130OSM    H8G14009   5.312   2.490   7.325  0.0648  0.1983 -0.2401
  130OSM    C9F14010   5.172   2.362   7.433 -0.2142  0.1470 -0.4085
  130OSM    H9F14011   5.090   2.292   7.410  0.0234  0.4717 -2.3080
  130OSM   C10F14012   5.226   2.351   7.554  0.2417 -0.6533 -0.6385
  130OSM   H10F14013   5.190   2.274   7.625 -1.6069  2.2012  1.6117
  130OSM   C11F14014   5.348   2.435   7.604  0.3434 -0.1960 -0.0187
  130OSM   H11F14015   5.397   2.481   7.515 -0.1817 -0.5944 -0.5167
  130OSM   H11G14016   5.424   2.370   7.652  0.6761 -1.7070 -2.4955
  130OSM   C12F14017   5.302   2.542   7.708  0.5756 -0.3027 -1.2624
  130OSM   H12F14018   5.217   2.603   7.672 -0.5886 -0.8961  0.4023
  130OSM   H12G14019   5.387   2.613   7.714  0.8930 -0.7407 -0.4490
  130OSM   C13F14020   5.263   2.481   7.851  0.5715  0.0127 -0.1188
  130OSM   H13F14021   5.340   2.421   7.904 -1.6058 -1.3489  1.6440
  130OSM   H13G14022   5.174   2.416   7.831  0.1891  1.0852 -1.9798
  130OSM   C14F14023   5.218   2.586   7.963 -0.5745 -0.0307 -0.0304
  130OSM   H14F14024   5.120   2.550   8.001  0.0018 -1.4878  0.1164
  130OSM   H14G14025   5.205   2.688   7.921  0.1803 -0.3196 -0.9745
  130OSM   C15F14026   5.314   2.593   8.082 -0.4687 -0.7199  1.0371
  130OSM   H15F14027   5.413   2.634   8.054 -1.6464  1.3362 -0.2482
  130OSM   H15G14028   5.331   2.490   8.122 -2.3884 -1.0558  1.0307
  130OSM   C16F14029   5.256   2.684   8.189 -0.3702 -0.6331  0.1011
  130OSM   H16F14030   5.174   2.633   8.244 -0.1577  1.1247  2.0786
  130OSM   H16G14031   5.199   2.768   8.144 -2.9123 -1.5184  1.5569
  130OSM   C17F14032   5.358   2.727   8.289 -0.0782 -0.1152  0.9848
  130OSM   H17F14033   5.310   2.774   8.377  1.4833  0.7146  1.4131
  130OSM   H17G14034   5.426   2.797   8.235  0.4474 -1.5151 -0.2149
  130OSM   C18F14035   5.450   2.620   8.347  0.7077  0.6862 -0.7340
  130OSM   H18F14036   5.523   2.668   8.416  0.8605  0.1852 -0.5479
  130OSM   H18G14037   5.521   2.577   8.273  0.9514  3.0870 -1.9359
  130OSM   H18H14038   5.402   2.537   8.404  2.4789 -0.5165 -0.9342
  131OSM      N14039   5.982   0.234   6.001 -0.5063  0.6947 -0.6148
  131OSM    C1514040   5.907   0.242   5.879 -0.2102 -0.1039  0.2252
  131OSM   H15A14041   5.943   0.310   5.803 -0.4344  0.7611  0.8826
  131OSM   H15B14042   5.809   0.284   5.897  0.7401  2.7526 -0.9254
  131OSM   H15C14043   5.896   0.147   5.830 -1.8724 -0.4599  1.2433
  131OSM    C1414044   5.929   0.136   6.099 -0.0408 -0.0638  0.2185
  131OSM   H14A14045   6.007   0.124   6.173  2.0823  1.0187 -1.7705
  131OSM   H14B14046   5.916   0.039   6.053 -1.9843  0.1271  0.3120
  131OSM   H14C14047   5.833   0.166   6.140  0.7344 -0.9852  2.8370
  131OSM    C1314048   6.123   0.203   5.958  0.2054 -1.0411 -0.1857
  131OSM   H13A14049   6.190   0.193   6.042  0.2766  0.9102  0.0114
  131OSM   H13B14050   6.168   0.265   5.882 -1.0580 -0.0737 -0.1763
  131OSM   H13C14051   6.123   0.101   5.924  1.5948 -1.0037 -0.2974
  131OSM    C1214052   5.977   0.375   6.064  0.0258 -0.2317  1.0623
  131OSM   H12A14053   5.878   0.418   6.060  0.7370  1.3275 -1.1477
  131OSM   H12B14054   6.031   0.442   5.998  1.0865 -1.0667  1.0653
  131OSM    C1114055   6.042   0.385   6.199 -0.2956  0.0232 -0.4992
  131OSM   H11A14056   5.995   0.330   6.283  0.6641 -2.4608 -1.5499
  131OSM   H11B14057   6.030   0.492   6.225  0.7373 -0.3481  1.6287
  131OSM      P14058   6.295   0.450   6.247 -0.2566  0.3047  0.1499
  131OSM    O1314059   6.401   0.350   6.273 -0.5244  0.7382 -0.1938
  131OSM    O1414060   6.319   0.549   6.138 -0.0162 -0.2653  0.0059
  131OSM    O1114061   6.238   0.512   6.376 -0.0717 -0.7519  0.4870
  131OSM    O1214062   6.181   0.351   6.204 -0.1451  0.4736 -0.3675
  131OSM    C1S14063   6.246   0.451   6.507  0.1591  0.6995 -0.0502
  131OSM    H1S14064   6.348   0.462   6.551 -0.2393  2.2237  0.5151
  131OSM    H1T14065   6.235   0.341   6.508 -0.0832  0.7240  0.8955
  131OSM     NF14066   6.186   0.471   6.744 -0.4615  0.1374 -0.3685
  131OSM    HNF14067   6.113   0.417   6.785 -2.9491  3.2367 -0.5344
  131OSM    C2S14068   6.153   0.517   6.613  0.2010 -0.1926  0.0764
  131OSM    H2S14069   6.181   0.624   6.611 -1.8666  0.3628 -2.1239
  131OSM    C3S14070   6.002   0.491   6.578  0.7301 -0.7276  0.3874
  131OSM    H3S14071   5.989   0.381   6.585 -1.4472 -0.6224 -1.2030
  131OSM     O314072   5.956   0.530   6.445 -0.5072  0.2244  0.1066
  131OSM    HO314073   6.037   0.527   6.394 -0.2579  0.5085  0.4814
  131OSM    C4S14074   5.919   0.557   6.681 -0.0185  0.7556 -0.1439
  131OSM    H4S14075   5.948   0.662   6.693 -0.7710  0.8050  1.3030
  131OSM    C5S14076   5.819   0.501   6.751  0.0263  0.2995  0.1208
  131OSM    H5S14077   5.783   0.402   6.720  0.1964  0.4008 -0.4114
  131OSM    C6S14078   5.740   0.566   6.859 -0.3133 -0.8543 -0.1026
  131OSM    H6S14079   5.785   0.532   6.955  0.5404  1.5835  0.4088
  131OSM    H6T14080   5.636   0.527   6.851 -0.3726 -0.6698 -0.2399
  131OSM    C7S14081   5.740   0.722   6.851 -0.3668  0.0159  0.0574
  131OSM    H7S14082   5.719   0.765   6.751  0.4631 -1.6940 -0.8710
  131OSM    H7T14083   5.843   0.760   6.865  0.1066 -1.1734 -0.0826
  131OSM    C8S14084   5.639   0.782   6.953 -0.4273  0.3999 -0.7706
  131OSM    H8S14085   5.603   0.704   7.023  0.3141 -0.7630 -1.6465
  131OSM    H8T14086   5.553   0.828   6.900 -1.0083  0.9772  0.6659
  131OSM    C9S14087   5.713   0.903   7.024  0.1770  0.5430 -0.3707
  131OSM    H9S14088   5.734   0.982   6.949  0.2235 -0.2378 -1.1820
  131OSM    H9T14089   5.805   0.858   7.068  0.6744  0.4797 -1.4497
  131OSM   C10S14090   5.630   0.965   7.128  0.3333 -0.3341  0.0596
  131OSM   H10S14091   5.594   0.890   7.202 -1.0267  0.1975 -0.0571
  131OSM   H10T14092   5.543   1.022   7.090  0.0704 -0.4919  0.4114
  131OSM   C11S14093   5.728   1.058   7.208  0.3099  0.1741  0.0275
  131OSM   H11S14094   5.763   1.134   7.135 -1.2439 -1.5141 -2.5581
  131OSM   H11T14095   5.813   0.994   7.239  0.8074  1.0641  0.5332
  131OSM   C12S14096   5.660   1.127   7.325 -0.8252 -0.2775 -0.4835
  131OSM   H12S14097   5.616   1.059   7.402 -1.7659  0.5835 -0.2567
  131OSM   H12T14098   5.569   1.181   7.291 -2.1279 -2.5614 -0.7687
  131OSM   C13S14099   5.764   1.217   7.390 -0.1183 -0.1134  0.4589
  131OSM   H13S14100   5.831   1.270   7.319  0.1965  0.5649  1.2614
  131OSM   H13T14101   5.836   1.147   7.437  1.0695 -1.0691 -2.6518
  131OSM   C14S14102   5.705   1.330   7.472 -0.0781 -0.0177 -0.2853
  131OSM   H14S14103   5.624   1.377   7.412 -0.6426  1.4830  1.6257
  131OSM   H14T14104   5.781   1.409   7.492  0.9871 -0.5572 -2.0265
  131OSM   C15S14105   5.654   1.290   7.614  0.3715 -0.6182  0.5272
  131OSM   H15S14106   5.573   1.216   7.630 -1.3623  0.9343 -0.7717
  131OSM   H15T14107   5.619   1.390   7.648  0.5252 -1.1327  2.2156
  131OSM   C16S14108   5.764   1.248   7.717  0.5741  0.1322  0.7305
  131OSM   H16S14109   5.861   1.295   7.691  1.0169 -0.1496  1.8506
  131OSM   H16T14110   5.770   1.138   7.728 -1.2051  0.0053  0.5685
  131OSM   C17S14111   5.713   1.288   7.857  0.3649 -0.6924 -0.6395
  131OSM   H17S14112   5.671   1.390   7.843  1.8878  0.0906  0.3337
  131OSM   H17T14113   5.797   1.287   7.929 -0.6389  1.4031  0.6089
  131OSM   C18S14114   5.605   1.196   7.913  0.1570 -0.2114 -0.3685
  131OSM   H18S14115   5.554   1.240   8.002  1.5209  0.3776  0.1375
  131OSM   H18T14116   5.648   1.102   7.954  0.1665 -0.3003 -0.5805
  131OSM   H18U14117   5.538   1.162   7.832  0.3117 -3.4815  0.7891
  131OSM    C1F14118   6.294   0.506   6.821  0.4691 -0.0738 -0.5214
  131OSM     OF14119   6.380   0.584   6.773  0.1211 -0.3706  0.1372
  131OSM    C2F14120   6.304   0.445   6.958 -0.1667  0.5962  0.0970
  131OSM    H2F14121   6.323   0.337   6.942  0.4952  0.5117  1.3922
  131OSM    H2G14122   6.209   0.471   7.009  0.1639  2.4488 -0.1635
  131OSM    C3F14123   6.415   0.506   7.046  0.2319  0.6200  0.8964
  131OSM    H3F14124   6.377   0.609   7.061 -0.5208  0.5428 -0.3613
  131OSM    H3G14125   6.512   0.507   6.992  0.1825 -1.6909  0.7354
  131OSM    C4F14126   6.413   0.442   7.186  0.4813  0.0494 -0.1379
  131OSM    H4F14127   6.406   0.333   7.202  3.4314 -0.2990 -0.9850
  131OSM    H4G14128   6.318   0.478   7.231  1.2978 -1.2144  2.7531
  131OSM    C5F14129   6.523   0.493   7.287  0.0496 -0.0568  0.1693
  131OSM    H5F14130   6.509   0.603   7.293  1.9775  0.3196 -1.6482
  131OSM    H5G14131   6.621   0.457   7.251 -0.6459 -1.6616 -0.1464
  131OSM    C6F14132   6.501   0.457   7.431  0.2942 -0.6097  0.0967
  131OSM    H6F14133   6.519   0.350   7.453 -0.5003 -0.7231  0.2170
  131OSM    H6G14134   6.400   0.496   7.455  1.8876  2.6793  1.8907
  131OSM    C7F14135   6.600   0.541   7.523 -0.3635 -0.0503  0.5449
  131OSM    H7F14136   6.630   0.634   7.471 -0.4002  0.5872  1.6565
  131OSM    H7G14137   6.698   0.494   7.548  0.9092  1.3377 -1.6086
  131OSM    C8F14138   6.535   0.584   7.652 -0.0661 -1.1530  0.4280
  131OSM    H8F14139   6.449   0.653   7.636 -0.2107 -1.6028 -0.7523
  131OSM    H8G14140   6.599   0.648   7.717  0.2313  0.8068 -1.7549
  131OSM    C9F14141   6.493   0.462   7.739  0.3346 -0.0668 -0.3627
  131OSM    H9F14142   6.567   0.389   7.773 -0.2829  0.0436  1.2672
  131OSM   C10F14143   6.371   0.428   7.777 -0.3618 -0.1020 -0.6260
  131OSM   H10F14144   6.359   0.340   7.842  0.6673 -1.5375 -2.3377
  131OSM   C11F14145   6.242   0.494   7.736  0.2562  0.3926 -0.1915
  131OSM   H11F14146   6.176   0.410   7.705 -0.3093  1.2191 -1.2065
  131OSM   H11G14147   6.243   0.577   7.663 -0.5103  2.0585  1.6477
  131OSM   C12F14148   6.169   0.551   7.855  0.3514  0.1679  0.7615
  131OSM   H12F14149   6.060   0.549   7.836 -0.0242  0.0520  2.8127
  131OSM   H12G14150   6.196   0.658   7.869 -0.7307  0.4047  1.0745
  131OSM   C13F14151   6.190   0.476   7.984  0.2668  0.1561 -0.3860
  131OSM   H13F14152   6.294   0.487   8.021  0.1459  3.0930 -0.8664
  131OSM   H13G14153   6.168   0.369   7.965  0.3521  0.5313 -2.6666
  131OSM   C14F14154   6.092   0.518   8.103  0.3454 -0.5449  0.0675
  131OSM   H14F14155   5.986   0.485   8.097  0.2675 -0.2672 -0.0953
  131OSM   H14G14156   6.094   0.627   8.087 -0.5937 -0.6037 -0.4784
  131OSM   C15F14157   6.161   0.495   8.241 -0.8707  0.2971  0.4403
  131OSM   H15F14158   6.266   0.531   8.250 -0.6213 -0.5827  1.2147
  131OSM   H15G14159   6.170   0.384   8.244  0.0838  0.3933  1.3440
  131OSM   C16F14160   6.071   0.548   8.351 -0.1207 -0.5474  0.0039
  131OSM   H16F14161   5.962   0.530   8.339  0.1727 -1.9261 -0.7735
  131OSM   H16G14162   6.074   0.658   8.367 -1.0799 -0.1610 -2.1752
  131OSM   C17F14163   6.122   0.487   8.479  1.1668  0.5105  0.1871
  131OSM   H17F14164   6.110   0.377   8.469 -2.6900  1.0877 -3.1287
  131OSM   H17G14165   6.054   0.518   8.561  0.5137 -1.3355  0.3674
  131OSM   C18F14166   6.269   0.512   8.516  0.0824 -0.1176 -0.3745
  131OSM   H18F14167   6.281   0.494   8.625  0.3731  2.1855  0.0071
  131OSM   H18G14168   6.291   0.620   8.503  0.0191  0.3691  3.0926
  131OSM   H18H14169   6.342   0.455   8.454 -1.6321 -0.1204 -2.4679
  132OSM      N14170   1.426   4.964   6.147 -0.6528  0.2474  0.0171
  132OSM    C1514171   1.404   5.032   6.023  0.5965 -0.3475 -1.3659
  132OSM   H15A14172   1.366   5.130   6.045 -0.0740 -0.4209 -2.1786
  132OSM   H15B14173   1.338   4.988   5.949 -0.0298 -1.1330 -0.3706
  132OSM   H15C14174   1.502   5.045   5.980  0.8526  0.8885 -0.4230
  132OSM    C1414175   1.522   5.047   6.227  0.3700 -0.2061  0.6648
  132OSM   H14A14176   1.615   5.046   6.173 -0.5366 -2.6616 -0.8914
  132OSM   H14B14177   1.547   5.009   6.325  0.4321 -2.8314 -0.3373
  132OSM   H14C14178   1.478   5.146   6.227  2.0914  0.6097 -1.5477
  132OSM    C1314179   1.300   4.948   6.219  0.1845  0.0987 -0.2935
  132OSM   H13A14180   1.274   5.042   6.266  0.9212  0.0124  0.3034
  132OSM   H13B14181   1.313   4.876   6.299 -0.2853 -0.0905 -0.3891
  132OSM   H13C14182   1.220   4.919   6.153 -0.1031 -0.5492  0.3294
  132OSM    C1214183   1.480   4.811   6.127 -0.4376 -0.3741  0.0432
  132OSM   H12A14184   1.565   4.823   6.062 -0.9303  1.1497 -0.3322
  132OSM   H12B14185   1.394   4.766   6.080 -0.4509  0.0982 -0.3811
  132OSM    C1114186   1.508   4.722   6.255  0.6320 -0.0806 -0.4704
  132OSM   H11A14187   1.579   4.768   6.327  0.5882  1.7522 -1.5542
  132OSM   H11B14188   1.571   4.635   6.227  2.0871  0.7379  0.2115
  132OSM      P14189   1.311   4.558   6.294 -0.5643  0.2536  0.0103
  132OSM    O1314190   1.231   4.579   6.166  0.5543  0.8042 -0.2941
  132OSM    O1414191   1.401   4.434   6.297 -0.0864 -0.7524  0.2445
  132OSM    O1114192   1.214   4.550   6.417 -0.5697 -0.1968 -0.4561
  132OSM    O1214193   1.392   4.690   6.333  0.8530  0.3920  0.2412
  132OSM    C1S14194   1.211   4.441   6.511 -0.0289 -0.1189  0.2200
  132OSM    H1S14195   1.286   4.360   6.500 -3.6168 -3.3780 -1.4764
  132OSM    H1T14196   1.113   4.388   6.505  1.0724 -2.2605  0.6454
  132OSM     NF14197   1.206   4.387   6.747  0.2611  0.1745 -0.1128
  132OSM    HNF14198   1.121   4.377   6.799 -0.7716 -1.5847 -2.0722
  132OSM    C2S14199   1.208   4.496   6.651 -0.0001  0.1064  0.2901
  132OSM    H2S14200   1.299   4.558   6.661 -0.6242  1.2483 -0.8957
  132OSM    C3S14201   1.090   4.593   6.671  0.2941  0.0655 -0.1182
  132OSM    H3S14202   0.995   4.538   6.657  1.5044 -2.2195  0.4318
  132OSM     O314203   1.090   4.704   6.583 -0.0770  0.8878 -0.5438
  132OSM    HO314204   1.156   4.675   6.521 -0.9656  2.0107 -2.0472
  132OSM    C4S14205   1.090   4.650   6.807 -0.0220  0.0629  0.7177
  132OSM    H4S14206   1.163   4.728   6.832 -2.5374  1.6370  3.4743
  132OSM    C5S14207   1.012   4.606   6.909  0.2118  0.8689  0.0916
  132OSM    H5S14208   0.946   4.520   6.892 -0.6951  1.3939  0.8730
  132OSM    C6S14209   1.019   4.661   7.050  0.4658 -0.0000  0.8600
  132OSM    H6S14210   0.920   4.696   7.087 -0.0530  0.0140 -0.5017
  132OSM    H6T14211   1.096   4.741   7.053  0.5008  0.1387 -2.1313
  132OSM    C7S14212   1.082   4.576   7.163  0.4318 -0.0743 -0.0232
  132OSM    H7S14213   1.119   4.640   7.245  0.4490 -0.9274  0.6465
  132OSM    H7T14214   1.176   4.534   7.121 -0.7263 -1.0126 -1.7600
  132OSM    C8S14215   1.009   4.449   7.205  0.1894 -0.1688  0.5788
  132OSM    H8S14216   0.994   4.388   7.114  0.2122 -0.2835  0.6508
  132OSM    H8T14217   0.909   4.487   7.237 -0.2199  0.1537 -1.0847
  132OSM    C9S14218   1.074   4.363   7.315  0.3267 -0.7286  0.4886
  132OSM    H9S14219   1.176   4.334   7.283  0.3548 -1.0976  0.9015
  132OSM    H9T14220   1.010   4.272   7.323  1.0415 -1.2835 -0.0577
  132OSM   C10S14221   1.075   4.442   7.445 -0.4221  0.3901 -0.0473
  132OSM   H10S14222   1.146   4.526   7.430 -1.0717  0.7078 -1.3108
  132OSM   H10T14223   1.122   4.365   7.511 -1.5194  0.7260  1.1466
  132OSM   C11S14224   0.945   4.493   7.513 -0.1705  0.2684  0.5595
  132OSM   H11S14225   0.865   4.416   7.513  0.4949 -0.4342  0.4543
  132OSM   H11T14226   0.916   4.574   7.443 -1.9201  0.3130  1.3090
  132OSM   C12S14227   0.965   4.545   7.661 -0.3714  0.3415  0.3645
  132OSM   H12S14228   1.048   4.618   7.648  1.5397 -1.9041 -0.4102
  132OSM   H12T14229   1.000   4.450   7.706 -1.9928 -0.8960 -0.9097
  132OSM   C13S14230   0.833   4.611   7.706  0.1221 -0.2818  0.4739
  132OSM   H13S14231   0.756   4.530   7.706  0.7134 -0.8632  2.1989
  132OSM   H13T14232   0.802   4.693   7.638 -0.1648  0.9666  2.0777
  132OSM   C14S14233   0.851   4.661   7.849  0.8324 -0.3223 -0.4852
  132OSM   H14S14234   0.765   4.725   7.877  1.2482  0.2704 -0.5498
  132OSM   H14T14235   0.938   4.730   7.845  1.8639 -1.5772 -0.0711
  132OSM   C15S14236   0.866   4.549   7.959  0.1301 -0.0879 -0.3855
  132OSM   H15S14237   0.951   4.485   7.930 -0.1598 -0.2599 -0.8627
  132OSM   H15T14238   0.768   4.496   7.965  0.4873 -0.5451  2.0493
  132OSM   C16S14239   0.897   4.596   8.102 -0.0680  0.1505  0.3460
  132OSM   H16S14240   0.814   4.658   8.142 -0.4684 -0.8053  1.0127
  132OSM   H16T14241   0.995   4.649   8.102  0.3692 -0.6545  1.5142
  132OSM   C17S14242   0.890   4.484   8.204 -0.8091 -0.2897 -0.0045
  132OSM   H17S14243   0.970   4.409   8.189 -1.1898 -0.9116  1.0047
  132OSM   H17T14244   0.791   4.435   8.186 -0.7340 -0.6230  0.4842
  132OSM   C18S14245   0.881   4.540   8.353 -0.4842 -0.1830  0.1388
  132OSM   H18S14246   0.978   4.575   8.395 -0.8583  0.8481  0.1447
  132OSM   H18T14247   0.843   4.453   8.410 -0.7835  1.4664  2.5352
  132OSM   H18U14248   0.809   4.624   8.360 -0.0213  0.3895 -1.6915
  132OSM    C1F14249   1.293   4.289   6.765  0.1403 -0.5108 -0.3469
  132OSM     OF14250   1.394   4.283   6.692 -0.2828  0.7974  0.0990
  132OSM    C2F14251   1.258   4.192   6.877 -0.6556  0.3394  0.7105
  132OSM    H2F14252   1.167   4.133   6.852  0.2431 -0.9593  0.4437
  132OSM    H2G14253   1.240   4.257   6.965  0.0666  0.2651  0.9169
  132OSM    C3F14254   1.367   4.102   6.923 -1.1588  0.2268  0.0934
  132OSM    H3F14255   1.454   4.167   6.948 -1.5233 -0.6363  3.7750
  132OSM    H3G14256   1.398   4.044   6.834  1.7428  0.3555  0.9532
  132OSM    C4F14257   1.339   4.021   7.050 -0.2500  0.1080 -0.2017
  132OSM    H4F14258   1.440   3.980   7.072 -1.2029 -2.4473 -0.4181
  132OSM    H4G14259   1.264   3.942   7.024 -0.0547  0.5672 -2.2549
  132OSM    C5F14260   1.290   4.103   7.171  0.5014  0.3489  0.8270
  132OSM    H5F14261   1.197   4.157   7.141  0.7809 -0.8928 -2.4637
  132OSM    H5G14262   1.368   4.182   7.186  1.7299 -0.5740 -0.6488
  132OSM    C6F14263   1.267   4.018   7.291 -0.5271  0.4204  0.1925
  132OSM    H6F14264   1.232   3.915   7.266  0.4804 -0.3342  1.7629
  132OSM    H6G14265   1.189   4.062   7.357  0.3694 -1.3254  2.5306
  132OSM    C7F14266   1.390   4.010   7.380 -0.5367  0.2802  0.2073
  132OSM    H7F14267   1.439   4.110   7.381 -1.8566  0.9402 -0.1808
  132OSM    H7G14268   1.457   3.934   7.335 -1.0338  0.0116 -0.0836
  132OSM    C8F14269   1.348   3.958   7.525 -0.1432  0.4444 -0.3291
  132OSM    H8F14270   1.436   3.918   7.579  0.3403  1.5640 -0.2659
  132OSM    H8G14271   1.283   3.869   7.512 -4.6544  3.0654  2.8392
  132OSM    C9F14272   1.272   4.053   7.616  0.0991  0.0147 -0.6329
  132OSM    H9F14273   1.190   4.110   7.569  1.1190  3.1193  1.1714
  132OSM   C10F14274   1.288   4.076   7.750 -0.9670  0.1066 -0.5080
  132OSM   H10F14275   1.240   4.164   7.795 -0.2683 -0.0143  0.4831
  132OSM   C11F14276   1.369   3.999   7.850 -0.5968  0.9472 -0.4115
  132OSM   H11F14277   1.422   3.915   7.799 -0.4329  0.2641  0.8521
  132OSM   H11G14278   1.308   3.949   7.928  2.0026 -1.0553  0.4096
  132OSM   C12F14279   1.474   4.088   7.908 -0.2745  0.7392 -0.4917
  132OSM   H12F14280   1.528   4.146   7.830  2.6661 -1.1989  0.0023
  132OSM   H12G14281   1.542   4.031   7.975 -0.0083 -0.7320 -1.9490
  132OSM   C13F14282   1.408   4.178   8.012 -0.2720  0.0601  0.9767
  132OSM   H13F14283   1.336   4.248   7.965  1.2396  1.2698  0.4154
  132OSM   H13G14284   1.489   4.240   8.056  0.0733  1.9554 -2.2357
  132OSM   C14F14285   1.340   4.107   8.131 -0.1649 -0.3837  0.2898
  132OSM   H14F14286   1.408   4.026   8.165 -1.8369 -3.3048 -2.9786
  132OSM   H14G14287   1.253   4.056   8.083  0.5461  1.9433 -3.6646
  132OSM   C15F14288   1.308   4.209   8.237 -0.0103 -0.2915 -0.4990
  132OSM   H15F14289   1.268   4.297   8.183  1.9786  0.3161 -1.0225
  132OSM   H15G14290   1.403   4.238   8.287  0.1207 -2.5840  0.6350
  132OSM   C16F14291   1.210   4.152   8.346 -0.5669  0.3716 -0.2679
  132OSM   H16F14292   1.118   4.131   8.288 -0.3768  0.2996 -0.5475
  132OSM   H16G14293   1.177   4.232   8.415 -0.1930  0.8761 -0.6667
  132OSM   C17F14294   1.275   4.032   8.418  0.1775 -0.6390  0.6148
  132OSM   H17F14295   1.386   4.033   8.428  0.2466 -1.7531  0.0744
  132OSM   H17G14296   1.265   3.941   8.355  0.5044  0.2931 -0.8209
  132OSM   C18F14297   1.203   4.006   8.545 -0.7038  0.3221  0.5667
  132OSM   H18F14298   1.254   3.921   8.596 -1.1667 -0.8410 -0.8384
  132OSM   H18G14299   1.100   3.967   8.531 -1.0648  1.0089  1.2904
  132OSM   H18H14300   1.195   4.085   8.622 -0.4902 -0.3594  1.2996
  133SAPE     N14301   2.624   2.565  10.524 -0.1108  0.3695 -0.7085
  133SAPE   HN114302   2.549   2.557  10.596  1.4939 -1.7322  0.8031
  133SAPE   HN214303   2.713   2.611  10.551 -0.2738 -1.1967  2.8468
  133SAPE   HN314304   2.586   2.611  10.439  0.1965  2.0960  0.0696
  133SAPE   C1214305   2.655   2.424  10.487  0.1805 -1.0994  0.6839
  133SAPE  H12A14306   2.707   2.372  10.570  0.8451  1.5583  1.9780
  133SAPE  H12B14307   2.729   2.442  10.406  0.3388 -0.6221  0.9317
  133SAPE   C1114308   2.533   2.352  10.434 -0.1481 -0.3686  0.0936
  133SAPE  H11A14309   2.548   2.244  10.413 -1.2483 -0.3440 -0.8755
  133SAPE  H11B14310   2.511   2.401  10.337 -0.8796 -1.7963 -0.4736
  133SAPE     P14311   2.391   2.260  10.646 -0.0697 -0.2374  0.3455
  133SAPE   O1314312   2.514   2.239  10.729  0.6390 -0.3066 -0.5857
  133SAPE   O1414313   2.267   2.294  10.720  0.3798 -0.3958  0.3456
  133SAPE   O1214314   2.416   2.365  10.521  0.8838  0.1607 -0.0061
  133SAPE   O1114315   2.377   2.123  10.570 -0.0926  0.1090  0.2778
  133SAPE    C114316   2.302   2.089  10.453 -0.2111  0.3525 -0.8561
  133SAPE    HA14317   2.203   2.045  10.478 -0.8417  3.8323  3.4299
  133SAPE    HB14318   2.285   2.174  10.383  0.8824  1.5003  0.2471
  133SAPE    C214319   2.383   1.975  10.381 -0.4486 -0.5980  0.6743
  133SAPE    HS14320   2.490   2.003  10.369 -0.3714 -1.4493 -0.8041
  133SAPE   O2114321   2.332   1.947  10.245 -0.4736 -0.0134 -0.3525
  133SAPE   C2114322   2.367   2.039  10.157 -0.3867  0.1050  0.3951
  133SAPE   O2214323   2.437   2.135  10.178  0.0091  0.6136 -0.4346
  133SAPE   C2214324   2.298   2.003  10.021 -0.2998  0.6970  0.3965
  133SAPE   H2R14325   2.294   1.892  10.016 -1.5347  0.6707  1.6425
  133SAPE   H2S14326   2.194   2.030  10.049  0.1176 -0.3357  3.0565
  133SAPE    C314327   2.382   1.842  10.453 -0.4431 -0.1908  0.4626
  133SAPE    HX14328   2.279   1.816  10.486 -0.4035 -3.1839 -1.5674
  133SAPE    HY14329   2.448   1.841  10.542 -1.5769  0.4395  1.3345
  133SAPE   O3114330   2.411   1.736  10.358  0.2620 -0.1603  0.0991
  133SAPE   C3114331   2.532   1.708  10.352  0.0084  0.6235 -0.6549
  133SAPE   O3214332   2.626   1.758  10.410 -0.1000  0.2828 -0.0060
  133SAPE   C3214333   2.548   1.583  10.265 -0.3748 -0.0003 -0.3589
  133SAPE   H2X14334   2.451   1.528  10.262 -0.7490  0.5466  1.2600
  133SAPE   H2Y14335   2.601   1.497  10.312 -0.5867 -0.5794 -1.1592
  133SAPE   C2314336   2.341   2.086   9.895 -0.7818  0.1267 -0.6471
  133SAPE   H3R14337   2.450   2.095   9.876 -0.9195  0.3781 -1.3513
  133SAPE   H3S14338   2.314   2.191   9.920 -2.2489  0.1656 -2.2817
  133SAPE   C2414339   2.265   2.048   9.764 -0.6070  0.0415  0.7153
  133SAPE   H4R14340   2.301   2.122   9.689  1.6070 -2.2794 -0.5853
  133SAPE   H4S14341   2.156   2.066   9.777 -0.4559  0.6961  1.0565
  133SAPE   C2514342   2.283   1.910   9.714 -0.9079 -0.5702 -0.2131
  133SAPE   H5R14343   2.227   1.834   9.770 -1.0738  0.7503  1.4379
  133SAPE   C2614344   2.360   1.885   9.602 -0.0626 -0.5454  0.0489
  133SAPE   H6R14345   2.368   1.778   9.575  0.6623 -0.1538 -1.3244
  133SAPE   C2714346   2.422   1.970   9.500 -0.6758 -0.4671 -0.1466
  133SAPE   H7R14347   2.449   2.067   9.548 -2.4884  0.0960 -0.2446
  133SAPE   H7S14348   2.352   1.991   9.416  0.5821 -0.1438 -1.1430
  133SAPE   C2814349   2.542   1.915   9.428 -0.0041 -0.2492  0.7365
  133SAPE   H8R14350   2.518   1.849   9.343  3.2263 -0.4312 -0.1046
  133SAPE   C2914351   2.674   1.945   9.452  0.3061  0.3402  1.7266
  133SAPE   H9R14352   2.745   1.915   9.373 -0.3045 -2.3465  2.1199
  133SAPE  C21014353   2.731   2.036   9.557 -0.2956 -0.7838 -0.5961
  133SAPE  H10R14354   2.774   1.978   9.641  2.2516  0.7330 -0.7966
  133SAPE  H10S14355   2.651   2.098   9.603  0.9193 -0.1092  0.6227
  133SAPE  C21114356   2.845   2.115   9.495  0.0328  0.0869  0.1722
  133SAPE  H11R14357   2.939   2.062   9.520 -0.1251  0.0235  0.6322
  133SAPE  C21214358   2.852   2.217   9.408  0.6387 -1.0342 -0.1141
  133SAPE  H12R14359   2.950   2.253   9.374  0.5943  0.9079  1.6859
  133SAPE  C21314360   2.728   2.282   9.350 -0.3767 -0.3809 -0.1292
  133SAPE  H13R14361   2.746   2.386   9.315  0.7743 -0.6494 -0.3687
  133SAPE  H13S14362   2.642   2.310   9.413 -0.6469  2.8661 -1.8658
  133SAPE  C21414363   2.680   2.203   9.231 -0.5730 -0.1676  0.4647
  133SAPE  H14R14364   2.622   2.112   9.255  0.1936 -0.6534  0.5193
  133SAPE  C21514365   2.712   2.213   9.103  0.3939 -0.2436  0.4948
  133SAPE  H15R14366   2.662   2.150   9.027 -1.0037  1.7953 -0.3243
  133SAPE  C21614367   2.797   2.324   9.048  0.6135  0.3164  0.7527
  133SAPE  H16R14368   2.894   2.334   9.101  1.9821  2.3790 -1.9699
  133SAPE  H16S14369   2.748   2.423   9.062 -0.2123  0.2052 -1.0978
  133SAPE  C21714370   2.837   2.299   8.897  0.7099 -0.0066 -0.1642
  133SAPE  H17R14371   2.897   2.384   8.858 -0.4229  1.2945  0.8882
  133SAPE  H17S14372   2.745   2.301   8.834  1.0344  2.8333 -0.6274
  133SAPE  C21814373   2.923   2.172   8.870  0.0604  0.7624 -0.2425
  133SAPE  H18R14374   2.887   2.092   8.938 -1.0536  0.9750 -0.5816
  133SAPE  H18S14375   3.028   2.187   8.903 -1.1094  1.5873  3.2904
  133SAPE  C21914376   2.916   2.117   8.727  0.5017  0.1436  0.6449
  133SAPE  H19R14377   2.808   2.094   8.710 -0.2952  4.0550 -0.2004
  133SAPE  H19S14378   2.975   2.026   8.709  2.2049  1.6550 -1.6471
  133SAPE  C22014379   2.953   2.208   8.613  0.4110 -0.0762 -0.0858
  133SAPE  H20R14380   2.877   2.287   8.591  1.4114  0.1748 -2.7512
  133SAPE  H20S14381   2.963   2.151   8.519 -1.5499  2.5574 -1.9968
  133SAPE  H20T14382   3.045   2.269   8.628 -0.7381  1.8418 -0.5961
  133SAPE   C3314383   2.598   1.602  10.120  0.8994 -0.8300 -0.2456
  133SAPE   H3X14384   2.626   1.508  10.068  0.7370 -0.5404 -0.8687
  133SAPE   H3Y14385   2.686   1.670  10.119  0.3529 -0.1310 -0.7276
  133SAPE   C3414386   2.497   1.672  10.019  0.1611 -0.1043 -0.6218
  133SAPE   H4X14387   2.461   1.761  10.074 -0.6777 -1.4852  1.1214
  133SAPE   H4Y14388   2.423   1.590  10.007  1.0733 -0.7667 -1.8414
  133SAPE   C3514389   2.559   1.707   9.885 -0.3570  0.2235  0.4192
  133SAPE   H5X14390   2.627   1.794   9.890 -0.8749  0.8430 -2.4021
  133SAPE   H5Y14391   2.476   1.740   9.818  0.8976  2.8941  0.1212
  133SAPE   C3614392   2.637   1.591   9.816  0.0250  0.3093 -0.5576
  133SAPE   H6X14393   2.567   1.512   9.782 -0.6735  1.4207 -1.7914
  133SAPE   H6Y14394   2.710   1.536   9.878 -0.4072 -0.1955 -0.4869
  133SAPE   C3714395   2.722   1.635   9.690  0.2974 -0.0344 -0.1361
  133SAPE   H7X14396   2.805   1.700   9.725  0.2546 -1.4664  2.7965
  133SAPE   H7Y14397   2.656   1.700   9.629 -1.0903 -2.1225 -0.9225
  133SAPE   C3814398   2.761   1.515   9.608  0.4258 -0.5699  0.3378
  133SAPE   H8X14399   2.677   1.443   9.605 -0.3078  0.3204 -1.3342
  133SAPE   H8Y14400   2.839   1.465   9.670 -1.5741 -2.1966  1.5715
  133SAPE   C3914401   2.831   1.554   9.471  0.3414 -0.0277 -0.0052
  133SAPE   H9X14402   2.870   1.459   9.429  1.2155  1.0563 -1.7277
  133SAPE   H9Y14403   2.914   1.629   9.472  0.9253 -0.5719 -2.7343
  133SAPE  C31014404   2.728   1.597   9.372 -0.3047  0.0814  0.7455
  133SAPE  H10X14405   2.673   1.691   9.396 -2.1945 -0.8727  0.3194
  133SAPE  H10Y14406   2.661   1.511   9.347  0.0492  0.1653 -0.5395
  133SAPE  C31114407   2.803   1.642   9.234  0.3727 -0.1066 -0.9490
  133SAPE  H11X14408   2.891   1.575   9.236  0.9442  0.5763 -2.5491
  133SAPE  H11Y14409   2.835   1.748   9.242  1.0042 -0.3853  0.4074
  133SAPE  C31214410   2.718   1.642   9.111  0.1088  0.1752  0.1201
  133SAPE  H12X14411   2.621   1.687   9.142  0.4713  0.9243  0.1780
  133SAPE  H12Y14412   2.710   1.537   9.075  2.5590  0.5854 -1.7635
  133SAPE  C31314413   2.781   1.739   9.005  0.5027  0.2001  0.6580
  133SAPE  H13X14414   2.809   1.830   9.063  0.9427  0.8412 -0.5638
  133SAPE  H13Y14415   2.706   1.755   8.925 -0.3758 -2.0247  1.0080
  133SAPE  C31414416   2.916   1.681   8.941  0.1679  0.3091 -0.8502
  133SAPE  H14X14417   2.895   1.582   8.895  2.0575 -0.1844 -0.7007
  133SAPE  H14Y14418   2.974   1.651   9.030 -2.8231 -4.4653 -0.3223
  133SAPE  C31514419   2.994   1.781   8.856  0.8509  0.0314  0.0797
  133SAPE  H15X14420   2.998   1.875   8.915 -1.8323 -0.5165  1.2052
  133SAPE  H15Y14421   2.933   1.802   8.765  0.3400  1.0744  0.6552
  133SAPE  C31614422   3.144   1.755   8.836  0.2744  0.5830 -0.0692
  133SAPE  H16X14423   3.194   1.755   8.935  1.7702 -0.6569 -0.8061
  133SAPE  H16Y14424   3.193   1.837   8.780  0.0942 -0.1714 -1.3627
  133SAPE  C31714425   3.158   1.621   8.761 -0.6127  0.0879  0.7677
  133SAPE  H17X14426   3.093   1.625   8.671  0.3301 -1.8575 -0.0431
  133SAPE  H17Y14427   3.115   1.536   8.819 -0.0510 -1.6066 -1.2327
  133SAPE  C31814428   3.305   1.587   8.727  0.0636 -0.1631  0.1853
  133SAPE  H18X14429   3.329   1.511   8.649  2.9978 -1.2364  2.0593
  133SAPE  H18Y14430   3.351   1.560   8.824 -0.1066  0.4958  0.4508
  133SAPE  H18Z14431   3.349   1.683   8.691 -2.9305  1.4347  0.6379
  134SAPE     N14432   6.525   2.668  10.920  0.7481  0.1069  0.1813
  134SAPE   HN114433   6.617   2.716  10.931  2.2003 -1.9113 -2.4268
  134SAPE   HN214434   6.481   2.636  11.009  0.0992  0.7494  0.0952
  134SAPE   HN314435   6.553   2.594  10.853 -0.3497  0.6675 -0.9024
  134SAPE   C1214436   6.431   2.756  10.847  0.3820 -0.1758 -0.4743
  134SAPE  H12A14437   6.479   2.805  10.760  0.4031  1.0446  0.2247
  134SAPE  H12B14438   6.402   2.836  10.918  0.4556  1.3640 -2.1642
  134SAPE   C1114439   6.312   2.670  10.806 -0.5212 -0.1117 -0.2470
  134SAPE  H11A14440   6.255   2.643  10.898 -0.7275 -2.6270 -1.0731
  134SAPE  H11B14441   6.354   2.578  10.761 -0.9911  0.0191 -0.9585
  134SAPE     P14442   6.107   2.690  10.646 -0.3247  0.4371  0.0783
  134SAPE   O1314443   6.025   2.630  10.753 -0.3236 -0.2784  0.8628
  134SAPE   O1414444   6.038   2.779  10.545 -0.0452  0.2361  0.0244
  134SAPE   O1214445   6.237   2.750  10.710  0.0066  0.4532 -1.0706
  134SAPE   O1114446   6.172   2.561  10.571  0.1402 -0.0386 -0.4960
  134SAPE    C114447   6.276   2.581  10.480 -0.5970 -0.2764 -0.4242
  134SAPE    HA14448   6.275   2.682  10.433 -0.9417  0.8462  1.9131
  134SAPE    HB14449   6.376   2.562  10.526 -0.3436  1.8308 -0.0743
  134SAPE    C214450   6.269   2.462  10.371  0.2656 -0.1769 -0.0403
  134SAPE    HS14451   6.328   2.491  10.281  0.1362 -0.3867 -0.1915
  134SAPE   O2114452   6.133   2.438  10.327 -0.5597 -0.2845 -0.4604
  134SAPE   C2114453   6.085   2.545  10.278  0.7476 -0.4628 -0.7187
  134SAPE   O2214454   6.142   2.637  10.225 -0.3764 -0.2460  0.7939
  134SAPE   C2214455   5.931   2.529  10.283  0.0584  0.1130  0.1278
  134SAPE   H2R14456   5.907   2.424  10.260  0.3139 -0.0923  0.7725
  134SAPE   H2S14457   5.897   2.562  10.384  0.8664 -2.1092  1.1502
  134SAPE    C314458   6.318   2.331  10.431  0.2350  0.1945  0.1432
  134SAPE    HX14459   6.261   2.298  10.520  1.9460 -0.3978  1.0401
  134SAPE    HY14460   6.419   2.354  10.470  0.8645 -0.2555 -1.1665
  134SAPE   O3114461   6.333   2.228  10.329 -1.0899  0.2458  0.6608
  134SAPE   C3114462   6.233   2.139  10.329  0.0124  0.3247  0.4502
  134SAPE   O3214463   6.140   2.139  10.406 -0.6572 -0.0817  0.1184
  134SAPE   C3214464   6.239   2.037  10.213  0.5432  0.5986 -0.3040
  134SAPE   H2X14465   6.226   1.937  10.261  2.1458 -0.7370 -2.5484
  134SAPE   H2Y14466   6.334   2.035  10.156  0.9343 -1.4796  0.3775
  134SAPE   C2314467   5.860   2.625  10.189  0.0949 -0.4173 -0.0936
  134SAPE   H3R14468   5.859   2.723  10.241  0.4317 -0.9933  0.9975
  134SAPE   H3S14469   5.754   2.594  10.185 -0.6397  1.6505  2.0572
  134SAPE   C2414470   5.906   2.636  10.036 -0.0673 -0.1882 -0.4658
  134SAPE   H4R14471   5.994   2.702  10.022  1.0534 -1.0184  2.2942
  134SAPE   H4S14472   5.827   2.683   9.974 -0.6301  0.3346  0.6370
  134SAPE   C2514473   5.914   2.491   9.990 -0.0707 -0.1358 -0.2674
  134SAPE   H5R14474   5.867   2.413  10.051 -0.5933 -2.6378 -3.7420
  134SAPE   C2614475   5.970   2.467   9.864  0.1456  0.0870  0.2447
  134SAPE   H6R14476   5.954   2.365   9.824  2.2481  0.0354 -0.5387
  134SAPE   C2714477   6.034   2.558   9.768 -0.2420 -0.1328 -0.1245
  134SAPE   H7R14478   6.136   2.521   9.742 -0.9964 -2.2725 -0.1013
  134SAPE   H7S14479   6.064   2.651   9.820 -0.1116 -0.5270  0.5071
  134SAPE   C2814480   5.946   2.594   9.647 -0.1888 -1.0755 -0.3739
  134SAPE   H8R14481   5.869   2.669   9.668  2.0769  1.4248 -0.6820
  134SAPE   C2914482   5.966   2.552   9.518 -0.6123  0.9961 -0.2095
  134SAPE   H9R14483   5.899   2.583   9.436 -2.7632 -0.3813  0.9635
  134SAPE  C21014484   6.070   2.449   9.479 -0.3661 -0.1492  0.6359
  134SAPE  H10R14485   6.077   2.376   9.563 -0.6176 -1.2396 -0.2734
  134SAPE  H10S14486   6.166   2.505   9.474 -0.1745 -0.6426 -3.1252
  134SAPE  C21114487   6.039   2.378   9.356  0.0442  0.0366  1.1817
  134SAPE  H11R14488   5.957   2.305   9.367 -2.5284  2.9270  2.0323
  134SAPE  C21214489   6.110   2.362   9.247 -0.3695 -0.0950 -0.5160
  134SAPE  H12R14490   6.060   2.320   9.158 -0.4388  0.1096 -0.5743
  134SAPE  C21314491   6.251   2.422   9.222  0.6424  0.3463 -0.1280
  134SAPE  H13R14492   6.288   2.454   9.322 -1.8990 -1.6548  1.5129
  134SAPE  H13S14493   6.234   2.510   9.157 -0.1491  0.6160  0.4321
  134SAPE  C21414494   6.343   2.328   9.158  0.0792 -0.2275 -0.2308
  134SAPE  H14R14495   6.311   2.223   9.153  1.0550 -0.5419  0.0234
  134SAPE  C21514496   6.458   2.362   9.099  0.1031 -0.3944 -0.8411
  134SAPE  H15R14497   6.531   2.281   9.085 -0.1046 -0.6311 -0.5828
  134SAPE  C21614498   6.509   2.507   9.077 -0.0612 -0.4381  0.4569
  134SAPE  H16R14499   6.600   2.533   9.136 -0.3561  0.3246  0.5870
  134SAPE  H16S14500   6.437   2.586   9.105 -0.4242 -1.1807  1.6690
  134SAPE  C21714501   6.537   2.518   8.930  0.9389  0.3887 -0.0759
  134SAPE  H17R14502   6.609   2.441   8.894 -1.5895 -1.5801 -1.0993
  134SAPE  H17S14503   6.575   2.619   8.904 -0.5944  0.9912  0.0099
  134SAPE  C21814504   6.409   2.506   8.845  0.8132  0.0700  0.0251
  134SAPE  H18R14505   6.336   2.577   8.892  0.8790  0.8220 -0.9909
  134SAPE  H18S14506   6.364   2.404   8.849 -1.5235  1.0064 -1.0979
  134SAPE  C21914507   6.432   2.548   8.702  0.8410  0.3336  1.2213
  134SAPE  H19R14508   6.516   2.488   8.659  0.5691  1.4207 -0.9203
  134SAPE  H19S14509   6.468   2.654   8.702  0.5928  0.4365 -0.8285
  134SAPE  C22014510   6.305   2.532   8.614  0.1431  0.3403 -0.1000
  134SAPE  H20R14511   6.301   2.422   8.599 -0.1830  0.0081  2.0945
  134SAPE  H20S14512   6.308   2.565   8.509  0.4367  0.1212 -0.1603
  134SAPE  H20T14513   6.212   2.561   8.669  0.8418  1.1526  0.6553
  134SAPE   C3314514   6.131   2.064  10.109  0.4135 -1.2784  0.1380
  134SAPE   H3X14515   6.037   2.082  10.165  0.1154 -0.3289 -0.6442
  134SAPE   H3Y14516   6.130   1.973  10.045  1.9159 -1.6532  0.6131
  134SAPE   C3414517   6.154   2.183  10.012 -0.5455  0.5724 -0.5114
  134SAPE   H4X14518   6.199   2.268  10.068  0.2445  0.8477 -1.5265
  134SAPE   H4Y14519   6.064   2.233   9.970 -0.6152  0.6769 -0.2385
  134SAPE   C3514520   6.249   2.148   9.898 -0.5010  0.0165 -0.7299
  134SAPE   H5X14521   6.219   2.047   9.861  1.2061 -1.2358  1.2369
  134SAPE   H5Y14522   6.356   2.133   9.920 -0.2427  0.5638 -1.5761
  134SAPE   C3614523   6.255   2.247   9.781 -0.3417  0.8477  0.7844
  134SAPE   H6X14524   6.314   2.334   9.817  2.0880 -0.3286 -0.2435
  134SAPE   H6Y14525   6.155   2.273   9.742 -0.0709 -0.8058 -1.0793
  134SAPE   C3714526   6.317   2.180   9.654  0.1842 -0.3346 -0.0829
  134SAPE   H7X14527   6.389   2.103   9.691 -0.7636 -1.1075  0.1766
  134SAPE   H7Y14528   6.371   2.256   9.593 -0.9236  0.6536  0.1438
  134SAPE   C3814529   6.217   2.104   9.565  0.2368  0.1881  0.1006
  134SAPE   H8X14530   6.181   2.183   9.497  0.4095  0.0943 -0.0978
  134SAPE   H8Y14531   6.141   2.049   9.625  1.5086 -1.0711  0.5845
  134SAPE   C3914532   6.279   2.000   9.471  0.0892  0.0538  0.4441
  134SAPE   H9X14533   6.323   1.917   9.529 -0.3320  0.5450  1.4737
  134SAPE   H9Y14534   6.367   2.048   9.423  0.1787 -1.5140 -1.0247
  134SAPE  C31014535   6.194   1.939   9.362  0.4669  0.8447 -0.0527
  134SAPE  H10X14536   6.156   2.026   9.305  2.1674  0.7697 -1.3292
  134SAPE  H10Y14537   6.115   1.877   9.410 -0.2053  0.9494 -1.0211
  134SAPE  C31114538   6.272   1.836   9.266  0.6996  0.5709  0.5249
  134SAPE  H11X14539   6.222   1.737   9.271 -1.2395  1.4656 -0.3947
  134SAPE  H11Y14540   6.380   1.833   9.292  1.2090 -0.6751 -1.6061
  134SAPE  C31214541   6.256   1.881   9.121 -0.8506 -0.1476 -0.0029
  134SAPE  H12X14542   6.332   1.962   9.119  0.0176 -0.9218  1.3583
  134SAPE  H12Y14543   6.154   1.919   9.101 -0.5752 -0.4464 -2.1312
  134SAPE  C31314544   6.280   1.771   9.016  0.5441 -0.6914 -0.0011
  134SAPE  H13X14545   6.223   1.675   9.019  1.4859 -1.2237  1.2257
  134SAPE  H13Y14546   6.389   1.753   9.007  0.5408 -0.9394  0.4690
  134SAPE  C31414547   6.240   1.838   8.880  0.3695 -0.3819 -0.2131
  134SAPE  H14X14548   6.290   1.937   8.882 -2.9690  1.3816 -0.8929
  134SAPE  H14Y14549   6.130   1.851   8.874  0.2291 -1.0130  0.8177
  134SAPE  C31514550   6.270   1.750   8.759 -0.3192  0.3146  0.5381
  134SAPE  H15X14551   6.252   1.643   8.784  2.6361  0.2665  2.7732
  134SAPE  H15Y14552   6.381   1.761   8.761 -0.2648  0.2452 -1.5898
  134SAPE  C31614553   6.215   1.809   8.631  0.3868  0.1828  0.1572
  134SAPE  H16X14554   6.267   1.902   8.600  1.8572 -0.3906  0.8672
  134SAPE  H16Y14555   6.106   1.829   8.633 -0.2210 -2.7186 -0.5016
  134SAPE  C31714556   6.222   1.694   8.531 -0.0701  0.4943  0.0705
  134SAPE  H17X14557   6.316   1.635   8.544  1.3244  2.8087  0.8190
  134SAPE  H17Y14558   6.209   1.728   8.426  0.9840 -0.4002 -0.3647
  134SAPE  C31814559   6.112   1.591   8.541 -0.6990  0.0586 -0.3171
  134SAPE  H18X14560   6.123   1.521   8.627 -0.1853  1.9945  1.2236
  134SAPE  H18Y14561   6.109   1.527   8.450  0.1850 -0.5854  0.0888
  134SAPE  H18Z14562   6.012   1.638   8.549 -0.5998  0.4116 -1.1121
  135SAPE     N14563   5.150   0.982  10.601 -0.6736  0.4261 -0.0314
  135SAPE   HN114564   5.169   1.081  10.626  0.9663  0.3675 -0.9930
  135SAPE   HN214565   5.046   0.975  10.603 -0.6737  0.4964  0.2034
  135SAPE   HN314566   5.188   0.919  10.674 -0.5674  0.1361 -0.3371
  135SAPE   C1214567   5.206   0.932  10.467 -0.4566  0.2852  0.0941
  135SAPE  H12A14568   5.311   0.967  10.465 -1.3061  3.1770  2.2406
  135SAPE  H12B14569   5.140   0.987  10.396 -0.9036  0.0981  0.3610
  135SAPE   C1114570   5.204   0.782  10.453  0.4725 -0.1299 -0.2370
  135SAPE  H11A14571   5.263   0.742  10.537  1.1174 -0.2145 -0.7278
  135SAPE  H11B14572   5.245   0.743  10.357 -0.4112 -2.6837  0.3978
  135SAPE     P14573   5.051   0.583  10.483 -0.1205 -0.5730  0.1002
  135SAPE   O1314574   5.143   0.530  10.581 -0.1138 -0.1876  0.6088
  135SAPE   O1414575   4.906   0.581  10.518 -0.5141  0.3992  0.3832
  135SAPE   O1214576   5.074   0.739  10.448  0.6461  0.2351 -0.2527
  135SAPE   O1114577   5.067   0.501  10.349  0.3749 -1.0132 -0.7597
  135SAPE    C114578   4.964   0.502  10.253 -0.3286 -0.2512  0.6920
  135SAPE    HA14579   4.875   0.562  10.281 -1.0267 -0.6660 -0.5859
  135SAPE    HB14580   5.002   0.547  10.159 -1.8185  0.5580  0.4623
  135SAPE    C214581   4.906   0.353  10.220  0.2644  0.7735  0.8235
  135SAPE    HS14582   4.845   0.311  10.302 -1.7072 -2.9757 -2.4453
  135SAPE   O2114583   5.016   0.267  10.194  0.2967 -0.0836  0.1254
  135SAPE   C2114584   5.069   0.210  10.295  0.1400  0.3124  0.2305
  135SAPE   O2214585   5.025   0.214  10.411  0.5889 -0.1703  0.1855
  135SAPE   C2214586   5.211   0.150  10.264 -0.4090 -0.3532  0.5486
  135SAPE   H2R14587   5.236   0.159  10.156  1.1220 -1.0810  0.8231
  135SAPE   H2S14588   5.280   0.216  10.322  1.3979 -1.0876 -0.7277
  135SAPE    C314589   4.807   0.354  10.096 -0.1219  0.1428 -0.4786
  135SAPE    HX14590   4.734   0.435  10.120 -0.4604 -0.2051 -0.3226
  135SAPE    HY14591   4.753   0.257  10.098  1.7317 -0.9040 -0.9231
  135SAPE   O3114592   4.877   0.380   9.976 -0.0564  0.5194  0.2628
  135SAPE   C3114593   4.808   0.398   9.863 -0.6442  0.4959  0.4062
  135SAPE   O3214594   4.686   0.386   9.857 -0.4109  0.1772 -0.5339
  135SAPE   C3214595   4.891   0.453   9.750 -0.3055  0.3862  0.0719
  135SAPE   H2X14596   4.992   0.412   9.770 -0.9987 -2.0413 -1.2422
  135SAPE   H2Y14597   4.869   0.562   9.753 -0.7251  0.2956  0.4642
  135SAPE   C2314598   5.232   0.001  10.316  0.3861  0.3862 -0.3568
  135SAPE   H3R14599   5.201  -0.072  10.238 -2.1371 -0.0500  0.9867
  135SAPE   H3S14600   5.165   0.003  10.404 -0.9356  0.4080 -1.3370
  135SAPE   C2414601   5.371  -0.043  10.348 -0.3821 -0.1581 -0.6423
  135SAPE   H4R14602   5.379  -0.141  10.400 -0.4767 -0.0164 -0.3578
  135SAPE   H4S14603   5.407   0.011  10.438 -1.0762 -0.0788 -0.4112
  135SAPE   C2514604   5.472  -0.019  10.239  0.0146  0.3309 -0.7255
  135SAPE   H5R14605   5.508   0.085  10.235  0.2829  0.2436 -0.5374
  135SAPE   C2614606   5.493  -0.104  10.134 -0.1801 -0.2085  0.3108
  135SAPE   H6R14607   5.568  -0.070  10.061 -0.8322 -0.7573 -0.6265
  135SAPE   C2714608   5.432  -0.240  10.114  0.3178 -0.1180 -0.0111
  135SAPE   H7R14609   5.327  -0.224  10.081  0.9797 -0.0182 -2.1702
  135SAPE   H7S14610   5.428  -0.293  10.212 -2.3631 -0.1130 -0.0629
  135SAPE   C2814611   5.497  -0.328  10.007  1.2922 -0.0647  0.3833
  135SAPE   H8R14612   5.583  -0.381  10.050  2.9126 -0.4366 -3.1248
  135SAPE   C2914613   5.468  -0.340   9.879  0.0933  0.6363  1.1938
  135SAPE   H9R14614   5.533  -0.404   9.817 -1.1213  0.0443  0.5236
  135SAPE  C21014615   5.359  -0.266   9.806  0.7004  1.3347 -0.1762
  135SAPE  H10R14616   5.274  -0.262   9.877  0.5290  1.2727 -0.3772
  135SAPE  H10S14617   5.314  -0.327   9.725 -1.0806  0.6652  1.2776
  135SAPE  C21114618   5.410  -0.132   9.756  0.2370 -0.1133  0.1639
  135SAPE  H11R14619   5.412  -0.056   9.835  1.3431  0.0908 -0.0490
  135SAPE  C21214620   5.443  -0.098   9.624 -0.5859  0.5214 -0.7173
  135SAPE  H12R14621   5.492  -0.001   9.605 -1.0178  0.8503 -0.1633
  135SAPE  C21314622   5.428  -0.194   9.510 -0.0221  0.4019  1.1312
  135SAPE  H13R14623   5.320  -0.215   9.491  0.3262  0.2134 -0.7637
  135SAPE  H13S14624   5.475  -0.291   9.537 -3.0465 -1.1614  1.0254
  135SAPE  C21414625   5.477  -0.145   9.375 -0.7047 -0.3647  0.2723
  135SAPE  H14R14626   5.487  -0.036   9.374  0.8862 -0.4479  3.2190
  135SAPE  C21514627   5.506  -0.223   9.270 -0.8400  0.3452 -0.9234
  135SAPE  H15R14628   5.558  -0.180   9.183  1.6164 -4.0659 -1.8344
  135SAPE  C21614629   5.491  -0.381   9.270 -0.3872 -0.1127 -0.0539
  135SAPE  H16R14630   5.405  -0.406   9.335  0.4527  0.6605  1.3879
  135SAPE  H16S14631   5.573  -0.424   9.332 -0.6145  0.7138  0.8216
  135SAPE  C21714632   5.498  -0.441   9.132 -0.2612 -0.0335 -0.6561
  135SAPE  H17R14633   5.416  -0.404   9.068  0.2996  0.3243 -1.1703
  135SAPE  H17S14634   5.475  -0.550   9.135 -1.1204  0.1645  0.2175
  135SAPE  C21814635   5.630  -0.426   9.055 -0.5138  0.0226 -0.0498
  135SAPE  H18R14636   5.715  -0.485   9.096 -0.3636 -1.1650 -2.0133
  135SAPE  H18S14637   5.664  -0.320   9.062 -1.2774  0.2274  0.6204
  135SAPE  C21914638   5.610  -0.437   8.900  0.4487 -0.1919  0.5514
  135SAPE  H19R14639   5.556  -0.351   8.856  0.9701 -1.9485 -3.7985
  135SAPE  H19S14640   5.558  -0.533   8.880  0.0186  0.2652 -0.5585
  135SAPE  C22014641   5.735  -0.458   8.825  0.4488 -0.1328  0.5532
  135SAPE  H20R14642   5.807  -0.373   8.834 -2.1018  1.9946  1.6611
  135SAPE  H20S14643   5.727  -0.467   8.714 -4.2884  0.2028  0.7897
  135SAPE  H20T14644   5.790  -0.544   8.867 -0.2783 -1.2838 -0.8275
  135SAPE   C3314645   4.851   0.394   9.612  0.4979  0.0273  0.4692
  135SAPE   H3X14646   4.740   0.388   9.614  0.5381 -0.4530  1.5452
  135SAPE   H3Y14647   4.886   0.291   9.590  0.2234 -0.0174  0.2337
  135SAPE   C3414648   4.880   0.495   9.490  0.3176  0.5434 -0.8220
  135SAPE   H4X14649   4.845   0.597   9.519  0.0512  0.1177  0.3665
  135SAPE   H4Y14650   4.811   0.458   9.411 -1.4767  0.0438  0.9268
  135SAPE   C3514651   5.026   0.494   9.445  0.8421 -0.0523  0.3465
  135SAPE   H5X14652   5.051   0.387   9.429  0.7210  0.3731 -3.1241
  135SAPE   H5Y14653   5.102   0.530   9.518  2.8136  1.2775 -2.2734
  135SAPE   C3614654   5.065   0.568   9.321  0.4502 -0.2772  0.2480
  135SAPE   H6X14655   5.170   0.538   9.298 -0.2950 -0.5508 -3.0479
  135SAPE   H6Y14656   5.055   0.675   9.348  1.9369 -0.0635  0.0102
  135SAPE   C3714657   4.983   0.534   9.192 -0.5418 -0.4961  0.0496
  135SAPE   H7X14658   5.026   0.595   9.110  0.0971  1.8429  2.0447
  135SAPE   H7Y14659   4.880   0.573   9.205 -0.1021  0.2102  1.5211
  135SAPE   C3814660   4.985   0.390   9.154 -0.1818  0.0117  0.0286
  135SAPE   H8X14661   4.938   0.333   9.237  0.2835 -0.5579 -0.0998
  135SAPE   H8Y14662   5.089   0.351   9.156 -0.6118 -1.1125  1.7620
  135SAPE   C3914663   4.923   0.351   9.017 -0.0872 -0.1949  0.8422
  135SAPE   H9X14664   4.972   0.421   8.945 -0.8601  0.0202  0.5217
  135SAPE   H9Y14665   4.816   0.380   9.007 -0.2160 -1.3939 -1.7531
  135SAPE  C31014666   4.932   0.204   8.971 -0.0637  0.2750 -0.7551
  135SAPE  H10X14667   4.848   0.150   9.019  1.1552  0.6856  1.8993
  135SAPE  H10Y14668   5.028   0.155   8.998 -0.3300 -0.7665 -1.6340
  135SAPE  C31114669   4.930   0.179   8.822  0.6535 -0.6121 -0.6672
  135SAPE  H11X14670   4.848   0.242   8.780 -1.1156 -2.1389  0.4266
  135SAPE  H11Y14671   4.897   0.074   8.810  1.7177 -1.2756  1.7475
  135SAPE  C31214672   5.069   0.208   8.750 -0.7377  0.2985 -0.2856
  135SAPE  H12X14673   5.147   0.141   8.793 -0.5210  0.3002 -0.6809
  135SAPE  H12Y14674   5.091   0.314   8.777 -1.1054 -0.4415  3.1402
  135SAPE  C31314675   5.070   0.195   8.597  0.5794  0.3237  0.3683
  135SAPE  H13X14676   5.158   0.254   8.563 -1.0325  2.0475 -0.8865
  135SAPE  H13Y14677   4.981   0.247   8.556  0.3873 -0.1768  0.1463
  135SAPE  C31414678   5.079   0.053   8.546 -0.4194  0.0058  0.3081
  135SAPE  H14X14679   4.981   0.005   8.563 -0.1738 -0.8980 -0.7818
  135SAPE  H14Y14680   5.144  -0.008   8.612  1.4227 -0.2176 -1.6667
  135SAPE  C31514681   5.126   0.035   8.404  0.4705 -0.7233 -0.3484
  135SAPE  H15X14682   5.227   0.081   8.404  0.7508 -1.3350  0.4265
  135SAPE  H15Y14683   5.054   0.072   8.327 -1.4221 -0.2792  1.5692
  135SAPE  C31614684   5.141  -0.108   8.376 -0.2392 -0.6491 -0.4252
  135SAPE  H16X14685   5.039  -0.152   8.373 -1.0539  1.1026  0.8520
  135SAPE  H16Y14686   5.194  -0.159   8.459  0.7515 -0.4341 -0.9209
  135SAPE  C31714687   5.216  -0.139   8.243  0.2289 -0.4812  0.1862
  135SAPE  H17X14688   5.158  -0.081   8.168 -0.1729 -0.8716  0.1968
  135SAPE  H17Y14689   5.190  -0.247   8.236 -0.2114 -0.2950 -1.2297
  135SAPE  C31814690   5.366  -0.115   8.238 -0.3253  0.2384 -0.2023
  135SAPE  H18X14691   5.417  -0.165   8.324 -0.7492  1.8024  0.9840
  135SAPE  H18Y14692   5.393  -0.008   8.249  2.5459 -0.6018  1.5892
  135SAPE  H18Z14693   5.411  -0.158   8.146  1.9674  1.7509  0.1831
  136SAPE     N14694   0.806   0.399  11.235 -0.5261  0.3102 -0.1440
  136SAPE   HN114695   0.764   0.368  11.325 -1.0553 -1.5559 -1.0077
  136SAPE   HN214696   0.860   0.488  11.231  0.4381 -0.2356  0.5010
  136SAPE   HN314697   0.733   0.399  11.162  0.6990  0.3603 -1.3965
  136SAPE   C1214698   0.901   0.280  11.228  0.5428  1.0306  0.2369
  136SAPE  H12A14699   0.836   0.192  11.208  1.0370  1.1913 -2.1792
  136SAPE  H12B14700   0.943   0.256  11.329  0.5746 -1.2498 -0.2912
  136SAPE   C1114701   1.014   0.294  11.120 -0.6752 -0.0904  0.2292
  136SAPE  H11A14702   1.083   0.207  11.120 -0.6447 -0.0836  2.0966
  136SAPE  H11B14703   1.067   0.388  11.144  0.9958 -1.2971  1.3790
  136SAPE     P14704   0.925   0.434  10.915  0.0450 -0.4006  0.2082
  136SAPE   O1314705   0.832   0.402  10.804 -0.1325 -0.7543 -0.6815
  136SAPE   O1414706   0.887   0.548  11.006 -0.2191  0.6536  0.1039
  136SAPE   O1214707   0.951   0.299  10.995  0.0566  0.5473 -0.2614
  136SAPE   O1114708   1.064   0.471  10.843  0.3606  0.0478 -0.2968
  136SAPE    C114709   1.131   0.361  10.790  0.3681  0.3257 -0.2923
  136SAPE    HA14710   1.154   0.281  10.864 -1.2061 -1.3797 -1.5939
  136SAPE    HB14711   1.073   0.308  10.712  0.1506 -0.2187  0.2388
  136SAPE    C214712   1.262   0.407  10.725 -0.8368  0.5305 -0.8894
  136SAPE    HS14713   1.335   0.417  10.807 -0.0993  0.0585 -1.4807
  136SAPE   O2114714   1.244   0.534  10.663  0.7462  0.5238  0.1423
  136SAPE   C2114715   1.341   0.616  10.660 -0.4629 -0.5691  0.2226
  136SAPE   O2214716   1.452   0.600  10.712 -0.5347  0.2499 -0.2247
  136SAPE   C2214717   1.299   0.744  10.574  0.1890 -1.0212  0.0807
  136SAPE   H2R14718   1.249   0.715  10.479  0.0636  0.3716 -0.2966
  136SAPE   H2S14719   1.218   0.781  10.640 -0.0635 -0.2964 -0.6324
  136SAPE    C314720   1.318   0.305  10.623  0.0025 -0.3298  0.0434
  136SAPE    HX14721   1.323   0.209  10.679 -0.6583 -1.0841 -1.1602
  136SAPE    HY14722   1.417   0.330  10.579  1.1054 -1.5880  1.7176
  136SAPE   O3114723   1.217   0.282  10.516 -0.6531  0.6507  0.1569
  136SAPE   C3114724   1.232   0.359  10.411  0.5357  0.5585  0.2887
  136SAPE   O3214725   1.311   0.445  10.399 -0.1522  0.4072  0.1095
  136SAPE   C3214726   1.138   0.310  10.299 -0.0158 -0.4445 -0.0567
  136SAPE   H2X14727   1.036   0.321  10.341  0.6258 -1.2343  1.7264
  136SAPE   H2Y14728   1.159   0.201  10.295  0.4889 -0.3557  0.0855
  136SAPE   C2314729   1.401   0.854  10.555 -0.3257  0.2589 -0.0721
  136SAPE   H3R14730   1.454   0.874  10.651  1.0543  0.3483 -0.8385
  136SAPE   H3S14731   1.347   0.946  10.524 -1.8287 -1.2058 -1.8956
  136SAPE   C2414732   1.511   0.815  10.456 -0.4313  0.2976  0.2441
  136SAPE   H4R14733   1.574   0.745  10.515 -0.0515 -0.6058 -1.2118
  136SAPE   H4S14734   1.586   0.896  10.448  0.2769 -0.4133 -0.3591
  136SAPE   C2514735   1.475   0.756  10.321  0.4416 -0.0033  0.6819
  136SAPE   H5R14736   1.452   0.648  10.327 -0.8554  0.0170 -2.8254
  136SAPE   C2614737   1.473   0.827  10.207 -0.1847 -0.4955  0.5024
  136SAPE   H6R14738   1.438   0.778  10.115 -0.3623 -0.8953  0.7807
  136SAPE   C2714739   1.486   0.983  10.190 -0.2845  0.1173 -0.2228
  136SAPE   H7R14740   1.566   1.008  10.117  0.1175  0.5757  0.3675
  136SAPE   H7S14741   1.519   1.036  10.282  0.7553  0.6819 -0.9085
  136SAPE   C2814742   1.365   1.069  10.159 -0.3839 -0.6705  0.4957
  136SAPE   H8R14743   1.316   1.122  10.242  0.1468 -0.1778  0.4950
  136SAPE   C2914744   1.310   1.086  10.035  0.2551  0.6148  0.5374
  136SAPE   H9R14745   1.225   1.154  10.018  0.9193  1.3280  0.0534
  136SAPE  C21014746   1.365   1.011   9.912  0.4285 -0.1228  0.5582
  136SAPE  H10R14747   1.300   1.031   9.825  2.5324  2.3694 -0.5360
  136SAPE  H10S14748   1.373   0.903   9.935 -2.7404 -0.1321  1.8172
  136SAPE  C21114749   1.498   1.063   9.858 -0.4699 -0.5292 -0.3568
  136SAPE  H11R14750   1.568   1.122   9.920 -0.1912 -0.6755 -0.5280
  136SAPE  C21214751   1.540   1.027   9.735 -1.0535 -0.0358 -0.9138
  136SAPE  H12R14752   1.636   1.068   9.700 -0.7546  0.5068  0.4945
  136SAPE  C21314753   1.483   0.933   9.629  0.2970  0.3639  0.6053
  136SAPE  H13R14754   1.377   0.916   9.657 -0.3656  2.2728 -0.6660
  136SAPE  H13S14755   1.537   0.836   9.632 -0.6675 -0.1744  0.9498
  136SAPE  C21414756   1.490   0.992   9.492  0.4169 -0.3234  0.0283
  136SAPE  H14R14757   1.436   1.088   9.485  1.0617 -0.0321 -1.1202
  136SAPE  C21514758   1.567   0.961   9.386 -0.4897  0.5746 -0.0913
  136SAPE  H15R14759   1.555   1.026   9.298 -1.4005  0.9276  0.2932
  136SAPE  C21614760   1.663   0.847   9.373  0.9190  0.1106  0.4696
  136SAPE  H16R14761   1.710   0.821   9.470  1.5953  0.4393  0.2303
  136SAPE  H16S14762   1.744   0.866   9.299  0.8126 -1.4831 -0.0720
  136SAPE  C21714763   1.601   0.717   9.317  1.1508 -0.3235  0.0717
  136SAPE  H17R14764   1.526   0.664   9.378 -1.2351  1.1061 -1.5244
  136SAPE  H17S14765   1.691   0.655   9.296  0.1569 -1.0544 -2.2281
  136SAPE  C21814766   1.533   0.739   9.183 -0.0400  1.1071  0.3335
  136SAPE  H18R14767   1.601   0.799   9.119  0.0217 -0.1895 -0.8440
  136SAPE  H18S14768   1.445   0.801   9.212  0.2097  1.3592  0.5576
  136SAPE  C21914769   1.498   0.612   9.103  0.6099 -0.5332 -0.1466
  136SAPE  H19R14770   1.596   0.565   9.079  1.6049  2.2266 -1.7923
  136SAPE  H19S14771   1.460   0.641   9.002  3.5494 -0.5340 -1.3152
  136SAPE  C22014772   1.405   0.516   9.180  0.1675  0.4913  0.7807
  136SAPE  H20R14773   1.319   0.579   9.209 -0.4633  0.3976 -0.8440
  136SAPE  H20S14774   1.443   0.477   9.277 -1.1459 -1.1698  0.6444
  136SAPE  H20T14775   1.364   0.436   9.115  0.1520  2.2536 -1.4208
  136SAPE   C3314776   1.133   0.389  10.167 -0.3730 -0.2910  0.1819
  136SAPE   H3X14777   1.233   0.408  10.124 -0.3482  0.8356  0.7201
  136SAPE   H3Y14778   1.087   0.490  10.173 -0.3255 -0.0676 -2.4368
  136SAPE   C3414779   1.038   0.325  10.068  0.2351  0.3590  0.7179
  136SAPE   H4X14780   0.934   0.312  10.103  0.0251  1.8214  0.6852
  136SAPE   H4Y14781   1.090   0.229  10.047 -4.0412 -1.9296 -0.0576
  136SAPE   C3514782   1.044   0.401   9.934 -0.1931  0.3499 -0.0596
  136SAPE   H5X14783   1.134   0.466   9.936  0.8951 -1.0847 -1.3209
  136SAPE   H5Y14784   0.952   0.461   9.919 -1.3230 -1.5948 -1.2116
  136SAPE   C3614785   1.036   0.310   9.817 -0.2257 -0.1632 -0.5311
  136SAPE   H6X14786   0.945   0.247   9.826 -1.9732  2.2028 -1.4202
  136SAPE   H6Y14787   1.118   0.236   9.808 -0.9215 -1.5193  3.1520
  136SAPE   C3714788   1.021   0.389   9.680  0.7123 -0.0394  0.6391
  136SAPE   H7X14789   1.103   0.462   9.659 -0.7388  2.2533  2.6580
  136SAPE   H7Y14790   0.929   0.450   9.689 -0.0335 -0.6684 -2.3139
  136SAPE   C3814791   0.997   0.292   9.566 -0.2920 -0.1832 -0.3343
  136SAPE   H8X14792   0.933   0.344   9.492  1.5362  1.9436 -0.4828
  136SAPE   H8Y14793   0.945   0.205   9.610  0.1777 -1.3665 -2.0665
  136SAPE   C3914794   1.120   0.254   9.482 -0.3768  0.8767 -0.2670
  136SAPE   H9X14795   1.177   0.191   9.554  0.6366  2.4490  0.3205
  136SAPE   H9Y14796   1.183   0.341   9.455  0.9483  0.0190  0.0197
  136SAPE  C31014797   1.090   0.183   9.356  0.5279  0.0288 -0.0287
  136SAPE  H10X14798   1.038   0.240   9.276  0.9237 -0.9471 -0.9774
  136SAPE  H10Y14799   1.017   0.106   9.389  0.0671 -0.0517 -1.2023
  136SAPE  C31114800   1.217   0.125   9.298 -0.4020 -0.9000 -0.5929
  136SAPE  H11X14801   1.266   0.067   9.379  1.2530  1.7351  0.3673
  136SAPE  H11Y14802   1.291   0.206   9.282 -3.3966  1.5037 -2.9258
  136SAPE  C31214803   1.213   0.036   9.181 -0.2984  0.2769  0.1589
  136SAPE  H12X14804   1.148  -0.054   9.188 -1.2352  0.9313  0.0340
  136SAPE  H12Y14805   1.320   0.008   9.174  0.0469  1.5040  0.4358
  136SAPE  C31314806   1.166   0.112   9.057 -0.5991 -0.5298 -0.1269
  136SAPE  H13X14807   1.213   0.213   9.059  0.5644 -1.0383 -0.9011
  136SAPE  H13Y14808   1.055   0.122   9.053 -0.3204  2.4935 -3.1157
  136SAPE  C31414809   1.196   0.032   8.928  0.7937 -0.2192  0.3957
  136SAPE  H14X14810   1.153  -0.069   8.943  1.5857 -0.5525  0.4534
  136SAPE  H14Y14811   1.302   0.016   8.901 -0.0793 -1.0806 -2.7653
  136SAPE  C31514812   1.128   0.096   8.804 -0.7381  0.3192 -0.0867
  136SAPE  H15X14813   1.018   0.104   8.813 -0.9091 -0.0129 -1.6737
  136SAPE  H15Y14814   1.139   0.030   8.715  0.5488  0.5491 -0.1136
  136SAPE  C31614815   1.196   0.231   8.759 -0.4847  0.3535  0.3498
  136SAPE  H16X14816   1.306   0.214   8.757 -0.3772  1.0882 -1.0485
  136SAPE  H16Y14817   1.178   0.305   8.840 -2.5723  1.1535 -0.8119
  136SAPE  C31714818   1.152   0.290   8.629 -0.3218  0.0487 -0.2907
  136SAPE  H17X14819   1.042   0.303   8.639 -0.0993  1.8612  0.0122
  136SAPE  H17Y14820   1.168   0.221   8.543 -0.6896  1.1785 -1.2789
  136SAPE  C31814821   1.224   0.423   8.599 -0.0913  0.3498  0.2452
  136SAPE  H18X14822   1.210   0.500   8.677  0.7813 -0.8899  1.6535
  136SAPE  H18Y14823   1.192   0.457   8.498  1.7309  0.7907 -0.2020
  136SAPE  H18Z14824   1.333   0.403   8.596 -0.2609 -0.4884 -1.1529
  137SAPE     N14825   6.263   3.552  11.016  0.1614 -0.0119  1.2764
  137SAPE   HN114826   6.365   3.545  11.034 -0.0632 -0.9440  2.2277
  137SAPE   HN214827   6.228   3.468  10.965  2.1699 -0.5764  0.7719
  137SAPE   HN314828   6.248   3.636  10.956 -1.0393 -0.2281  1.2514
  137SAPE   C1214829   6.195   3.577  11.145  0.5555  0.0594 -0.2953
  137SAPE  H12A14830   6.232   3.674  11.185  1.0524 -1.0479  1.9967
  137SAPE  H12B14831   6.220   3.503  11.224  0.5840 -0.1178 -0.4687
  137SAPE   C1114832   6.041   3.581  11.114  0.4439  0.6443  0.3808
  137SAPE  H11A14833   6.001   3.609  11.214 -3.4256  0.3447 -1.0059
  137SAPE  H11B14834   6.013   3.482  11.070 -0.4958  1.9896 -2.1266
  137SAPE     P14835   5.864   3.704  10.969 -0.0655 -0.4100  0.2270
  137SAPE   O1314836   5.798   3.575  10.949 -0.0203 -0.8337 -0.0436
  137SAPE   O1414837   5.795   3.803  11.052  0.6727 -0.3909  0.1176
  137SAPE   O1214838   6.010   3.685  11.019  0.0064 -0.1620 -0.4253
  137SAPE   O1114839   5.890   3.763  10.818  0.3288 -0.8667  0.2772
  137SAPE    C114840   5.984   3.699  10.733 -0.7295 -0.1881  0.0455
  137SAPE    HA14841   6.077   3.759  10.742 -1.8073  1.5496 -0.1708
  137SAPE    HB14842   6.014   3.593  10.750  1.9110  0.3706 -0.7548
  137SAPE    C214843   5.940   3.719  10.588  0.3670  0.1804 -0.1969
  137SAPE    HS14844   5.920   3.828  10.584  0.1935  0.1747  0.4060
  137SAPE   O2114845   5.823   3.626  10.574 -0.3113 -0.1308 -0.1785
  137SAPE   C2114846   5.709   3.682  10.547  0.1132 -0.4120  0.5065
  137SAPE   O2214847   5.686   3.806  10.539  0.2601  0.2035  0.6337
  137SAPE   C2214848   5.609   3.575  10.501 -0.0716  0.2383  0.0222
  137SAPE   H2R14849   5.675   3.491  10.470 -0.2538  0.0898  0.0350
  137SAPE   H2S14850   5.549   3.539  10.588  1.5272 -0.2507  0.9478
  137SAPE    C314851   6.046   3.681  10.485  0.3411  0.0902  0.4103
  137SAPE    HX14852   6.078   3.581  10.521 -0.8922 -0.7667 -0.8159
  137SAPE    HY14853   6.133   3.751  10.483 -1.2033  2.0539 -0.2458
  137SAPE   O3114854   5.984   3.675  10.349  0.0391 -0.7376  0.4458
  137SAPE   C3114855   5.932   3.562  10.309 -0.6711 -0.4944  0.9240
  137SAPE   O3214856   5.906   3.466  10.379  0.2117  0.1175  0.2988
  137SAPE   C3214857   5.899   3.574  10.162  0.0579 -0.2372  0.3650
  137SAPE   H2X14858   5.850   3.673  10.152  1.3911  0.3325 -0.8217
  137SAPE   H2Y14859   5.839   3.492  10.116 -0.9885  1.8373 -2.1092
  137SAPE   C2314860   5.527   3.620  10.378  0.3982 -0.4423 -0.0473
  137SAPE   H3R14861   5.607   3.643  10.304  2.0329 -0.8717  1.5474
  137SAPE   H3S14862   5.487   3.713  10.424 -1.3031 -1.3917  0.4274
  137SAPE   C2414863   5.425   3.517  10.317 -0.5273  0.1286  0.1218
  137SAPE   H4R14864   5.383   3.561  10.223 -1.7646 -1.7822 -0.2499
  137SAPE   H4S14865   5.350   3.512  10.399 -1.5561 -0.4877 -0.8343
  137SAPE   C2514866   5.480   3.381  10.296 -0.6808 -0.0093  0.7531
  137SAPE   H5R14867   5.498   3.320  10.386 -2.1479 -1.6074  0.0022
  137SAPE   C2614868   5.525   3.331  10.182  0.0351  0.0406 -0.1450
  137SAPE   H6R14869   5.565   3.229  10.184 -0.9969 -0.4055 -1.8118
  137SAPE   C2714870   5.530   3.392  10.044 -0.3407  0.9574 -0.1466
  137SAPE   H7R14871   5.591   3.485  10.050 -2.1406  2.0747  1.5120
  137SAPE   H7S14872   5.428   3.433  10.028 -1.4675 -0.8157  2.1227
  137SAPE   C2814873   5.582   3.296   9.940 -0.2324  0.2475 -0.0146
  137SAPE   H8R14874   5.559   3.190   9.955  1.5825 -0.1665 -0.0258
  137SAPE   C2914875   5.644   3.336   9.826  0.6789  0.7240  0.7102
  137SAPE   H9R14876   5.682   3.265   9.751  1.2325  3.4079 -1.6798
  137SAPE  C21014877   5.676   3.475   9.772 -0.4737 -0.0608  0.2263
  137SAPE  H10R14878   5.728   3.524   9.858 -0.1603 -0.8823  0.5060
  137SAPE  H10S14879   5.585   3.536   9.751  1.2921  3.4907  2.2775
  137SAPE  C21114880   5.771   3.492   9.661  0.0890 -0.0552 -0.2296
  137SAPE  H11R14881   5.865   3.544   9.684  0.2947 -1.0207  1.1415
  137SAPE  C21214882   5.744   3.476   9.531  0.4116 -0.3523  0.0891
  137SAPE  H12R14883   5.832   3.483   9.465  1.6194 -1.6142  1.5336
  137SAPE  C21314884   5.617   3.427   9.472  0.2267  0.0646  0.0335
  137SAPE  H13R14885   5.572   3.496   9.397 -1.4965  1.2543  2.1147
  137SAPE  H13S14886   5.529   3.421   9.539  0.1443  2.9098  0.2300
  137SAPE  C21414887   5.637   3.294   9.406  0.2166  0.4730 -0.6495
  137SAPE  H14R14888   5.637   3.206   9.472 -1.8290 -1.2721 -2.8972
  137SAPE  C21514889   5.656   3.267   9.277 -0.5079  0.4948 -0.1194
  137SAPE  H15R14890   5.667   3.162   9.247 -1.3946  0.7223 -1.2540
  137SAPE  C21614891   5.664   3.365   9.164  0.2239 -0.5472 -0.0623
  137SAPE  H16R14892   5.576   3.432   9.173  2.5267  2.5814 -0.0390
  137SAPE  H16S14893   5.648   3.319   9.064 -4.7362 -0.8485  0.7144
  137SAPE  C21714894   5.798   3.447   9.144  0.1121  1.1467 -0.2858
  137SAPE  H17R14895   5.878   3.371   9.142  0.4811  1.4779  1.1951
  137SAPE  H17S14896   5.821   3.527   9.218 -0.9362  1.8246 -0.6701
  137SAPE  C21814897   5.794   3.546   9.024 -0.1246  0.3907 -0.6280
  137SAPE  H18R14898   5.796   3.485   8.931 -0.2687  1.6425 -1.4790
  137SAPE  H18S14899   5.884   3.612   9.030 -0.0337  0.3900 -1.8228
  137SAPE  C21914900   5.668   3.633   9.026 -0.5793  0.1087 -0.1146
  137SAPE  H19R14901   5.670   3.692   9.120  0.6397 -0.6865  0.3600
  137SAPE  H19S14902   5.579   3.566   9.032 -1.5237  1.2990 -0.4718
  137SAPE  C22014903   5.646   3.728   8.910 -0.2741  0.3792  0.1440
  137SAPE  H20R14904   5.710   3.818   8.922  0.4668  0.5519 -4.2264
  137SAPE  H20S14905   5.536   3.746   8.905 -0.2983 -0.1876 -1.6849
  137SAPE  H20T14906   5.673   3.677   8.816 -2.3298 -1.5228  0.5321
  137SAPE   C3314907   6.026   3.581  10.077 -0.0635 -0.4397  1.0827
  137SAPE   H3X14908   6.074   3.484  10.053 -1.5373 -1.3361  1.7550
  137SAPE   H3Y14909   6.110   3.642  10.118 -2.2970  2.3761  1.6434
  137SAPE   C3414910   6.004   3.664   9.950 -0.1516 -0.4165 -0.4882
  137SAPE   H4X14911   5.960   3.758   9.988  0.1369 -0.1554 -0.7962
  137SAPE   H4Y14912   5.918   3.626   9.891  0.2477 -1.0323 -0.6797
  137SAPE   C3514913   6.134   3.694   9.864  0.6090  0.5800  0.9285
  137SAPE   H5X14914   6.154   3.595   9.818 -0.2194 -1.2210  4.2629
  137SAPE   H5Y14915   6.222   3.708   9.930  1.6767 -1.3619 -0.0629
  137SAPE   C3614916   6.104   3.806   9.758 -0.2584  0.2413 -0.8431
  137SAPE   H6X14917   6.201   3.858   9.742  0.1604 -0.2627 -0.0007
  137SAPE   H6Y14918   6.039   3.876   9.815  1.6707 -0.6702  2.6418
  137SAPE   C3714919   6.061   3.766   9.618 -0.2892 -0.6910  0.1771
  137SAPE   H7X14920   5.957   3.728   9.622 -0.5484 -0.0280 -0.2544
  137SAPE   H7Y14921   6.128   3.678   9.607  1.4775  0.6952 -0.2374
  137SAPE   C3814922   6.085   3.862   9.499 -0.2270  0.0745 -0.0801
  137SAPE   H8X14923   6.195   3.865   9.482  0.1125  0.8277  2.1831
  137SAPE   H8Y14924   6.046   3.962   9.526  0.6784  0.4161 -0.0033
  137SAPE   C3914925   6.018   3.809   9.368  0.0428 -0.3113 -1.4309
  137SAPE   H9X14926   5.912   3.788   9.391  0.2953  0.1848  0.2458
  137SAPE   H9Y14927   6.064   3.708   9.361 -2.2164 -1.8103  3.2468
  137SAPE  C31014928   6.050   3.893   9.245 -0.0291  0.0453  0.2416
  137SAPE  H10X14929   6.153   3.931   9.262  0.2286  0.1919 -1.6282
  137SAPE  H10Y14930   5.977   3.977   9.254 -1.4566 -1.3652  2.3200
  137SAPE  C31114931   6.050   3.820   9.114 -0.5442 -0.1897  0.5193
  137SAPE  H11X14932   5.947   3.788   9.089  0.0515 -0.2654 -1.9392
  137SAPE  H11Y14933   6.122   3.736   9.123  0.0027  0.0188 -1.5854
  137SAPE  C31214934   6.105   3.918   9.001 -0.0987 -0.3309 -0.0141
  137SAPE  H12X14935   6.129   3.853   8.913 -1.1535 -1.0325  0.2088
  137SAPE  H12Y14936   6.202   3.954   9.041 -0.2381 -1.0530  1.0061
  137SAPE  C31314937   5.999   4.024   8.960  0.2056  0.1186 -0.0484
  137SAPE  H13X14938   5.972   4.065   9.060  1.8267  1.0303  0.0299
  137SAPE  H13Y14939   5.914   3.983   8.901  0.0291 -0.0619  0.3360
  137SAPE  C31414940   6.053   4.142   8.877  0.0366  0.1953  0.2553
  137SAPE  H14X14941   5.960   4.201   8.860 -0.8480 -1.0850  0.5552
  137SAPE  H14Y14942   6.091   4.102   8.781 -0.1241  1.1963 -0.2337
  137SAPE  C31514943   6.170   4.219   8.931  0.2697  0.2405  0.4533
  137SAPE  H15X14944   6.253   4.150   8.956  2.3323  2.8717  1.1116
  137SAPE  H15Y14945   6.140   4.271   9.024  1.7854 -0.3328  1.2786
  137SAPE  C31614946   6.223   4.331   8.835 -0.1625  0.3853 -0.5293
  137SAPE  H16X14947   6.138   4.402   8.823 -0.6936 -0.3153 -0.9993
  137SAPE  H16Y14948   6.256   4.293   8.736  2.8554 -0.6343  0.8295
  137SAPE  C31714949   6.338   4.425   8.878  0.3966 -0.3545  0.1465
  137SAPE  H17X14950   6.429   4.363   8.892  0.0713 -0.6890  0.7965
  137SAPE  H17Y14951   6.322   4.467   8.979  0.8374  1.2419 -0.4159
  137SAPE  C31814952   6.383   4.534   8.774 -0.0983  1.3940  0.1536
  137SAPE  H18X14953   6.376   4.484   8.675  0.3599  0.0299  0.7970
  137SAPE  H18Y14954   6.483   4.572   8.806  0.9063 -1.1833  0.1709
  137SAPE  H18Z14955   6.307   4.615   8.771  0.0754  1.6591  2.1802
  138SAPE     N14956   3.162   5.189  10.916 -0.6036  0.0598 -0.1274
  138SAPE   HN114957   3.131   5.256  10.990 -1.1401  0.1715 -0.4535
  138SAPE   HN214958   3.264   5.173  10.925 -1.0064 -1.5821  2.0377
  138SAPE   HN314959   3.160   5.236  10.824 -0.1662  0.5459  0.1061
  138SAPE   C1214960   3.063   5.068  10.903  0.8785  0.1766 -0.3421
  138SAPE  H12A14961   2.993   5.076  10.989  1.9142 -1.1429  0.6367
  138SAPE  H12B14962   3.125   4.978  10.920  3.0778  1.4554 -1.3781
  138SAPE   C1114963   2.993   5.090  10.764  0.1297  0.3575  0.5941
  138SAPE  H11A14964   2.932   4.999  10.749  1.0652 -0.0512 -0.7942
  138SAPE  H11B14965   3.077   5.082  10.691  0.1326  0.5160  0.5796
  138SAPE     P14966   2.771   5.232  10.742  0.1784 -0.1988 -0.0066
  138SAPE   O1314967   2.693   5.107  10.730  0.3336 -0.2324 -0.2770
  138SAPE   O1414968   2.726   5.315  10.860 -0.2641 -0.5104  0.3934
  138SAPE   O1214969   2.927   5.215  10.757  0.0339 -0.4709  0.1860
  138SAPE   O1114970   2.759   5.310  10.607 -0.0649  0.1525  0.1997
  138SAPE    C114971   2.873   5.352  10.529  0.4472 -0.2850  0.3311
  138SAPE    HA14972   2.854   5.456  10.495  0.1443 -1.0612 -1.9023
  138SAPE    HB14973   2.969   5.357  10.584  2.4744  0.4960 -3.1741
  138SAPE    C214974   2.899   5.263  10.404  0.7121 -0.1058 -0.6358
  138SAPE    HS14975   2.978   5.304  10.338  1.7217  0.1949  0.7194
  138SAPE   O2114976   2.772   5.266  10.330  0.5370  1.4933  0.2577
  138SAPE   C2114977   2.764   5.374  10.252 -0.2829 -0.0743  0.3216
  138SAPE   O2214978   2.849   5.451  10.216 -0.2810  0.1492 -0.1795
  138SAPE   C2214979   2.614   5.388  10.219 -0.3531 -0.0510  0.4689
  138SAPE   H2R14980   2.575   5.291  10.182  0.3929 -0.3241  0.3821
  138SAPE   H2S14981   2.570   5.408  10.319 -0.8332 -2.2745  0.7390
  138SAPE    C314982   2.934   5.113  10.425  0.3561  0.1640 -0.9030
  138SAPE    HX14983   2.845   5.067  10.474  0.2797  0.9422 -0.3090
  138SAPE    HY14984   3.019   5.110  10.497 -1.3916 -0.3667  1.2227
  138SAPE   O3114985   2.963   5.058  10.302  0.0895 -0.3402 -0.0540
  138SAPE   C3114986   2.941   4.928  10.300  0.6337 -0.5663  0.1841
  138SAPE   O3214987   2.868   4.864  10.376  0.0270  0.8243 -0.1251
  138SAPE   C3214988   3.007   4.873  10.176  0.5726  0.4727  0.4859
  138SAPE   H2X14989   3.117   4.889  10.178  0.7871 -0.8641 -0.0554
  138SAPE   H2Y14990   2.966   4.933  10.092  0.3519  1.1098  1.0464
  138SAPE   C2314991   2.590   5.495  10.103  0.4163  0.2834  0.2833
  138SAPE   H3R14992   2.636   5.465  10.006 -1.0118 -2.8018  0.5171
  138SAPE   H3S14993   2.626   5.591  10.145  2.5832 -0.7525  0.8521
  138SAPE   C2414994   2.436   5.517  10.080 -0.4699  0.5437 -0.8024
  138SAPE   H4R14995   2.389   5.536  10.179  1.9842 -0.9119  0.6968
  138SAPE   H4S14996   2.395   5.419  10.049 -0.4302  0.5129 -0.7565
  138SAPE   C2514997   2.407   5.626   9.980  0.1411  0.0058  0.2805
  138SAPE   H5R14998   2.385   5.724  10.026  0.1116  1.1098 -2.0337
  138SAPE   C2614999   2.409   5.608   9.850 -0.4780 -0.6079  0.1014
  138SAPE   H6R15000   2.380   5.693   9.786  0.0772 -0.5127 -0.0314
  138SAPE   C2715001   2.429   5.487   9.768 -0.5008  0.8110  0.4146
  138SAPE   H7R15002   2.373   5.490   9.672  1.7056  1.7173 -0.8801
  138SAPE   H7S15003   2.381   5.399   9.816 -0.9109  0.7827 -0.0388
  138SAPE   C2815004   2.570   5.472   9.720 -0.3360 -0.3022  0.6113
  138SAPE   H8R15005   2.640   5.461   9.804 -0.6817  2.8400  1.3736
  138SAPE   C2915006   2.617   5.484   9.589  0.1713 -0.5397 -0.2338
  138SAPE   H9R15007   2.725   5.477   9.571 -0.0185  1.5709 -2.3827
  138SAPE  C21015008   2.525   5.517   9.476 -0.1263 -0.9788  0.3021
  138SAPE  H10R15009   2.486   5.620   9.489  0.4974 -0.7123  0.0621
  138SAPE  H10S15010   2.438   5.448   9.474 -1.0863  0.2206  0.0031
  138SAPE  C21115011   2.595   5.513   9.346  0.4573 -0.4432  0.2494
  138SAPE  H11R15012   2.682   5.578   9.330 -0.3160 -0.0064 -2.5786
  138SAPE  C21215013   2.566   5.439   9.232  0.4131 -0.4791 -0.1381
  138SAPE  H12R15014   2.633   5.460   9.147  1.5032  0.9016  1.0379
  138SAPE  C21315015   2.445   5.343   9.214 -0.0958  0.3106  0.0259
  138SAPE  H13R15016   2.410   5.317   9.316 -0.5549  0.5886 -0.0612
  138SAPE  H13S15017   2.477   5.247   9.169 -1.0686 -0.3395  0.7090
  138SAPE  C21415018   2.330   5.423   9.147  0.6790 -0.2165 -0.0069
  138SAPE  H14R15019   2.270   5.491   9.209  0.9212  0.3642 -0.4091
  138SAPE  C21515020   2.289   5.418   9.020 -0.4901 -0.2659  0.0854
  138SAPE  H15R15021   2.207   5.480   8.982 -1.1430  0.3983  2.4996
  138SAPE  C21615022   2.347   5.337   8.906 -0.8440 -0.6728  0.0235
  138SAPE  H16R15023   2.273   5.278   8.848 -1.2693 -0.2135  0.0998
  138SAPE  H16S15024   2.426   5.271   8.948 -0.2961  0.9197  1.5836
  138SAPE  C21715025   2.403   5.432   8.802 -0.2446  0.0825  0.6062
  138SAPE  H17R15026   2.333   5.509   8.763 -0.9466 -1.0287 -0.3512
  138SAPE  H17S15027   2.442   5.380   8.712 -1.0549  0.0291  0.2869
  138SAPE  C21815028   2.531   5.498   8.850 -0.2981 -0.2304 -0.0910
  138SAPE  H18R15029   2.613   5.424   8.865 -2.4324 -2.3146  1.6254
  138SAPE  H18S15030   2.518   5.542   8.950  4.8904  3.0426 -0.6438
  138SAPE  C21915031   2.584   5.608   8.749 -0.7297  0.2216 -0.6352
  138SAPE  H19R15032   2.504   5.684   8.743 -0.0301  0.9879 -0.3722
  138SAPE  H19S15033   2.599   5.558   8.650 -1.6423 -0.5135 -0.4018
  138SAPE  C22015034   2.704   5.681   8.800  0.6057  0.3408  0.5955
  138SAPE  H20R15035   2.727   5.771   8.739  3.2858 -1.2317 -0.7905
  138SAPE  H20S15036   2.790   5.614   8.782 -1.0234 -1.4012 -0.9761
  138SAPE  H20T15037   2.696   5.712   8.907  1.8317 -3.4069  1.8502
  138SAPE   C3315038   2.967   4.721  10.160  0.5430  0.0854  0.6643
  138SAPE   H3X15039   2.858   4.702  10.163  0.6426 -0.2549  2.6494
  138SAPE   H3Y15040   3.007   4.658  10.242  1.2078 -2.4418 -1.5372
  138SAPE   C3415041   3.017   4.651  10.027  0.0709 -0.5299 -0.3392
  138SAPE   H4X15042   2.959   4.557  10.020  1.9997 -1.7545 -0.2863
  138SAPE   H4Y15043   3.124   4.624  10.039  0.5025  0.8514 -0.9883
  138SAPE   C3515044   2.985   4.739   9.901  0.3589  0.8787 -0.2838
  138SAPE   H5X15045   3.055   4.825   9.891 -0.3840  1.3351 -1.7298
  138SAPE   H5Y15046   2.881   4.775   9.906 -0.0053 -0.3846  2.1504
  138SAPE   C3615047   2.996   4.641   9.777 -0.0068 -0.2200 -0.2985
  138SAPE   H6X15048   2.917   4.564   9.787 -1.1330  0.9516 -0.0653
  138SAPE   H6Y15049   3.097   4.596   9.780  0.4613  0.8565  0.2271
  138SAPE   C3715050   2.979   4.717   9.646 -0.1463 -0.1600 -0.4442
  138SAPE   H7X15051   3.068   4.781   9.628  1.9053 -2.5937  0.9209
  138SAPE   H7Y15052   2.899   4.795   9.651  0.1409  0.2666 -2.0144
  138SAPE   C3815053   2.971   4.627   9.520  0.2954  0.1679 -0.7049
  138SAPE   H8X15054   2.876   4.573   9.499  1.4937 -1.9367 -0.8367
  138SAPE   H8Y15055   3.036   4.537   9.526 -1.5539 -1.1286  1.1512
  138SAPE   C3915056   2.997   4.703   9.392  0.2477  0.1084 -0.1464
  138SAPE   H9X15057   3.082   4.774   9.410  0.1692  0.2172 -0.2035
  138SAPE   H9Y15058   2.909   4.759   9.355 -1.0594 -2.8546 -1.6706
  138SAPE  C31015059   3.029   4.610   9.277 -0.0813  0.1690  0.5851
  138SAPE  H10X15060   2.949   4.535   9.257  0.5583 -0.8131  1.6583
  138SAPE  H10Y15061   3.119   4.550   9.303 -0.8523 -0.3592  2.0805
  138SAPE  C31115062   3.062   4.693   9.149 -0.2408 -0.1837 -0.2443
  138SAPE  H11X15063   3.140   4.771   9.156 -1.5515  1.2537 -1.4531
  138SAPE  H11Y15064   2.973   4.753   9.122  0.1550  1.0846  1.2129
  138SAPE  C31215065   3.096   4.613   9.023 -0.3497  0.7663 -0.0961
  138SAPE  H12X15066   3.029   4.525   9.016  2.0493 -1.0446 -0.8311
  138SAPE  H12Y15067   3.200   4.573   9.032 -0.0348  1.3253 -1.1727
  138SAPE  C31315068   3.100   4.706   8.900  0.1863  0.0737 -0.3833
  138SAPE  H13X15069   3.166   4.795   8.913  0.0072  0.3883 -1.5563
  138SAPE  H13Y15070   2.998   4.745   8.881  0.2277  0.2007 -0.3438
  138SAPE  C31415071   3.154   4.637   8.769 -0.8634  0.8547  0.3131
  138SAPE  H14X15072   3.105   4.544   8.734  0.8598 -0.4913  1.4018
  138SAPE  H14Y15073   3.245   4.584   8.804 -2.3893 -1.8678  0.2700
  138SAPE  C31515074   3.196   4.734   8.656  0.0021  0.1875  0.2153
  138SAPE  H15X15075   3.250   4.818   8.704  1.9858  1.1853 -3.5786
  138SAPE  H15Y15076   3.107   4.783   8.611 -0.3868  0.7717  1.6080
  138SAPE  C31615077   3.282   4.666   8.544  0.2467  0.1947  0.1286
  138SAPE  H16X15078   3.229   4.575   8.509  0.0681  0.2111  0.3539
  138SAPE  H16Y15079   3.386   4.644   8.574  0.1020 -3.3537 -1.7666
  138SAPE  C31715080   3.316   4.742   8.421  0.1041 -0.8746  0.2323
  138SAPE  H17X15081   3.382   4.827   8.444 -0.0847 -0.9589  1.0888
  138SAPE  H17Y15082   3.222   4.782   8.377 -1.0022 -2.8655  0.7046
  138SAPE  C31815083   3.389   4.673   8.306  0.4399  0.0553  0.4359
  138SAPE  H18X15084   3.431   4.747   8.235 -0.7545 -1.5315 -1.9918
  138SAPE  H18Y15085   3.329   4.595   8.255 -0.9246  0.8853  0.7387
  138SAPE  H18Z15086   3.474   4.613   8.346 -0.6239 -2.3105 -0.7946
  139SAPE     N15087   3.222   2.653  10.398 -0.1319  0.0764 -0.1853
  139SAPE   HN115088   3.157   2.711  10.341  0.4855 -0.5539 -1.5697
  139SAPE   HN215089   3.302   2.702  10.443 -1.1398  0.4785  1.2088
  139SAPE   HN315090   3.261   2.595  10.321 -0.1457  0.6794 -0.6508
  139SAPE   C1215091   3.166   2.567  10.506  0.0174 -0.0354 -0.6431
  139SAPE  H12A15092   3.241   2.486  10.520  0.3781  0.1399 -1.4891
  139SAPE  H12B15093   3.065   2.526  10.485  0.2045 -0.9331  0.1725
  139SAPE   C1115094   3.153   2.663  10.630 -0.3515  0.3838 -0.1716
  139SAPE  H11A15095   3.256   2.694  10.659 -0.8487  2.5920 -0.6982
  139SAPE  H11B15096   3.116   2.612  10.721 -0.4440  1.1502  0.2225
  139SAPE     P15097   2.921   2.787  10.616 -0.1183 -0.0942  0.0341
  139SAPE   O1315098   2.871   2.676  10.533 -0.2326 -0.0530  0.5445
  139SAPE   O1415099   2.884   2.798  10.758  0.5129  0.0489  0.7305
  139SAPE   O1215100   3.076   2.785  10.606  0.4688  0.3328 -0.1708
  139SAPE   O1115101   2.880   2.924  10.548  0.0065  0.4980 -0.2464
  139SAPE    C115102   2.939   2.977  10.432 -0.0256 -0.3458  0.3924
  139SAPE    HA15103   2.909   3.083  10.418  0.8868 -0.0277  0.8075
  139SAPE    HB15104   3.050   2.969  10.442 -0.2354 -0.9829  2.4837
  139SAPE    C215105   2.884   2.912  10.306  0.8379  0.9155  0.1017
  139SAPE    HS15106   2.898   2.802  10.312 -0.6333  0.6230 -1.4000
  139SAPE   O2115107   2.952   2.979  10.202 -0.8986  0.4513 -0.1209
  139SAPE   C2115108   3.066   2.923  10.169  0.3104  0.3867 -0.2179
  139SAPE   O2215109   3.117   2.820  10.218 -0.0458  1.1758 -0.8297
  139SAPE   C2215110   3.119   2.985  10.046  0.0297  0.5183  0.2515
  139SAPE   H2R15111   3.044   3.021   9.973  1.1797  0.7683 -0.8450
  139SAPE   H2S15112   3.172   3.072  10.091 -0.9220  1.8817 -1.2120
  139SAPE    C315113   2.724   2.936  10.298 -0.2594  0.3709 -0.2860
  139SAPE    HX15114   2.711   3.046  10.306 -0.0881  0.2357  1.9930
  139SAPE    HY15115   2.685   2.887  10.389  0.6261  0.4944  0.1622
  139SAPE   O3115116   2.658   2.897  10.178 -0.3647 -0.6211  0.2004
  139SAPE   C3115117   2.661   2.763  10.155  0.0255  0.5471  0.1278
  139SAPE   O3215118   2.700   2.687  10.243 -0.4539 -0.0776 -0.3760
  139SAPE   C3215119   2.612   2.739  10.010  0.2877 -0.5123 -0.2811
  139SAPE   H2X15120   2.700   2.718   9.946  0.1216  1.3246 -1.1298
  139SAPE   H2Y15121   2.542   2.819   9.975  0.0503  0.2567  1.8867
  139SAPE   C2315122   3.229   2.910   9.972  0.0659  0.7230  0.2467
  139SAPE   H3R15123   3.293   2.855  10.043  1.1853 -0.6302 -1.7849
  139SAPE   H3S15124   3.298   2.985   9.928  0.2192  1.1663  1.2203
  139SAPE   C2415125   3.187   2.822   9.854  0.5367  0.5536 -0.3146
  139SAPE   H4R15126   3.281   2.788   9.804 -0.2931 -0.3167 -1.2957
  139SAPE   H4S15127   3.142   2.894   9.782  0.6240 -0.4172 -1.3555
  139SAPE   C2515128   3.100   2.708   9.897  0.1081  0.1224 -0.0898
  139SAPE   H5R15129   3.140   2.645   9.978  0.3579  2.0727  1.3266
  139SAPE   C2615130   2.976   2.682   9.848 -0.8816  0.5989 -0.6740
  139SAPE   H6R15131   2.911   2.607   9.895 -2.8476  0.7888 -2.9864
  139SAPE   C2715132   2.909   2.757   9.731 -0.4822 -0.2451  0.3709
  139SAPE   H7R15133   2.989   2.800   9.668 -0.7500 -1.1826 -0.6333
  139SAPE   H7S15134   2.862   2.846   9.779 -1.3706 -1.3961  1.6806
  139SAPE   C2815135   2.816   2.670   9.653  0.9421 -0.2087  0.6667
  139SAPE   H8R15136   2.712   2.659   9.688  0.6810  0.0051 -0.0201
  139SAPE   C2915137   2.845   2.609   9.532 -0.2618 -0.1755 -0.2349
  139SAPE   H9R15138   2.771   2.533   9.502 -0.2500 -0.5220  0.5996
  139SAPE  C21015139   2.974   2.619   9.454  0.2982 -0.2959  0.1546
  139SAPE  H10R15140   2.994   2.526   9.396 -2.5914 -1.7595  1.4198
  139SAPE  H10S15141   3.050   2.607   9.534  0.2534  2.2862  0.6333
  139SAPE  C21115142   2.992   2.746   9.373 -0.3022  0.0994 -0.8123
  139SAPE  H11R15143   2.983   2.835   9.438 -2.1578  1.9193 -3.4533
  139SAPE  C21215144   3.026   2.769   9.245 -0.4435  0.1704 -0.3575
  139SAPE  H12R15145   3.013   2.870   9.204 -3.2846  0.6881  1.6237
  139SAPE  C21315146   3.054   2.675   9.135  0.0254 -0.1473  0.2793
  139SAPE  H13R15147   2.954   2.658   9.091  0.0223  1.3304 -0.3170
  139SAPE  H13S15148   3.089   2.582   9.185 -0.2769 -0.4614 -0.0876
  139SAPE  C21415149   3.159   2.706   9.039  0.1468 -0.5795  0.3160
  139SAPE  H14R15150   3.261   2.701   9.079  0.3949 -0.0414 -0.2360
  139SAPE  C21515151   3.157   2.733   8.909  0.0267 -0.9301 -0.4929
  139SAPE  H15R15152   3.252   2.762   8.863 -0.6384 -1.0950 -1.9853
  139SAPE  C21615153   3.031   2.746   8.822  0.1114  0.0962  0.7445
  139SAPE  H16R15154   3.026   2.836   8.757  0.8506  0.6673  1.4754
  139SAPE  H16S15155   2.937   2.758   8.879 -0.3062  1.6962 -0.2683
  139SAPE  C21715156   3.031   2.636   8.720  0.1758  0.2507  0.3718
  139SAPE  H17R15157   2.924   2.620   8.693  0.7362 -2.8033 -0.2309
  139SAPE  H17S15158   3.076   2.545   8.764 -1.8222 -0.5960  0.7040
  139SAPE  C21815159   3.119   2.656   8.592  0.1095 -0.2580  0.1486
  139SAPE  H18R15160   3.121   2.568   8.524 -1.9937 -0.6528  0.5744
  139SAPE  H18S15161   3.222   2.679   8.626 -0.9556  2.1534  1.8860
  139SAPE  C21915162   3.088   2.788   8.509  0.3394 -0.3860  0.8682
  139SAPE  H19R15163   3.125   2.882   8.554 -1.9558  0.5406  0.8944
  139SAPE  H19S15164   2.977   2.795   8.501  0.1610 -0.0632  3.2627
  139SAPE  C22015165   3.146   2.784   8.366 -0.3798 -0.5489 -0.5426
  139SAPE  H20R15166   3.119   2.879   8.315  0.6542 -0.3265 -0.6867
  139SAPE  H20S15167   3.111   2.692   8.316  1.3201 -2.2454  1.2570
  139SAPE  H20T15168   3.257   2.775   8.377 -0.5837 -0.2246  2.0988
  139SAPE   C3315169   2.530   2.606  10.008  0.7898  1.1677  0.6555
  139SAPE   H3X15170   2.426   2.627  10.041  0.5547  0.1138  0.6146
  139SAPE   H3Y15171   2.565   2.532  10.082 -3.2272 -0.3275  1.1827
  139SAPE   C3415172   2.510   2.529   9.873 -0.1887  0.4919 -0.0659
  139SAPE   H4X15173   2.606   2.476   9.856 -1.0187 -0.3189 -2.4673
  139SAPE   H4Y15174   2.488   2.607   9.796  2.1883  0.2262 -1.0319
  139SAPE   C3515175   2.390   2.430   9.873  0.0357  0.0556 -0.2786
  139SAPE   H5X15176   2.362   2.383   9.970 -1.0166 -0.5444 -0.8578
  139SAPE   H5Y15177   2.416   2.354   9.797  2.6792  1.6903 -1.0609
  139SAPE   C3615178   2.270   2.506   9.806 -0.3235 -0.6650  0.8101
  139SAPE   H6X15179   2.271   2.611   9.844  1.0542 -0.7120  0.9197
  139SAPE   H6Y15180   2.170   2.466   9.832 -1.3427  1.5291  0.3767
  139SAPE   C3715181   2.276   2.510   9.651 -0.2901  0.1989 -0.1082
  139SAPE   H7X15182   2.380   2.520   9.612  0.0260 -1.1967  0.3219
  139SAPE   H7Y15183   2.218   2.594   9.608 -0.2448  0.5982  0.6158
  139SAPE   C3815184   2.204   2.382   9.587 -0.2578  0.4709 -0.0376
  139SAPE   H8X15185   2.097   2.404   9.604 -0.1212  0.3268  1.0749
  139SAPE   H8Y15186   2.218   2.293   9.653  0.9072  0.0622 -0.8166
  139SAPE   C3915187   2.241   2.358   9.444  0.2580  0.5744 -0.4919
  139SAPE   H9X15188   2.349   2.332   9.437 -0.1433 -0.9655 -1.3093
  139SAPE   H9Y15189   2.238   2.451   9.384  0.8009 -0.0916 -1.5779
  139SAPE  C31015190   2.151   2.250   9.387 -0.3629  0.2125  0.0686
  139SAPE  H10X15191   2.048   2.270   9.426  0.0555  0.1388  1.2279
  139SAPE  H10Y15192   2.185   2.157   9.436  1.1414  0.6577 -0.1156
  139SAPE  C31115193   2.151   2.251   9.233 -0.6242  0.7534  0.4111
  139SAPE  H11X15194   2.086   2.163   9.210  0.2154 -0.1568  1.4753
  139SAPE  H11Y15195   2.249   2.224   9.190 -0.9320 -1.5553  1.1022
  139SAPE  C31215196   2.077   2.370   9.169 -0.0344 -0.1508  0.3635
  139SAPE  H12X15197   2.146   2.456   9.187  0.5521 -0.5452  0.0070
  139SAPE  H12Y15198   1.981   2.387   9.222  0.3600  0.8213  0.7910
  139SAPE  C31315199   2.056   2.354   9.018 -0.0933  0.4823 -0.3817
  139SAPE  H13X15200   2.013   2.254   8.997  0.3854 -0.1485  1.5659
  139SAPE  H13Y15201   2.151   2.372   8.963 -1.2142  1.2401 -2.1345
  139SAPE  C31415202   1.946   2.455   8.970 -0.7437  0.1569  0.7104
  139SAPE  H14X15203   2.014   2.543   8.980  2.6517 -2.3404  0.4757
  139SAPE  H14Y15204   1.861   2.453   9.041 -0.5459  4.2642  1.2038
  139SAPE  C31515205   1.911   2.433   8.820 -1.1318  0.0275  0.0403
  139SAPE  H15X15206   1.995   2.407   8.752 -0.8569  2.9121 -0.8021
  139SAPE  H15Y15207   1.871   2.529   8.780  2.0921  1.0356 -0.9221
  139SAPE  C31615208   1.793   2.335   8.801 -0.0421 -0.3734  0.3981
  139SAPE  H16X15209   1.819   2.234   8.837  1.1205 -0.3672 -0.3812
  139SAPE  H16Y15210   1.706   2.366   8.862 -0.5448 -4.0901  1.7041
  139SAPE  C31715211   1.768   2.299   8.649  0.2986  0.5986 -0.1888
  139SAPE  H17X15212   1.855   2.245   8.606 -1.3282 -0.7571 -1.8815
  139SAPE  H17Y15213   1.754   2.395   8.595  1.3510  0.6866 -0.3060
  139SAPE  C31815214   1.643   2.219   8.624  0.3383 -0.0852  0.2198
  139SAPE  H18X15215   1.643   2.110   8.645  0.8523 -0.0466  0.4189
  139SAPE  H18Y15216   1.604   2.235   8.521  2.4420  0.8548 -0.4442
  139SAPE  H18Z15217   1.565   2.262   8.690  0.2040 -0.7266  0.4866
  140SAPE     N15218   4.804   6.125  10.880 -0.3987  0.3822  0.5598
  140SAPE   HN115219   4.762   6.220  10.875  0.9805  0.8823 -2.2857
  140SAPE   HN215220   4.843   6.100  10.788 -1.1752  1.0988  0.0209
  140SAPE   HN315221   4.727   6.057  10.897 -1.6329  1.0881 -2.0049
  140SAPE   C1215222   4.906   6.127  10.991  0.5988 -0.8094 -0.8152
  140SAPE  H12A15223   5.002   6.126  10.935  2.0238  0.3097  1.5170
  140SAPE  H12B15224   4.892   6.028  11.039 -3.2806  0.2176  0.3765
  140SAPE   C1115225   4.895   6.238  11.093 -0.3017  0.2801  1.0146
  140SAPE  H11A15226   4.954   6.227  11.186 -0.0515  0.9484  0.9350
  140SAPE  H11B15227   4.790   6.244  11.129 -0.0328  1.1191  1.6643
  140SAPE     P15228   5.074   6.410  11.015 -0.1516  0.3255 -0.1033
  140SAPE   O1315229   5.076   6.561  11.031 -0.0441  0.1211 -0.3166
  140SAPE   O1415230   5.165   6.338  11.104  0.7873 -0.0042 -0.2101
  140SAPE   O1215231   4.924   6.363  11.033 -0.6131 -0.1992 -0.0746
  140SAPE   O1115232   5.108   6.381  10.865 -0.3101  0.1681 -0.0344
  140SAPE    C115233   5.070   6.451  10.746 -0.4178  0.6379  0.4001
  140SAPE    HA15234   4.963   6.431  10.724  0.3875 -2.8757 -0.6271
  140SAPE    HB15235   5.075   6.561  10.764 -3.4105  0.7047  0.9895
  140SAPE    C215236   5.164   6.417  10.624 -0.6173  0.4095 -0.4177
  140SAPE    HS15237   5.121   6.320  10.591 -1.2346  0.7766 -0.6981
  140SAPE   O2115238   5.302   6.403  10.673  0.5740 -0.2325  0.2282
  140SAPE   C2115239   5.377   6.333  10.587  0.0295  0.0044  0.2600
  140SAPE   O2215240   5.333   6.255  10.507  0.9256 -0.2181 -0.2694
  140SAPE   C2215241   5.526   6.371  10.611  0.1338 -0.4522  0.4914
  140SAPE   H2R15242   5.542   6.364  10.721 -0.7949  0.7875  0.7154
  140SAPE   H2S15243   5.593   6.300  10.559  0.5434  1.9845 -2.4684
  140SAPE    C315244   5.153   6.517  10.506 -0.3240  0.1518  0.3451
  140SAPE    HX15245   5.224   6.599  10.529  0.5407 -0.5241  0.1052
  140SAPE    HY15246   5.051   6.562  10.509  0.1794  1.4424 -1.2041
  140SAPE   O3115247   5.182   6.453  10.377 -0.1393 -0.2561 -0.8004
  140SAPE   C3115248   5.078   6.397  10.307  0.4925  0.6362 -0.2825
  140SAPE   O3215249   4.962   6.411  10.339  0.5013  0.2642  0.0260
  140SAPE   C3215250   5.137   6.315  10.197  0.2025 -0.4917 -0.0098
  140SAPE   H2X15251   5.242   6.296  10.227  0.3899 -0.5253 -0.6852
  140SAPE   H2Y15252   5.146   6.375  10.104  1.3456 -1.4941 -0.5536
  140SAPE   C2315253   5.563   6.504  10.546 -0.1564 -0.3272 -0.0616
  140SAPE   H3R15254   5.499   6.588  10.581  2.1695  0.4609  2.5325
  140SAPE   H3S15255   5.552   6.498  10.435  0.2194 -1.0815 -0.0593
  140SAPE   C2415256   5.707   6.541  10.570 -0.9341 -1.0635 -0.1352
  140SAPE   H4R15257   5.720   6.567  10.678  0.9683 -0.9331 -0.3782
  140SAPE   H4S15258   5.722   6.639  10.521 -0.6464 -0.3528  1.3543
  140SAPE   C2515259   5.810   6.440  10.525 -0.1825 -0.0315 -0.2266
  140SAPE   H5R15260   5.835   6.359  10.595  0.7129  2.1463  2.0624
  140SAPE   C2615261   5.851   6.436  10.394  0.1993 -0.3422 -0.4062
  140SAPE   H6R15262   5.925   6.357  10.376  0.8294  0.1496 -0.0112
  140SAPE   C2715263   5.813   6.525  10.279 -0.6077  0.4663  0.1945
  140SAPE   H7R15264   5.704   6.545  10.280 -0.7255  0.3563 -3.9293
  140SAPE   H7S15265   5.833   6.455  10.195  1.8436  0.9437  0.3208
  140SAPE   C2815266   5.889   6.650  10.240 -0.0564  0.4498 -0.7865
  140SAPE   H8R15267   5.919   6.698  10.334  2.1902 -2.3894 -0.0103
  140SAPE   C2915268   5.920   6.694  10.122 -0.0039  0.4044  0.6601
  140SAPE   H9R15269   5.968   6.792  10.116  1.4999 -0.3431  0.3533
  140SAPE  C21015270   5.880   6.636   9.989  0.3369 -0.5738 -0.1516
  140SAPE  H10R15271   5.813   6.547   9.989  1.0532 -1.1565 -2.9077
  140SAPE  H10S15272   5.960   6.582   9.933  1.7258 -1.2697  2.4138
  140SAPE  C21115273   5.816   6.744   9.902  1.1721  0.6809  0.8078
  140SAPE  H11R15274   5.755   6.818   9.956  0.4661  1.4933 -1.0471
  140SAPE  C21215275   5.817   6.745   9.763  0.5784 -0.7841 -0.3127
  140SAPE  H12R15276   5.758   6.825   9.713  2.4210  1.0976  0.4570
  140SAPE  C21315277   5.875   6.647   9.668  0.1410  0.1757  0.5947
  140SAPE  H13R15278   5.802   6.622   9.588 -2.4654  3.2327  1.9441
  140SAPE  H13S15279   5.886   6.547   9.715 -2.8612 -0.8984 -0.8565
  140SAPE  C21415280   6.013   6.670   9.613 -0.3488  0.1453 -0.0893
  140SAPE  H14R15281   6.099   6.671   9.682 -0.6528 -0.6380  0.3066
  140SAPE  C21515282   6.044   6.699   9.488 -0.5607  1.0621 -0.1420
  140SAPE  H15R15283   6.150   6.703   9.459 -0.0199  3.2251  1.8520
  140SAPE  C21615284   5.964   6.731   9.366  0.1300  0.0835  0.6723
  140SAPE  H16R15285   5.855   6.743   9.386  0.4898  0.1036  2.6633
  140SAPE  H16S15286   5.974   6.655   9.286 -0.7806  1.6264 -0.9521
  140SAPE  C21715287   6.012   6.855   9.293 -0.0039 -0.3412  0.5045
  140SAPE  H17R15288   6.123   6.861   9.297 -0.0290  0.7589 -0.0974
  140SAPE  H17S15289   5.964   6.939   9.349  3.0685  1.2576  0.8681
  140SAPE  C21815290   5.963   6.864   9.145 -0.7238  0.6922 -0.3259
  140SAPE  H18R15291   6.001   6.783   9.079  0.4270  1.2358 -0.3565
  140SAPE  H18S15292   5.994   6.962   9.103  0.4569 -0.1670 -1.5051
  140SAPE  C21915293   5.813   6.857   9.135 -0.3595  0.4055 -0.5351
  140SAPE  H19R15294   5.767   6.949   9.177 -0.1354 -0.3951  1.5171
  140SAPE  H19S15295   5.770   6.782   9.204  2.1807  1.8777  2.7413
  140SAPE  C22015296   5.751   6.816   9.000  0.8203 -0.0374  0.0105
  140SAPE  H20R15297   5.780   6.888   8.920  0.0236 -0.3574 -0.5756
  140SAPE  H20S15298   5.642   6.805   9.016  1.0082 -2.4463 -0.0876
  140SAPE  H20T15299   5.795   6.717   8.974  1.3767  0.5045 -1.1395
  140SAPE   C3315300   5.058   6.185  10.190  0.3374  0.1884 -0.1215
  140SAPE   H3X15301   4.951   6.196  10.162  0.1778 -2.7924 -0.8599
  140SAPE   H3Y15302   5.061   6.121  10.280 -1.4347 -0.2762 -0.3630
  140SAPE   C3415303   5.101   6.096  10.073 -0.2769 -0.0302 -0.1639
  140SAPE   H4X15304   5.043   6.001  10.078 -1.6977  0.6694 -2.4345
  140SAPE   H4Y15305   5.205   6.062  10.090 -0.2229 -0.6230 -1.6335
  140SAPE   C3515306   5.101   6.165   9.936 -0.5214 -0.1414 -0.2598
  140SAPE   H5X15307   5.188   6.234   9.939  0.4232 -1.2343 -1.4438
  140SAPE   H5Y15308   5.002   6.203   9.903 -0.5002 -0.6213 -0.8950
  140SAPE   C3615309   5.141   6.056   9.828  0.8060  0.1608  0.1483
  140SAPE   H6X15310   5.078   5.969   9.859 -1.6514  1.7532 -0.1878
  140SAPE   H6Y15311   5.242   6.015   9.849  1.8386  2.3772 -0.3670
  140SAPE   C3715312   5.132   6.095   9.681  0.2875  0.3871  0.2836
  140SAPE   H7X15313   5.026   6.128   9.673  0.0478 -0.9953 -3.2020
  140SAPE   H7Y15314   5.157   6.004   9.622  0.0164 -0.0537  0.8411
  140SAPE   C3815315   5.217   6.215   9.638 -0.0906 -0.0313  0.8581
  140SAPE   H8X15316   5.319   6.189   9.671  0.4021 -0.9716 -1.3175
  140SAPE   H8Y15317   5.175   6.298   9.699  0.9190  1.7231 -0.7912
  140SAPE   C3915318   5.204   6.216   9.486  0.2390  0.0779 -0.5200
  140SAPE   H9X15319   5.242   6.319   9.468  0.3784  0.5422  2.3025
  140SAPE   H9Y15320   5.099   6.195   9.456 -0.0406  0.2076  0.3570
  140SAPE  C31015321   5.291   6.114   9.416  0.5795  0.1876  0.4955
  140SAPE  H10X15322   5.270   6.008   9.439 -0.7125 -0.2443 -2.4185
  140SAPE  H10Y15323   5.399   6.133   9.435  0.6988 -0.2891  0.3087
  140SAPE  C31115324   5.274   6.126   9.268 -0.2369 -0.2905  0.0189
  140SAPE  H11X15325   5.339   6.053   9.216  1.3843  2.0052 -1.2737
  140SAPE  H11Y15326   5.293   6.232   9.240 -0.3027 -0.0271  0.9439
  140SAPE  C31215327   5.131   6.089   9.207  0.5300  0.6281  0.1481
  140SAPE  H12X15328   5.051   6.148   9.257 -0.2175 -1.6557  1.7202
  140SAPE  H12Y15329   5.114   5.983   9.234 -1.5080  0.7057 -0.7846
  140SAPE  C31315330   5.139   6.095   9.057  0.1265 -0.1480  0.1002
  140SAPE  H13X15331   5.032   6.077   9.031 -0.2090  1.0004  0.6870
  140SAPE  H13Y15332   5.199   6.015   9.008  2.5212  1.3478  0.5364
  140SAPE  C31415333   5.193   6.226   9.003  0.1069  0.2594 -0.3030
  140SAPE  H14X15334   5.301   6.244   9.021 -0.1985  1.7984  0.0598
  140SAPE  H14Y15335   5.141   6.306   9.060  0.1233  1.4586 -1.9204
  140SAPE  C31515336   5.170   6.242   8.849  0.3943  0.2724  0.0297
  140SAPE  H15X15337   5.062   6.271   8.846  0.2758  0.0116  1.4570
  140SAPE  H15Y15338   5.181   6.144   8.798 -0.5680 -0.1814  0.6706
  140SAPE  C31615339   5.248   6.349   8.780 -0.2081  0.1517 -1.0748
  140SAPE  H16X15340   5.356   6.323   8.773 -0.3819 -1.5132  1.7481
  140SAPE  H16Y15341   5.236   6.443   8.838  0.3971 -0.0334 -0.6398
  140SAPE  C31715342   5.182   6.370   8.636  0.0389 -0.5590 -0.0994
  140SAPE  H17X15343   5.172   6.284   8.567  0.6261 -0.6259 -0.1011
  140SAPE  H17Y15344   5.250   6.438   8.581 -2.1206 -0.6123 -2.9654
  140SAPE  C31815345   5.051   6.452   8.643 -0.3176 -1.0264  0.2331
  140SAPE  H18X15346   4.972   6.393   8.692 -0.9879 -0.5593 -0.2646
  140SAPE  H18Y15347   5.003   6.480   8.546 -0.4826  0.1464  0.6404
  140SAPE  H18Z15348   5.063   6.547   8.700 -2.3085 -0.9498  0.5465
  141SAPE     N15349   5.794   0.010  11.290 -0.4445  0.3778 -0.6817
  141SAPE   HN115350   5.696   0.029  11.259 -0.9795 -0.3271  0.5552
  141SAPE   HN215351   5.822  -0.090  11.296 -1.3276  0.1965  0.5201
  141SAPE   HN315352   5.801   0.042  11.388 -1.2687 -0.9832 -0.1664
  141SAPE   C1215353   5.909   0.070  11.219 -0.3527  0.0457  0.2135
  141SAPE  H12A15354   5.997   0.051  11.285 -0.9147  0.8736  1.2159
  141SAPE  H12B15355   5.890   0.179  11.213  0.4205  0.1153 -1.1271
  141SAPE   C1115356   5.925   0.009  11.076  0.0344 -0.1268  0.1166
  141SAPE  H11A15357   6.031   0.019  11.048  0.0357  0.9235  0.4569
  141SAPE  H11B15358   5.868   0.076  11.008 -0.5471 -2.1289 -1.4059
  141SAPE     P15359   5.777  -0.181  10.975  0.3679 -0.3678 -0.2300
  141SAPE   O1315360   5.808  -0.318  10.940 -0.2582 -0.4320 -0.4197
  141SAPE   O1415361   5.640  -0.153  11.023  0.7043 -0.5499 -0.3225
  141SAPE   O1215362   5.885  -0.130  11.074  0.3017 -0.1882  0.6782
  141SAPE   O1115363   5.819  -0.090  10.852  1.1953  1.3476 -0.4148
  141SAPE    C115364   5.944  -0.119  10.786 -0.2908  0.0351  0.2218
  141SAPE    HA15365   6.025  -0.132  10.862  1.7589  1.5126 -1.6350
  141SAPE    HB15366   5.935  -0.206  10.718  0.1336  3.0716 -3.9140
  141SAPE    C215367   5.992  -0.001  10.698  0.1371  0.4413 -0.2022
  141SAPE    HS15368   6.012   0.082  10.769  0.4468  1.1625 -1.1147
  141SAPE   O2115369   5.894   0.023  10.592  0.6981  0.3992 -0.2022
  141SAPE   C2115370   5.797   0.110  10.622  0.1718  0.5584 -0.2037
  141SAPE   O2215371   5.806   0.192  10.708  0.5038 -0.6860  0.1218
  141SAPE   C2215372   5.676   0.101  10.523 -0.0812  0.1306 -0.3534
  141SAPE   H2R15373   5.687   0.011  10.458 -3.2004 -0.1724 -0.5238
  141SAPE   H2S15374   5.588   0.094  10.591 -1.2572 -0.6843 -1.9103
  141SAPE    C315375   6.136  -0.018  10.632 -0.1728  0.2631 -1.0618
  141SAPE    HX15376   6.219   0.000  10.704 -1.2561 -1.1576  0.6022
  141SAPE    HY15377   6.148   0.052  10.548 -0.6035  0.8490 -0.6396
  141SAPE   O3115378   6.144  -0.148  10.582 -0.2917 -0.0207  0.3237
  141SAPE   C3115379   6.204  -0.170  10.467 -0.3786 -0.0721 -0.4388
  141SAPE   O3215380   6.251  -0.079  10.397  0.3992  0.1508 -0.3522
  141SAPE   C3215381   6.220  -0.319  10.446 -0.1786  0.0259  0.5082
  141SAPE   H2X15382   6.124  -0.365  10.478 -0.5218 -1.1189 -2.0174
  141SAPE   H2Y15383   6.296  -0.361  10.515 -0.1863  0.8219  0.9996
  141SAPE   C2315384   5.670   0.218  10.424  0.8259  0.0007  0.2639
  141SAPE   H3R15385   5.704   0.310  10.475 -1.3843  0.6878  0.5689
  141SAPE   H3S15386   5.562   0.226  10.400  0.0252 -4.0349  2.0743
  141SAPE   C2415387   5.750   0.204  10.293  0.1982 -0.1470  1.1117
  141SAPE   H4R15388   5.712   0.281  10.222 -1.4895 -1.2607  0.7837
  141SAPE   H4S15389   5.739   0.105  10.244  0.5575  0.8091 -0.9702
  141SAPE   C2515390   5.897   0.231  10.321 -0.3325  0.9080 -0.1358
  141SAPE   H5R15391   5.957   0.139  10.334 -1.6751  0.1788  0.9813
  141SAPE   C2615392   5.966   0.341  10.307  0.6224 -0.4724 -0.2642
  141SAPE   H6R15393   6.072   0.345  10.333  0.6415  0.3958 -0.4838
  141SAPE   C2715394   5.897   0.470  10.278 -1.1487 -0.1923 -0.3060
  141SAPE   H7R15395   5.897   0.536  10.367  1.4547  2.0149 -1.8539
  141SAPE   H7S15396   5.790   0.460  10.250 -0.4287  0.0253 -3.3157
  141SAPE   C2815397   5.980   0.555  10.186  0.4130 -0.2145  0.1739
  141SAPE   H8R15398   6.089   0.543  10.191  0.2946 -2.1911 -1.6829
  141SAPE   C2915399   5.941   0.648  10.096  0.7862  0.5702  0.1356
  141SAPE   H9R15400   6.005   0.702  10.025  0.1374 -0.4757 -1.2699
  141SAPE  C21015401   5.796   0.682  10.068  0.2451  0.2741 -0.4570
  141SAPE  H10R15402   5.798   0.788  10.102 -0.8755  0.4729 -1.0017
  141SAPE  H10S15403   5.727   0.636  10.141  0.0375  0.8557 -0.2823
  141SAPE  C21115404   5.749   0.670   9.923  0.4854  0.5851 -0.2808
  141SAPE  H11R15405   5.814   0.722   9.851  0.8568  2.0789  1.0918
  141SAPE  C21215406   5.638   0.601   9.877 -0.0039 -0.8593 -0.0258
  141SAPE  H12R15407   5.611   0.608   9.770  0.0525  1.2032  0.0744
  141SAPE  C21315408   5.539   0.520   9.953 -0.3738 -0.7289 -0.2697
  141SAPE  H13R15409   5.440   0.563   9.929 -0.0295  1.2680  1.6812
  141SAPE  H13S15410   5.553   0.543  10.061  0.1146 -1.0639 -0.2585
  141SAPE  C21415411   5.554   0.373   9.927 -0.2992 -0.1877 -0.2207
  141SAPE  H14R15412   5.653   0.330   9.950 -0.4704  0.0146  0.9536
  141SAPE  C21515413   5.464   0.287   9.880 -0.3073 -0.0507  0.3758
  141SAPE  H15R15414   5.499   0.186   9.853 -1.1748 -0.0357 -0.9028
  141SAPE  C21615415   5.320   0.309   9.849 -0.1959  0.4448  0.0417
  141SAPE  H16R15416   5.292   0.416   9.853  1.7406  0.9604  0.3828
  141SAPE  H16S15417   5.247   0.254   9.912 -1.2150  0.5429 -1.0431
  141SAPE  C21715418   5.289   0.255   9.712 -0.6449  0.3045 -0.1734
  141SAPE  H17R15419   5.183   0.273   9.688 -0.9959  1.1156  1.8543
  141SAPE  H17S15420   5.308   0.145   9.706 -1.2410  0.2670 -1.3645
  141SAPE  C21815421   5.358   0.310   9.594  0.0455  0.6470  0.2678
  141SAPE  H18R15422   5.468   0.293   9.599 -0.2597 -1.5928 -0.0110
  141SAPE  H18S15423   5.350   0.419   9.578 -1.1275  0.3573 -1.2202
  141SAPE  C21915424   5.323   0.240   9.457 -0.0300 -0.7114  0.4589
  141SAPE  H19R15425   5.213   0.234   9.452  0.0800 -2.0512 -0.3618
  141SAPE  H19S15426   5.360   0.135   9.459 -1.6029 -1.2673  1.0355
  141SAPE  C22015427   5.383   0.307   9.331 -0.1715  0.0724 -0.3297
  141SAPE  H20R15428   5.492   0.321   9.344 -0.4689  1.3421  0.8165
  141SAPE  H20S15429   5.337   0.408   9.328 -2.2447 -0.7866  1.2280
  141SAPE  H20T15430   5.354   0.243   9.244 -1.1909 -0.6725  0.5442
  141SAPE   C3315431   6.242  -0.351  10.304  0.3095 -0.1048 -0.1431
  141SAPE   H3X15432   6.345  -0.314  10.282  0.2708  0.3632  0.4502
  141SAPE   H3Y15433   6.168  -0.303  10.237 -1.3042  0.8312  2.2292
  141SAPE   C3415434   6.251  -0.504  10.292 -0.1593  0.6526 -0.0450
  141SAPE   H4X15435   6.147  -0.544  10.282 -0.6207  1.4791  1.2843
  141SAPE   H4Y15436   6.279  -0.544  10.391 -0.2996  0.3751 -0.1183
  141SAPE   C3515437   6.351  -0.539  10.179 -0.0721 -0.5171 -0.3518
  141SAPE   H5X15438   6.359  -0.649  10.172  1.8879 -0.3803 -0.4236
  141SAPE   H5Y15439   6.450  -0.492  10.196  0.2664 -1.4056  0.1173
  141SAPE   C3615440   6.292  -0.509  10.038  0.1656  0.6037  0.5716
  141SAPE   H6X15441   6.377  -0.533   9.970 -1.9579 -1.0317 -1.5803
  141SAPE   H6Y15442   6.272  -0.402  10.018  0.0307  0.2599 -1.2893
  141SAPE   C3715443   6.168  -0.590  10.002 -0.7056 -0.4147 -0.4544
  141SAPE   H7X15444   6.092  -0.598  10.082 -0.7344 -1.4939 -0.5852
  141SAPE   H7Y15445   6.203  -0.695   9.996  3.5911  0.8428  0.2096
  141SAPE   C3815446   6.090  -0.536   9.880 -0.2460 -0.0149  0.6872
  141SAPE   H8X15447   6.030  -0.446   9.906 -0.1457 -0.0339  0.9841
  141SAPE   H8Y15448   6.023  -0.624   9.869  0.2628 -0.2618 -0.5249
  141SAPE   C3915449   6.166  -0.528   9.748 -0.0730 -0.8909  0.3295
  141SAPE   H9X15450   6.227  -0.620   9.735 -0.3500 -0.9705 -0.4530
  141SAPE   H9Y15451   6.240  -0.446   9.746 -2.0111  0.9478  2.0154
  141SAPE  C31015452   6.070  -0.519   9.621 -0.7441 -0.3053 -0.1603
  141SAPE  H10X15453   6.008  -0.428   9.637  0.7354  0.8034 -0.6747
  141SAPE  H10Y15454   5.996  -0.602   9.620  0.5077 -1.4248 -0.9786
  141SAPE  C31115455   6.143  -0.508   9.491 -0.1166  0.8046 -1.0500
  141SAPE  H11X15456   6.192  -0.608   9.482 -2.3540 -0.5032  0.7563
  141SAPE  H11Y15457   6.219  -0.428   9.502 -0.8951  1.1911  1.9987
  141SAPE  C31215458   6.040  -0.498   9.365  0.3960  0.1385  0.0091
  141SAPE  H12X15459   5.987  -0.401   9.376 -0.6790 -0.4770  0.4305
  141SAPE  H12Y15460   5.974  -0.587   9.373  2.7403 -1.5618  1.1122
  141SAPE  C31315461   6.112  -0.511   9.233 -0.4240 -0.3878 -0.2597
  141SAPE  H13X15462   6.176  -0.601   9.227  1.2608  0.8797 -1.9566
  141SAPE  H13Y15463   6.171  -0.418   9.218 -2.0641  0.6903 -0.1991
  141SAPE  C31415464   6.015  -0.532   9.116 -0.3985 -0.2374  0.1918
  141SAPE  H14X15465   5.943  -0.448   9.129  1.2425  1.6545 -2.5557
  141SAPE  H14Y15466   5.950  -0.618   9.142  0.6123 -1.2521 -0.5902
  141SAPE  C31515467   6.084  -0.572   8.985  0.0559  0.6539 -0.1605
  141SAPE  H15X15468   6.019  -0.653   8.944  0.6952  0.0469  0.0303
  141SAPE  H15Y15469   6.179  -0.625   9.008 -0.6444 -0.7502 -0.4630
  141SAPE  C31615470   6.094  -0.465   8.880 -0.2383 -0.1038 -0.4610
  141SAPE  H16X15471   5.993  -0.423   8.862  0.7414  2.2025 -0.6852
  141SAPE  H16Y15472   6.132  -0.507   8.784  2.2190  0.9582  0.0207
  141SAPE  C31715473   6.172  -0.349   8.928 -0.3660  0.4790 -0.1417
  141SAPE  H17X15474   6.275  -0.377   8.956  0.3633  0.3889 -2.7437
  141SAPE  H17Y15475   6.135  -0.316   9.027 -1.1279 -0.3380 -0.1472
  141SAPE  C31815476   6.176  -0.233   8.829 -0.0358 -0.1542 -0.1409
  141SAPE  H18X15477   6.218  -0.263   8.731 -2.9866 -1.2349 -1.1409
  141SAPE  H18Y15478   6.212  -0.133   8.862 -0.1259 -0.1025 -0.1986
  141SAPE  H18Z15479   6.072  -0.214   8.795 -0.3641  0.0857  0.9563
  142SAPE     N15480   0.079   4.982  11.087 -0.4061 -0.2390  0.5452
  142SAPE   HN115481  -0.023   4.966  11.074 -1.5374  3.9938  3.1397
  142SAPE   HN215482   0.117   5.041  11.011  3.3171 -0.6258  1.9851
  142SAPE   HN315483   0.132   4.893  11.083  2.5646  1.4964  0.0944
  142SAPE   C1215484   0.093   5.052  11.225 -0.7587  0.1476 -0.3308
  142SAPE  H12A15485   0.204   5.050  11.233 -0.8206  1.6952  1.1338
  142SAPE  H12B15486   0.059   4.982  11.304  0.4289 -0.7397 -0.5939
  142SAPE   C1115487   0.036   5.191  11.238  0.1734 -0.1126  0.5727
  142SAPE  H11A15488   0.057   5.220  11.343  2.0829 -0.8284  0.4139
  142SAPE  H11B15489  -0.074   5.204  11.238 -0.1002 -2.2008  2.3682
  142SAPE     P15490   0.078   5.439  11.172  0.0481 -0.5194 -0.5411
  142SAPE   O1315491   0.011   5.462  11.303  0.0123 -0.3640 -0.4713
  142SAPE   O1415492   0.205   5.511  11.147 -0.5022  0.6500  0.2241
  142SAPE   O1215493   0.103   5.282  11.155 -0.4373 -0.4456  0.9376
  142SAPE   O1115494  -0.020   5.488  11.061  0.1484 -0.1623  0.8301
  142SAPE    C115495  -0.063   5.401  10.956 -0.5562  0.3018  0.8303
  142SAPE    HA15496   0.019   5.339  10.913  0.3827  0.7122  2.0113
  142SAPE    HB15497  -0.126   5.318  10.995  0.7922 -1.0995  0.0905
  142SAPE    C215498  -0.130   5.487  10.832  0.1439  0.1487 -0.6399
  142SAPE    HS15499  -0.210   5.552  10.873 -0.4542 -1.5317  0.9361
  142SAPE   O2115500  -0.159   5.394  10.722 -0.2057 -0.5965  0.7245
  142SAPE   C2115501  -0.256   5.431  10.642  0.1107  0.5048  0.1229
  142SAPE   O2215502  -0.323   5.532  10.669  0.0751  0.0437  0.3504
  142SAPE   C2215503  -0.257   5.345  10.513 -0.5072 -0.4772  0.5026
  142SAPE   H2R15504  -0.162   5.375  10.463 -0.3094 -0.8316  0.6656
  142SAPE   H2S15505  -0.236   5.242  10.548  1.5388  0.1568  1.2339
  142SAPE    C315506  -0.014   5.577  10.790 -0.2552  0.3807 -0.2250
  142SAPE    HX15507   0.076   5.516  10.766 -0.2422 -0.0029  0.7698
  142SAPE    HY15508   0.016   5.641  10.876 -0.2542 -1.7430  1.3848
  142SAPE   O3115509  -0.041   5.658  10.673  0.0473 -0.3786 -0.1191
  142SAPE   C3115510  -0.081   5.783  10.689  0.4824 -0.4383  0.4692
  142SAPE   O3215511  -0.126   5.832  10.791 -0.3504  0.0957 -0.2002
  142SAPE   C3215512  -0.067   5.865  10.552  0.9076 -0.0620 -0.2137
  142SAPE   H2X15513   0.032   5.833  10.512  0.7850 -0.9486  0.1679
  142SAPE   H2Y15514  -0.061   5.971  10.583  1.3972 -0.4610  1.0861
  142SAPE   C2315515  -0.370   5.372  10.420  0.0965 -0.1663 -0.3003
  142SAPE   H3R15516  -0.448   5.428  10.475  0.9429  0.4495  0.2675
  142SAPE   H3S15517  -0.413   5.274  10.390 -0.3638 -0.3572  0.9601
  142SAPE   C2415518  -0.344   5.459  10.294 -0.4469 -0.4722  0.4193
  142SAPE   H4R15519  -0.287   5.389  10.228 -0.5758 -2.1770  2.0595
  142SAPE   H4S15520  -0.280   5.544  10.325  0.6331 -0.7503 -1.0276
  142SAPE   C2515521  -0.466   5.517  10.222  0.0634 -0.5125 -0.0908
  142SAPE   H5R15522  -0.538   5.558  10.295  0.2071  0.7089 -0.6217
  142SAPE   C2615523  -0.482   5.526  10.087 -0.5207  0.7695  0.0860
  142SAPE   H6R15524  -0.570   5.574  10.041 -0.8643 -2.6719 -3.0592
  142SAPE   C2715525  -0.398   5.482   9.967 -0.5386  0.2408  0.0408
  142SAPE   H7R15526  -0.294   5.459  10.000 -0.1794  2.7640  0.7723
  142SAPE   H7S15527  -0.387   5.573   9.904 -0.6273  1.0424  1.1703
  142SAPE   C2815528  -0.445   5.362   9.886 -0.1474 -0.3392 -0.0649
  142SAPE   H8R15529  -0.509   5.290   9.940 -0.0433  1.2180  2.1920
  142SAPE   C2915530  -0.429   5.341   9.756 -0.2301 -0.1663  0.0027
  142SAPE   H9R15531  -0.472   5.249   9.714 -0.6734  0.7319 -1.5504
  142SAPE  C21015532  -0.363   5.430   9.652  0.4040 -0.0225  0.3855
  142SAPE  H10R15533  -0.325   5.362   9.572 -0.0280 -1.0633  1.0439
  142SAPE  H10S15534  -0.273   5.475   9.698  0.5519 -0.3182  0.3904
  142SAPE  C21115535  -0.444   5.534   9.573  0.4387  0.3422 -0.0097
  142SAPE  H11R15536  -0.549   5.555   9.598  1.3388  2.9210  1.7969
  142SAPE  C21215537  -0.387   5.625   9.490 -0.6598  0.4708 -0.2888
  142SAPE  H12R15538  -0.449   5.694   9.432 -0.0304  1.5376  0.2842
  142SAPE  C21315539  -0.243   5.646   9.444 -0.9957  0.7119 -0.0185
  142SAPE  H13R15540  -0.184   5.626   9.536 -1.5930  1.8435  0.6170
  142SAPE  H13S15541  -0.228   5.755   9.424  0.5013  0.8863  1.9381
  142SAPE  C21415542  -0.200   5.559   9.333  0.5041  0.2000  0.8686
  142SAPE  H14R15543  -0.215   5.451   9.341 -1.7774  0.5380  1.5361
  142SAPE  C21515544  -0.173   5.594   9.208  0.4491 -0.3209 -0.0851
  142SAPE  H15R15545  -0.138   5.523   9.132 -1.1034  0.6045 -1.7028
  142SAPE  C21615546  -0.166   5.730   9.147  0.6526  0.5894  0.9267
  142SAPE  H16R15547  -0.143   5.803   9.227  1.8381 -0.8782  1.9624
  142SAPE  H16S15548  -0.269   5.755   9.113 -0.7875 -1.4386  3.5833
  142SAPE  C21715549  -0.074   5.748   9.026 -0.1820 -0.2288 -0.0000
  142SAPE  H17R15550  -0.105   5.847   8.988 -1.0140 -1.7486 -3.4916
  142SAPE  H17S15551  -0.103   5.676   8.946  1.2632 -0.1446 -0.6122
  142SAPE  C21815552   0.079   5.755   9.053 -0.5384 -0.2250  0.4217
  142SAPE  H18R15553   0.091   5.842   9.120  0.6239 -0.1984  0.1978
  142SAPE  H18S15554   0.146   5.767   8.965 -0.1472  0.9947  0.8750
  142SAPE  C21915555   0.134   5.636   9.131 -0.5706  0.6081 -0.0730
  142SAPE  H19R15556   0.130   5.540   9.075 -1.7807 -0.8904  2.5133
  142SAPE  H19S15557   0.081   5.639   9.228 -0.8591 -1.2430 -0.1644
  142SAPE  C22015558   0.269   5.672   9.172 -0.9021 -0.5780  0.0030
  142SAPE  H20R15559   0.269   5.775   9.213  0.2019 -0.6482  0.1969
  142SAPE  H20S15560   0.348   5.659   9.094 -0.2257 -4.1388  1.2113
  142SAPE  H20T15561   0.312   5.608   9.251  3.3923  0.8115 -1.0435
  142SAPE   C3315562  -0.186   5.841  10.460 -0.0227  0.4735 -0.3112
  142SAPE   H3X15563  -0.276   5.865  10.521 -0.6204  1.1033 -1.4163
  142SAPE   H3Y15564  -0.192   5.733  10.437 -0.5998 -0.1736  2.6400
  142SAPE   C3415565  -0.184   5.930  10.338  0.8376 -0.0610  1.0821
  142SAPE   H4X15566  -0.086   5.918  10.288 -0.2432 -0.7622 -0.9539
  142SAPE   H4Y15567  -0.197   6.036  10.367  0.8809  1.0979 -2.8797
  142SAPE   C3515568  -0.293   5.884  10.240 -0.3754  0.4035 -0.3180
  142SAPE   H5X15569  -0.390   5.916  10.283 -1.7050  0.6094 -3.3632
  142SAPE   H5Y15570  -0.293   5.773  10.233  0.0133  0.4513 -1.0398
  142SAPE   C3615571  -0.265   5.938  10.097 -0.3082  0.3768  0.1632
  142SAPE   H6X15572  -0.166   5.896  10.069 -1.0648 -1.4565  0.2308
  142SAPE   H6Y15573  -0.265   6.050  10.100 -0.6450  0.3549  0.9547
  142SAPE   C3715574  -0.374   5.889  10.007 -0.4717 -0.2605 -0.2978
  142SAPE   H7X15575  -0.477   5.929  10.018 -0.2855  0.7795 -2.1183
  142SAPE   H7Y15576  -0.395   5.784  10.039  0.1116  0.7100  3.4042
  142SAPE   C3815577  -0.346   5.880   9.854  0.3931 -0.6524  0.6079
  142SAPE   H8X15578  -0.413   5.807   9.803 -0.4299 -1.4371  2.7258
  142SAPE   H8Y15579  -0.243   5.841   9.842  0.3241 -0.3496 -1.0351
  142SAPE   C3915580  -0.364   6.016   9.775  0.6777 -0.0643  0.4387
  142SAPE   H9X15581  -0.318   6.102   9.827  1.5566  0.6485 -1.4351
  142SAPE   H9Y15582  -0.471   6.042   9.782  0.9609  0.7673  1.8038
  142SAPE  C31015583  -0.310   6.000   9.625 -0.3291  0.0915  0.8326
  142SAPE  H10X15584  -0.353   5.910   9.576 -2.7200  0.2824  2.5027
  142SAPE  H10Y15585  -0.199   5.996   9.622 -0.1793  2.7642  1.2513
  142SAPE  C31115586  -0.343   6.127   9.546  0.0600  0.1630  0.2654
  142SAPE  H11X15587  -0.304   6.219   9.595  1.2321 -1.4962  2.5694
  142SAPE  H11Y15588  -0.454   6.133   9.537  0.0055  0.6859  1.2387
  142SAPE  C31215589  -0.303   6.116   9.398  0.2797 -0.8616 -0.2497
  142SAPE  H12X15590  -0.354   6.029   9.351 -1.2417 -0.8923  1.3832
  142SAPE  H12Y15591  -0.193   6.101   9.397  0.3703 -0.3914  1.2644
  142SAPE  C31315592  -0.336   6.252   9.326 -0.2211  0.4185  0.4015
  142SAPE  H13X15593  -0.268   6.328   9.370 -0.1170  0.7642 -0.3343
  142SAPE  H13Y15594  -0.442   6.282   9.340  0.0005  0.8223  1.2381
  142SAPE  C31415595  -0.320   6.246   9.171 -0.0383  0.1590  0.2955
  142SAPE  H14X15596  -0.350   6.336   9.113  2.6316  0.9353  0.0419
  142SAPE  H14Y15597  -0.372   6.157   9.129 -1.4337  0.6251  1.0142
  142SAPE  C31515598  -0.170   6.221   9.132 -0.1271 -0.1211 -0.1628
  142SAPE  H15X15599  -0.145   6.131   9.193 -1.4828  1.2705  2.5089
  142SAPE  H15Y15600  -0.110   6.310   9.161  0.1025 -0.0729 -0.7659
  142SAPE  C31615601  -0.148   6.202   8.979  0.3876 -0.0101  0.1732
  142SAPE  H16X15602  -0.200   6.285   8.927 -2.2664 -1.9071 -0.2862
  142SAPE  H16Y15603  -0.201   6.115   8.934  2.0657 -1.1936  0.4315
  142SAPE  C31715604  -0.000   6.200   8.943 -0.2898 -0.3524 -0.6728
  142SAPE  H17X15605   0.038   6.102   8.979 -0.8958  0.1026  1.2932
  142SAPE  H17Y15606   0.060   6.274   9.000 -0.8158 -0.3785 -0.0739
  142SAPE  C31815607   0.019   6.188   8.791  0.7663  0.2187 -0.1466
  142SAPE  H18X15608  -0.065   6.127   8.750  0.4346  0.9945 -0.6335
  142SAPE  H18Y15609   0.120   6.146   8.770  0.0979 -1.2207 -0.5793
  142SAPE  H18Z15610   0.018   6.287   8.741 -0.6995 -1.3632 -3.4105
  143SAPE     N15611   1.771   6.615  11.062  0.0243 -0.2673  0.3055
  143SAPE   HN115612   1.711   6.539  11.023  1.6043 -0.7674 -1.2414
  143SAPE   HN215613   1.807   6.683  10.992 -0.5168 -0.9749 -0.6853
  143SAPE   HN315614   1.859   6.569  11.092  0.4956  0.6315  0.3204
  143SAPE   C1215615   1.702   6.705  11.161  0.0795 -0.4692 -0.3288
  143SAPE  H12A15616   1.779   6.778  11.195  2.3735 -3.2008  0.5284
  143SAPE  H12B15617   1.677   6.639  11.246  0.6392 -1.0874 -0.6457
  143SAPE   C1115618   1.570   6.771  11.108 -0.1003 -0.4597 -0.0731
  143SAPE  H11A15619   1.536   6.841  11.188  3.7319 -0.1584  1.4055
  143SAPE  H11B15620   1.489   6.695  11.098 -1.5107  0.7272  1.8841
  143SAPE     P15621   1.476   6.951  10.951 -0.3396  0.2598 -0.3709
  143SAPE   O1315622   1.375   6.950  11.061 -0.0271  0.6166 -0.3513
  143SAPE   O1415623   1.536   7.081  10.919 -0.0074 -0.0609  0.0118
  143SAPE   O1215624   1.588   6.842  10.991  0.7065  0.0007  0.3238
  143SAPE   O1115625   1.416   6.884  10.823  0.2064 -0.9161  0.1491
  143SAPE    C115626   1.343   6.759  10.825 -0.4241 -0.0276 -0.7630
  143SAPE    HA15627   1.371   6.702  10.916 -0.2486 -0.8288 -1.3090
  143SAPE    HB15628   1.233   6.772  10.816 -0.2833  1.6706 -0.1237
  143SAPE    C215629   1.379   6.653  10.712 -0.0753  0.3112 -0.5413
  143SAPE    HS15630   1.489   6.640  10.715 -0.0726  0.4450 -0.0030
  143SAPE   O2115631   1.333   6.694  10.581  0.6257 -0.3627 -0.6886
  143SAPE   C2115632   1.410   6.767  10.513 -0.6730  0.1918 -0.4916
  143SAPE   O2215633   1.530   6.786  10.533 -0.4770 -0.2743 -0.2339
  143SAPE   C2215634   1.327   6.820  10.394  0.1357  0.8888 -0.7238
  143SAPE   H2R15635   1.221   6.843  10.420 -0.3205 -2.1355  0.3619
  143SAPE   H2S15636   1.359   6.920  10.358  0.4558  0.0276 -2.9117
  143SAPE    C315637   1.305   6.517  10.748 -0.0704  0.4149  0.2877
  143SAPE    HX15638   1.195   6.533  10.746  0.0696  1.5772  1.1967
  143SAPE    HY15639   1.317   6.485  10.853  0.1426  0.1357  0.1767
  143SAPE   O3115640   1.338   6.418  10.647  0.0242  0.5795  0.1346
  143SAPE   C3115641   1.434   6.335  10.675  0.1585 -0.1713 -0.1584
  143SAPE   O3215642   1.493   6.336  10.785  0.1595  0.2604  0.1924
  143SAPE   C3215643   1.471   6.248  10.553 -1.0303  0.3079  0.0961
  143SAPE   H2X15644   1.421   6.290  10.463  0.6451 -0.7696 -1.3611
  143SAPE   H2Y15645   1.438   6.142  10.562  2.2134 -0.5257  3.4005
  143SAPE   C2315646   1.316   6.730  10.271 -0.3266  1.3158 -0.2560
  143SAPE   H3R15647   1.290   6.794  10.185  0.1789  1.2493 -0.4555
  143SAPE   H3S15648   1.241   6.649  10.285  1.8078 -0.7381 -0.4384
  143SAPE   C2415649   1.447   6.655  10.240  0.2918  0.2088 -0.5259
  143SAPE   H4R15650   1.416   6.581  10.163 -0.7179 -1.0284  1.0342
  143SAPE   H4S15651   1.482   6.585  10.319  1.7991  2.6679  1.0525
  143SAPE   C2515652   1.566   6.741  10.202  1.0966  0.5185 -0.6489
  143SAPE   H5R15653   1.646   6.755  10.277  0.5573 -1.9411  0.4120
  143SAPE   C2615654   1.580   6.807  10.082  0.4588  0.5774 -0.2275
  143SAPE   H6R15655   1.677   6.855  10.064  2.2806 -1.2101  4.2812
  143SAPE   C2715656   1.479   6.818   9.972  0.6072 -0.2839 -0.5260
  143SAPE   H7R15657   1.406   6.734   9.982 -0.9368  0.8389 -1.9511
  143SAPE   H7S15658   1.527   6.800   9.873 -1.0254 -1.8913 -1.0745
  143SAPE   C2815659   1.410   6.956   9.986  0.3199  0.0994 -0.7976
  143SAPE   H8R15660   1.391   6.988  10.090 -0.4369 -0.2274 -0.8299
  143SAPE   C2915661   1.393   7.042   9.887 -0.1228  0.0187  0.1284
  143SAPE   H9R15662   1.371   7.149   9.903  0.4155  0.1697 -0.1185
  143SAPE  C21015663   1.422   7.027   9.743 -0.2376  0.1401 -0.3351
  143SAPE  H10R15664   1.370   7.107   9.686 -0.4664 -0.3324 -0.7961
  143SAPE  H10S15665   1.384   6.927   9.713  0.2534 -0.7452  1.9250
  143SAPE  C21115666   1.574   7.030   9.717  0.2278 -0.7951 -0.0774
  143SAPE  H11R15667   1.638   7.049   9.805 -0.3824  1.9190 -0.1802
  143SAPE  C21215668   1.635   7.015   9.594  0.1595 -0.4052  0.2505
  143SAPE  H12R15669   1.743   7.035   9.589 -0.0525  0.9615  0.7425
  143SAPE  C21315670   1.564   7.007   9.461 -0.1343  0.3244  0.5904
  143SAPE  H13R15671   1.564   7.109   9.417 -1.6049 -1.2234 -3.2208
  143SAPE  H13S15672   1.456   6.997   9.483  0.1400  0.7123  2.1752
  143SAPE  C21415673   1.600   6.900   9.363  0.1712 -0.1469 -0.7560
  143SAPE  H14R15674   1.617   6.802   9.411  1.0075 -0.3187 -1.3859
  143SAPE  C21515675   1.619   6.916   9.228  0.3497 -0.0433 -0.0106
  143SAPE  H15R15676   1.631   6.825   9.167  2.0629 -0.4900  0.9554
  143SAPE  C21615677   1.607   7.043   9.152  0.6706 -1.0513  0.2750
  143SAPE  H16R15678   1.705   7.092   9.172 -0.4297  0.7311  1.5281
  143SAPE  H16S15679   1.530   7.106   9.201 -0.4107 -0.2932 -2.3467
  143SAPE  C21715680   1.580   7.023   9.005  0.2198  0.5665  0.6831
  143SAPE  H17R15681   1.474   7.005   8.979  0.4705 -0.1446  0.1232
  143SAPE  H17S15682   1.638   6.935   8.969 -1.3611 -1.0655  2.0083
  143SAPE  C21815683   1.630   7.149   8.927 -0.2242 -0.2660  0.1359
  143SAPE  H18R15684   1.722   7.197   8.967 -2.2812  2.3895  1.8187
  143SAPE  H18S15685   1.557   7.233   8.923  2.2329  1.8947 -4.2995
  143SAPE  C21915686   1.654   7.113   8.777  0.1566  0.2414  0.3741
  143SAPE  H19R15687   1.550   7.112   8.739  0.3673 -1.2731 -0.1803
  143SAPE  H19S15688   1.700   7.012   8.773  0.5636  0.4516 -0.6812
  143SAPE  C22015689   1.736   7.203   8.689 -0.1501 -0.5040 -0.4484
  143SAPE  H20R15690   1.705   7.176   8.586 -0.8789  3.7053 -1.4252
  143SAPE  H20S15691   1.846   7.185   8.692  0.4519  2.9899  1.2644
  143SAPE  H20T15692   1.714   7.310   8.708  1.3195  0.0790 -1.8811
  143SAPE   C3315693   1.621   6.242  10.523 -0.0183  0.3556 -0.0492
  143SAPE   H3X15694   1.650   6.156  10.586 -3.4014 -0.2332  0.7699
  143SAPE   H3Y15695   1.669   6.340  10.545 -1.3323  0.3366  3.1502
  143SAPE   C3415696   1.651   6.222  10.372 -0.6047 -0.3674 -0.7124
  143SAPE   H4X15697   1.760   6.205  10.359 -0.1527  1.7585  0.0119
  143SAPE   H4Y15698   1.620   6.319  10.327 -0.8193 -0.5948 -1.0534
  143SAPE   C3515699   1.568   6.110  10.313 -0.3606 -0.1462 -0.6055
  143SAPE   H5X15700   1.460   6.132  10.326 -0.0687  1.0665 -0.1113
  143SAPE   H5Y15701   1.595   6.016  10.365  1.1753  0.0406 -1.0353
  143SAPE   C3615702   1.584   6.067  10.161 -0.4800  1.1253 -0.3367
  143SAPE   H6X15703   1.585   6.154  10.092  1.9317  0.5194 -1.1231
  143SAPE   H6Y15704   1.496   6.003  10.140  2.4117 -2.8767 -0.7127
  143SAPE   C3715705   1.717   5.986  10.137 -0.1419  0.3744 -0.2855
  143SAPE   H7X15706   1.743   5.931  10.230 -0.0168  3.2739  1.4486
  143SAPE   H7Y15707   1.803   6.052  10.114  1.0561 -0.9535  0.3337
  143SAPE   C3815708   1.696   5.869  10.037  0.2054  0.4201  0.3946
  143SAPE   H8X15709   1.597   5.829  10.069 -1.0670  2.1180 -1.2318
  143SAPE   H8Y15710   1.772   5.789  10.043  1.1890  1.2924 -0.2567
  143SAPE   C3915711   1.663   5.925   9.897  0.1445 -0.0609  0.2672
  143SAPE   H9X15712   1.756   5.962   9.850  0.5297 -1.3986 -0.0543
  143SAPE   H9Y15713   1.586   6.003   9.914  0.3603  0.0910  0.5495
  143SAPE  C31015714   1.601   5.814   9.806 -0.1876 -0.1671 -0.2628
  143SAPE  H10X15715   1.536   5.747   9.866 -2.6517  2.2868 -0.1115
  143SAPE  H10Y15716   1.679   5.747   9.764  0.3224  0.6921 -0.6923
  143SAPE  C31115717   1.521   5.875   9.687  0.4355  0.0784 -0.3272
  143SAPE  H11X15718   1.451   5.950   9.732 -0.7589 -2.1562  1.6396
  143SAPE  H11Y15719   1.452   5.799   9.645  0.1394  2.0510 -3.6275
  143SAPE  C31215720   1.610   5.924   9.574 -0.0965  0.0890 -0.5765
  143SAPE  H12X15721   1.672   5.838   9.542 -1.6741 -0.6848 -1.6679
  143SAPE  H12Y15722   1.673   5.999   9.625 -0.3840  0.2124 -0.3984
  143SAPE  C31315723   1.528   5.969   9.447  0.0738 -0.9512 -0.0975
  143SAPE  H13X15724   1.481   6.068   9.470  0.1563 -0.8589 -0.3252
  143SAPE  H13Y15725   1.453   5.889   9.429 -0.3633 -0.7174  0.6116
  143SAPE  C31415726   1.620   5.997   9.333  0.0897 -0.1921 -0.2793
  143SAPE  H14X15727   1.684   5.907   9.316 -0.3082 -0.3481 -0.9627
  143SAPE  H14Y15728   1.686   6.085   9.345  2.2483 -1.7946 -0.1058
  143SAPE  C31515729   1.536   6.018   9.212 -0.3927 -0.1632 -0.7849
  143SAPE  H15X15730   1.464   6.101   9.224 -0.7198 -0.3699 -1.2979
  143SAPE  H15Y15731   1.473   5.930   9.191 -0.1107  0.1667 -3.1975
  143SAPE  C31615732   1.616   6.062   9.088  0.1695  0.1239 -0.5828
  143SAPE  H16X15733   1.663   6.158   9.118 -0.4935 -0.8755  4.0019
  143SAPE  H16Y15734   1.536   6.076   9.012 -0.4167 -2.6094 -0.5072
  143SAPE  C31715735   1.712   5.954   9.034  0.2096  0.0758  0.2139
  143SAPE  H17X15736   1.651   5.863   9.020  1.0878 -0.4110 -0.4980
  143SAPE  H17Y15737   1.787   5.933   9.114  2.3578  0.6791 -1.5948
  143SAPE  C31815738   1.792   5.984   8.912  0.1108 -0.1663  0.2640
  143SAPE  H18X15739   1.834   5.890   8.870  0.5594 -0.4830  1.4045
  143SAPE  H18Y15740   1.877   6.049   8.942 -1.3400  0.5973  2.8287
  143SAPE  H18Z15741   1.731   6.031   8.831  0.1367  2.5615  1.7644
  144SAPE     N15742   4.449   4.662  10.678 -0.1260 -0.1638 -0.6683
  144SAPE   HN115743   4.503   4.609  10.749 -0.6645 -1.3489 -1.1127
  144SAPE   HN215744   4.515   4.716  10.618 -1.4022  0.7618 -1.2502
  144SAPE   HN315745   4.381   4.728  10.719  0.6060  1.2297 -1.6508
  144SAPE   C1215746   4.371   4.579  10.578  0.0350 -0.2872  0.1276
  144SAPE  H12A15747   4.404   4.617  10.479 -0.6228  0.9005  0.3487
  144SAPE  H12B15748   4.263   4.606  10.584 -0.8342 -3.3195 -0.9419
  144SAPE   C1115749   4.384   4.437  10.605 -0.3559 -0.5136  0.2572
  144SAPE  H11A15750   4.490   4.407  10.622 -0.2093 -1.3488 -1.8852
  144SAPE  H11B15751   4.354   4.384  10.512  0.9366  1.0775 -1.1085
  144SAPE     P15752   4.266   4.254  10.756  0.2313  0.1349 -0.2678
  144SAPE   O1315753   4.393   4.183  10.779 -0.3419 -0.5726 -0.1189
  144SAPE   O1415754   4.169   4.244  10.871 -0.2551  0.4447  0.4100
  144SAPE   O1215755   4.290   4.408  10.714 -0.6137  0.0954  0.4090
  144SAPE   O1115756   4.176   4.211  10.632  0.0015  0.9174 -0.2149
  144SAPE    C115757   4.066   4.291  10.588  0.5268  0.2332 -0.1881
  144SAPE    HA15758   3.982   4.279  10.660  1.6035  1.8108  1.3784
  144SAPE    HB15759   4.082   4.401  10.585  0.3213  0.2646 -0.1407
  144SAPE    C215760   4.022   4.248  10.443  0.6364 -0.2256 -0.0824
  144SAPE    HS15761   3.981   4.146  10.458  0.9681 -0.4157 -0.4670
  144SAPE   O2115762   4.133   4.248  10.351  0.4107 -0.0262  0.6793
  144SAPE   C2115763   4.170   4.356  10.289 -0.8137  0.3643  0.4163
  144SAPE   O2215764   4.151   4.468  10.324  0.1458  0.6556  0.0054
  144SAPE   C2215765   4.274   4.322  10.186  0.3144 -0.2884  0.1228
  144SAPE   H2R15766   4.374   4.357  10.219  2.1992 -1.6911 -3.8597
  144SAPE   H2S15767   4.270   4.212  10.173  0.3403 -0.3165  0.3523
  144SAPE    C315768   3.902   4.323  10.395 -0.0134  0.0382  0.4681
  144SAPE    HX15769   3.919   4.433  10.396  1.3160 -0.1623  0.3083
  144SAPE    HY15770   3.819   4.301  10.465  0.1594  1.0339  1.0025
  144SAPE   O3115771   3.877   4.263  10.267  0.3174 -0.1493  0.5942
  144SAPE   C3115772   3.775   4.311  10.200  0.3754 -0.8039 -0.0685
  144SAPE   O3215773   3.693   4.391  10.238 -0.0612 -0.5177  0.0581
  144SAPE   C3215774   3.775   4.269  10.052  0.4260  0.2368  0.5715
  144SAPE   H2X15775   3.792   4.161  10.036 -1.0002 -0.1086  1.2775
  144SAPE   H2Y15776   3.860   4.317  10.000 -0.3785 -0.2753 -1.2688
  144SAPE   C2315777   4.248   4.399  10.052 -0.4235 -0.3471 -0.0700
  144SAPE   H3R15778   4.327   4.477  10.055  0.2282 -1.0433  1.6682
  144SAPE   H3S15779   4.144   4.436  10.060 -0.6811 -1.2374  0.8487
  144SAPE   C2415780   4.234   4.298   9.938 -0.8095  0.0598  0.8809
  144SAPE   H4R15781   4.166   4.219   9.977 -1.1530 -0.0203  0.1311
  144SAPE   H4S15782   4.335   4.260   9.915  0.0293  1.2863  2.4481
  144SAPE   C2515783   4.193   4.368   9.806  0.1156  0.2522 -1.2267
  144SAPE   H5R15784   4.199   4.478   9.796 -0.0024  0.4270  0.4090
  144SAPE   C2615785   4.150   4.301   9.701 -0.2529 -0.2203 -0.0435
  144SAPE   H6R15786   4.118   4.354   9.611  0.4425  0.6359  0.2105
  144SAPE   C2715787   4.139   4.154   9.684 -0.1603  0.2173  0.1650
  144SAPE   H7R15788   4.198   4.106   9.765  1.0997 -1.4110 -1.6479
  144SAPE   H7S15789   4.196   4.124   9.593  0.2303  1.9205 -0.1632
  144SAPE   C2815790   3.999   4.095   9.678 -0.0511  0.5527 -0.2078
  144SAPE   H8R15791   3.949   4.095   9.776  2.0427 -0.0900  0.9112
  144SAPE   C2915792   3.936   4.035   9.574  0.4790  0.2587  0.1609
  144SAPE   H9R15793   3.829   4.011   9.586  0.5201  0.8530  1.8522
  144SAPE  C21015794   3.985   4.028   9.433  0.0023 -0.4681 -0.5235
  144SAPE  H10R15795   3.904   3.990   9.367 -1.6339  3.1687 -0.7512
  144SAPE  H10S15796   4.059   3.948   9.414  0.2169 -0.3366 -0.2535
  144SAPE  C21115797   4.005   4.156   9.358  0.4065 -0.1323  0.1755
  144SAPE  H11R15798   3.945   4.243   9.389  1.7100  1.5530 -1.8548
  144SAPE  C21215799   4.092   4.175   9.250 -0.3902  0.1181 -0.4279
  144SAPE  H12R15800   4.102   4.272   9.199 -1.1763 -0.0414 -0.8968
  144SAPE  C21315801   4.179   4.069   9.191 -0.2957 -0.6998 -0.1318
  144SAPE  H13R15802   4.174   4.076   9.080 -3.6114 -0.2887 -0.0116
  144SAPE  H13S15803   4.145   3.967   9.220  1.0824 -1.1290 -0.0077
  144SAPE  C21415804   4.316   4.075   9.247  0.5812 -0.5268 -0.2241
  144SAPE  H14R15805   4.346   4.168   9.297  0.3512 -0.3070 -0.4922
  144SAPE  C21515806   4.406   3.978   9.248  0.0951  0.4922  0.1197
  144SAPE  H15R15807   4.504   4.005   9.290 -0.0889  0.9431  0.2616
  144SAPE  C21615808   4.393   3.842   9.190 -0.8377 -0.1684  0.3847
  144SAPE  H16R15809   4.307   3.815   9.125  0.3736 -2.1837 -0.4394
  144SAPE  H16S15810   4.398   3.768   9.274  2.5344  0.1579  0.5341
  144SAPE  C21715811   4.506   3.826   9.089 -0.4814 -0.4998 -0.1759
  144SAPE  H17R15812   4.537   3.921   9.041  2.6933 -1.6968 -0.6325
  144SAPE  H17S15813   4.482   3.751   9.011 -0.5780 -0.2443 -0.3939
  144SAPE  C21815814   4.632   3.766   9.150  0.2971  0.2017  0.4677
  144SAPE  H18R15815   4.613   3.688   9.228  4.0135 -0.7938  0.4828
  144SAPE  H18S15816   4.700   3.844   9.191  1.6774 -0.6888 -0.0691
  144SAPE  C21915817   4.706   3.687   9.041  0.4651  0.0039  0.8743
  144SAPE  H19R15818   4.664   3.585   9.032  1.0588 -0.1059 -0.9537
  144SAPE  H19S15819   4.810   3.680   9.080  1.0938  1.2038 -0.5100
  144SAPE  C22015820   4.728   3.760   8.906 -0.1847  0.7452  0.1647
  144SAPE  H20R15821   4.814   3.713   8.854  2.0828  0.3010  4.1165
  144SAPE  H20S15822   4.753   3.867   8.925  0.5594  0.4862  0.6875
  144SAPE  H20T15823   4.634   3.751   8.847 -0.6693 -1.5156  1.2138
  144SAPE   C3315824   3.657   4.329   9.974 -0.6217 -0.3591  0.0396
  144SAPE   H3X15825   3.640   4.439   9.980  0.9603 -0.0712 -0.6450
  144SAPE   H3Y15826   3.564   4.287  10.017 -0.8012  1.1427  1.1672
  144SAPE   C3415827   3.657   4.291   9.822 -0.7744 -0.0226  0.1271
  144SAPE   H4X15828   3.694   4.187   9.811 -0.3022 -0.0411  1.7142
  144SAPE   H4Y15829   3.737   4.359   9.784  0.3580 -1.4953 -0.1758
  144SAPE   C3515830   3.528   4.301   9.741  0.0832  0.0564  0.1716
  144SAPE   H5X15831   3.482   4.402   9.733  1.9039  0.8059 -1.1231
  144SAPE   H5Y15832   3.452   4.227   9.774 -0.2789 -0.0931 -0.9509
  144SAPE   C3615833   3.568   4.264   9.594 -0.0530  0.0571  0.1461
  144SAPE   H6X15834   3.595   4.157   9.589 -2.4153 -0.6728  2.2726
  144SAPE   H6Y15835   3.657   4.320   9.558  0.3920 -0.6836  0.0838
  144SAPE   C3715836   3.454   4.289   9.482 -1.5411  0.1685 -0.1195
  144SAPE   H7X15837   3.406   4.383   9.516  0.5882  1.1727  0.2189
  144SAPE   H7Y15838   3.377   4.211   9.496 -1.9799  0.9772  2.1653
  144SAPE   C3815839   3.506   4.302   9.336  0.2465  0.4523 -0.1449
  144SAPE   H8X15840   3.581   4.383   9.339  0.8521 -0.0962 -0.4483
  144SAPE   H8Y15841   3.423   4.338   9.271  1.3550 -0.2739 -1.9820
  144SAPE   C3915842   3.566   4.170   9.277  0.0817  0.3830 -0.4158
  144SAPE   H9X15843   3.490   4.103   9.233 -0.0399  1.2224 -1.5136
  144SAPE   H9Y15844   3.619   4.112   9.355  1.4029 -0.4643 -1.9261
  144SAPE  C31015845   3.677   4.191   9.174  0.1870  0.0660 -0.2314
  144SAPE  H10X15846   3.771   4.225   9.223 -0.1754  0.5573  0.1321
  144SAPE  H10Y15847   3.634   4.260   9.099 -2.6209 -0.7752  0.5386
  144SAPE  C31115848   3.718   4.067   9.089  0.4863  1.1632 -0.6034
  144SAPE  H11X15849   3.644   4.009   9.029 -0.6873 -1.3574  3.1382
  144SAPE  H11Y15850   3.763   3.992   9.158  0.4082 -0.3310 -2.1192
  144SAPE  C31215851   3.825   4.116   8.994 -0.3736 -0.0412  0.7342
  144SAPE  H12X15852   3.909   4.167   9.045  0.4207 -0.4980 -0.1059
  144SAPE  H12Y15853   3.779   4.187   8.923 -0.6812 -0.7603  0.2055
  144SAPE  C31315854   3.886   4.001   8.919  0.2923 -0.4942 -0.3041
  144SAPE  H13X15855   3.814   3.946   8.854 -0.4923  0.0487  0.0939
  144SAPE  H13Y15856   3.920   3.923   8.990  0.1197 -1.9343 -1.7630
  144SAPE  C31415857   3.998   4.048   8.833  0.2773  0.0014  0.1919
  144SAPE  H14X15858   4.067   4.117   8.886 -1.8568  1.6204  0.9548
  144SAPE  H14Y15859   3.959   4.114   8.753 -1.5334 -1.0819  0.1664
  144SAPE  C31515860   4.073   3.925   8.774 -0.0202  0.2886 -0.2239
  144SAPE  H15X15861   4.019   3.888   8.684  1.4006 -3.2636  0.2790
  144SAPE  H15Y15862   4.083   3.844   8.849  0.3009  0.1497 -0.4186
  144SAPE  C31615863   4.216   3.972   8.734 -0.0033  0.2543  0.1545
  144SAPE  H16X15864   4.269   3.983   8.830 -0.8707 -0.5933  0.7386
  144SAPE  H16Y15865   4.217   4.068   8.678  1.8632 -0.3202 -0.8352
  144SAPE  C31715866   4.300   3.873   8.659 -0.0608 -0.3409 -0.3467
  144SAPE  H17X15867   4.238   3.836   8.574 -1.4625 -0.4173  0.6969
  144SAPE  H17Y15868   4.331   3.783   8.716  3.6361  1.1866  0.1860
  144SAPE  C31815869   4.427   3.933   8.596 -1.0509 -0.0551 -0.0081
  144SAPE  H18X15870   4.502   3.968   8.670 -0.4820 -1.8475  0.2789
  144SAPE  H18Y15871   4.397   4.015   8.527  0.5143 -0.5150 -1.2537
  144SAPE  H18Z15872   4.479   3.864   8.527 -0.2257 -1.6097  2.1116
  145SAPE     N15873   1.325   5.340  11.246 -0.5338  0.1733 -0.3283
  145SAPE   HN115874   1.264   5.277  11.301 -0.6261 -1.1306 -1.8713
  145SAPE   HN215875   1.257   5.401  11.197 -1.4833 -0.9857 -0.4682
  145SAPE   HN315876   1.366   5.292  11.163  1.0792  0.0342  0.5178
  145SAPE   C1215877   1.429   5.417  11.324 -0.0261 -0.1259 -0.5399
  145SAPE  H12A15878   1.500   5.463  11.253 -0.4451  0.6472 -0.4662
  145SAPE  H12B15879   1.490   5.344  11.382  0.0799 -0.9284 -1.6480
  145SAPE   C1115880   1.370   5.527  11.422 -0.1193  0.1196 -0.7335
  145SAPE  H11A15881   1.457   5.578  11.469 -3.0824  1.6864  3.4182
  145SAPE  H11B15882   1.313   5.483  11.507  2.1422  0.8121  1.2011
  145SAPE     P15883   1.345   5.749  11.284 -0.1829  0.0781  0.1425
  145SAPE   O1315884   1.238   5.849  11.256 -0.6152  0.2625  0.2254
  145SAPE   O1415885   1.451   5.801  11.369  0.2967  0.1529 -0.6191
  145SAPE   O1215886   1.284   5.612  11.352  0.2667  0.6069 -0.2341
  145SAPE   O1115887   1.414   5.695  11.147 -0.9675  0.3411  0.1503
  145SAPE    C115888   1.509   5.773  11.083  0.5615 -0.0868 -0.2280
  145SAPE    HA15889   1.575   5.826  11.155 -1.2973  1.6943  0.2088
  145SAPE    HB15890   1.576   5.713  11.017  1.1743  2.9885 -2.5692
  145SAPE    C215891   1.450   5.873  10.981 -0.0854 -0.2699 -1.1065
  145SAPE    HS15892   1.377   5.942  11.029 -0.3092 -2.3840  1.7486
  145SAPE   O2115893   1.382   5.802  10.885 -0.1455  0.3243 -0.2837
  145SAPE   C2115894   1.276   5.856  10.819 -0.0189 -0.0817  0.0541
  145SAPE   O2215895   1.217   5.955  10.849  0.2436 -0.4424  0.3353
  145SAPE   C2215896   1.224   5.753  10.716  0.0596 -0.2588  0.2657
  145SAPE   H2R15897   1.308   5.693  10.674  0.0414 -2.1016  2.7357
  145SAPE   H2S15898   1.157   5.679  10.766 -1.4018 -0.2471 -1.6260
  145SAPE    C315899   1.559   5.964  10.911  0.7126 -0.2230  0.0961
  145SAPE    HX15900   1.601   6.044  10.976  2.5310 -1.2401  0.2257
  145SAPE    HY15901   1.501   6.024  10.837  2.5551 -1.5850 -2.5191
  145SAPE   O3115902   1.677   5.890  10.864 -0.3853  0.1410 -0.0455
  145SAPE   C3115903   1.654   5.854  10.739 -0.4264  0.2208  0.1285
  145SAPE   O3215904   1.575   5.899  10.657  0.4810 -0.4178 -0.3619
  145SAPE   C3215905   1.747   5.739  10.710 -0.5132  0.7376  0.4901
  145SAPE   H2X15906   1.744   5.671  10.798 -1.7179  1.0731  0.7270
  145SAPE   H2Y15907   1.841   5.793  10.688  0.1205  0.3044  2.0490
  145SAPE   C2315908   1.129   5.816  10.608  0.7001  0.4265  0.0678
  145SAPE   H3R15909   1.041   5.872  10.647  0.6372 -0.3256  1.0269
  145SAPE   H3S15910   1.085   5.740  10.539  1.2411  0.4760 -0.3298
  145SAPE   C2415911   1.201   5.926  10.515 -0.0395  0.4391  0.3856
  145SAPE   H4R15912   1.222   6.015  10.577 -1.5994  1.1642 -0.0932
  145SAPE   H4S15913   1.129   5.956  10.435  1.1052  0.2570 -0.7323
  145SAPE   C2515914   1.326   5.875  10.452 -0.3397 -0.1247  0.2538
  145SAPE   H5R15915   1.414   5.905  10.510 -0.5451 -1.1712  1.1103
  145SAPE   C2615916   1.338   5.812  10.329  0.1055 -1.2055  0.0669
  145SAPE   H6R15917   1.436   5.786  10.287 -0.3721  1.1092 -2.6287
  145SAPE   C2715918   1.221   5.768  10.240  0.0943  0.3012  0.3061
  145SAPE   H7R15919   1.139   5.721  10.298  0.6601 -0.7870  0.2486
  145SAPE   H7S15920   1.256   5.692  10.166 -3.3852 -1.7918  0.6747
  145SAPE   C2815921   1.166   5.880  10.153 -0.7177 -0.4645  0.7969
  145SAPE   H8R15922   1.246   5.937  10.103 -0.8132 -0.1957  0.9509
  145SAPE   C2915923   1.037   5.917  10.138 -0.0243 -0.0092 -0.6253
  145SAPE   H9R15924   1.020   6.003  10.071  0.5577 -0.3044 -1.1629
  145SAPE  C21015925   0.915   5.853  10.206  0.0119 -0.3073 -0.0061
  145SAPE  H10R15926   0.946   5.755  10.250  0.6277  0.9810  2.5466
  145SAPE  H10S15927   0.828   5.842  10.138  0.5278  0.0470 -0.7340
  145SAPE  C21115928   0.885   5.952  10.317  0.1099 -0.3702  0.0381
  145SAPE  H11R15929   0.918   5.925  10.419  0.6300  1.3603  0.3498
  145SAPE  C21215930   0.807   6.062  10.302 -0.1448  0.6074 -0.1218
  145SAPE  H12R15931   0.793   6.135  10.383 -0.3142  0.0619  0.3385
  145SAPE  C21315932   0.730   6.104  10.179 -0.3470 -0.6251  0.0591
  145SAPE  H13R15933   0.629   6.109  10.225 -1.4670  1.8012 -2.5223
  145SAPE  H13S15934   0.719   6.029  10.098 -1.7380 -0.4229  0.0485
  145SAPE  C21415935   0.749   6.240  10.129 -0.2292  0.1612 -0.4141
  145SAPE  H14R15936   0.734   6.313  10.210  0.0215  0.2221 -0.4255
  145SAPE  C21515937   0.783   6.275  10.004  0.2346  0.4138  0.4036
  145SAPE  H15R15938   0.785   6.380   9.972  0.3221  0.1062 -0.6216
  145SAPE  C21615939   0.820   6.182   9.886  0.2084  1.3123 -0.0098
  145SAPE  H16R15940   0.783   6.079   9.905 -2.6941  2.1055 -1.1016
  145SAPE  H16S15941   0.925   6.170   9.854  0.3563  4.0004 -0.6908
  145SAPE  C21715942   0.751   6.241   9.756 -0.0969 -1.3823  0.3698
  145SAPE  H17R15943   0.769   6.161   9.682  0.1129 -1.9515  1.0347
  145SAPE  H17S15944   0.811   6.331   9.729 -1.2487 -0.9150 -0.6936
  145SAPE  C21815945   0.607   6.277   9.775  0.3234 -0.3475  0.0165
  145SAPE  H18R15946   0.586   6.375   9.824 -1.9554  0.1547 -1.8844
  145SAPE  H18S15947   0.575   6.194   9.841  4.7459 -0.7380  1.8622
  145SAPE  C21915948   0.539   6.262   9.634 -0.2476 -0.3212 -0.0065
  145SAPE  H19R15949   0.434   6.295   9.650  0.5101  1.2290  1.9795
  145SAPE  H19S15950   0.542   6.158   9.594 -1.6329 -0.6651  0.7109
  145SAPE  C22015951   0.599   6.360   9.532 -0.0627  0.1682 -0.2451
  145SAPE  H20R15952   0.698   6.318   9.504  0.2772 -0.3992  1.6881
  145SAPE  H20S15953   0.620   6.453   9.589 -1.5524 -0.2468  1.0060
  145SAPE  H20T15954   0.535   6.378   9.444 -0.6374  1.8702  0.5088
  145SAPE   C3315955   1.693   5.665  10.587 -0.4290 -0.0907 -0.5346
  145SAPE   H3X15956   1.685   5.738  10.504  1.8916  1.4083  0.4827
  145SAPE   H3Y15957   1.592   5.626  10.612  0.4918  0.2632  4.3016
  145SAPE   C3415958   1.785   5.548  10.545  0.1861 -0.0093  0.1019
  145SAPE   H4X15959   1.829   5.494  10.632 -0.6363  0.5283  0.8669
  145SAPE   H4Y15960   1.872   5.585  10.487  1.1226  0.0933  1.5376
  145SAPE   C3515961   1.707   5.447  10.461 -0.2946  0.4056  0.7349
  145SAPE   H5X15962   1.632   5.399  10.527  0.1644 -0.4006  0.6724
  145SAPE   H5Y15963   1.774   5.371  10.414  0.9505  0.1416  2.8884
  145SAPE   C3615964   1.618   5.515  10.347 -0.1957 -0.0096 -0.7686
  145SAPE   H6X15965   1.690   5.569  10.282  1.9144 -1.1304  0.5674
  145SAPE   H6Y15966   1.537   5.572  10.397 -0.0637 -0.4083 -0.0833
  145SAPE   C3715967   1.559   5.408  10.260  0.3338 -0.4655 -0.1331
  145SAPE   H7X15968   1.470   5.359  10.307 -0.1719 -1.3008 -1.9100
  145SAPE   H7Y15969   1.637   5.337  10.226  1.6797  0.5545  0.7760
  145SAPE   C3815970   1.507   5.470  10.127 -0.4655 -0.5299  0.3627
  145SAPE   H8X15971   1.582   5.539  10.083 -1.1668  0.1253  0.1909
  145SAPE   H8Y15972   1.425   5.535  10.164  1.5391  3.4930 -1.9613
  145SAPE   C3915973   1.454   5.377  10.021  0.4768  0.5427 -0.0382
  145SAPE   H9X15974   1.408   5.450   9.951  3.3265  1.1532 -1.3535
  145SAPE   H9Y15975   1.380   5.314  10.073  0.3241  0.7462 -0.0061
  145SAPE  C31015976   1.565   5.304   9.941  0.1867  0.1929 -0.4734
  145SAPE  H10X15977   1.632   5.245  10.007 -0.9275 -0.4507  0.0908
  145SAPE  H10Y15978   1.626   5.384   9.893  2.0272  0.6961  2.5701
  145SAPE  C31115979   1.510   5.213   9.822  0.1672  0.1406 -0.5786
  145SAPE  H11X15980   1.450   5.281   9.757  0.0235  0.0175 -0.5756
  145SAPE  H11Y15981   1.446   5.128   9.853 -1.8835  0.7438 -2.9708
  145SAPE  C31215982   1.617   5.144   9.736 -0.2548 -0.1901  0.0119
  145SAPE  H12X15983   1.685   5.081   9.797  1.2604  0.4915 -0.9407
  145SAPE  H12Y15984   1.678   5.229   9.697 -0.8518  0.9586  1.5187
  145SAPE  C31315985   1.556   5.085   9.611  0.1783  0.3997 -0.5877
  145SAPE  H13X15986   1.488   5.157   9.560  0.6016 -0.5471 -2.5195
  145SAPE  H13Y15987   1.500   4.994   9.642  1.3327 -0.0303  0.2792
  145SAPE  C31415988   1.659   5.036   9.502 -0.2108 -0.1706  0.7325
  145SAPE  H14X15989   1.735   4.977   9.556 -1.4097 -0.8320  1.7361
  145SAPE  H14Y15990   1.701   5.127   9.455 -1.0606 -0.2914 -0.2913
  145SAPE  C31515991   1.598   4.952   9.387  0.3154  0.3804 -0.0704
  145SAPE  H15X15992   1.553   5.035   9.329  0.6272  1.0973  0.6912
  145SAPE  H15Y15993   1.531   4.878   9.436  0.3458  1.2286  1.3060
  145SAPE  C31615994   1.719   4.876   9.319  0.3928 -0.8950 -1.0781
  145SAPE  H16X15995   1.771   4.815   9.396 -2.6065  2.3938  3.8258
  145SAPE  H16Y15996   1.799   4.947   9.290  0.6969 -0.8990 -0.2559
  145SAPE  C31715997   1.670   4.800   9.199  0.0163 -0.3778  0.6285
  145SAPE  H17X15998   1.652   4.863   9.110 -1.6518  1.0880  1.9676
  145SAPE  H17Y15999   1.571   4.758   9.225 -1.0353  1.3399 -0.5516
  145SAPE  C31816000   1.773   4.691   9.158  1.0897  0.0875  0.8942
  145SAPE  H18X16001   1.858   4.749   9.115 -0.9559  1.7840 -1.0105
  145SAPE  H18Y16002   1.734   4.631   9.073 -1.3501  0.1702  1.9390
  145SAPE  H18Z16003   1.805   4.611   9.229 -1.1603 -1.6389  0.0224
  146SAPE     N16004   5.769   4.825  10.788 -0.0581  0.1273  0.2479
  146SAPE   HN116005   5.674   4.812  10.829 -0.6620  1.3023 -0.7584
  146SAPE   HN216006   5.837   4.785  10.856  0.1451  0.8858  0.4882
  146SAPE   HN316007   5.803   4.922  10.780 -1.2153  0.4697 -0.6590
  146SAPE   C1216008   5.789   4.753  10.659 -0.2906  0.1458 -0.1419
  146SAPE  H12A16009   5.873   4.805  10.607 -1.0864 -0.3501 -1.9505
  146SAPE  H12B16010   5.696   4.772  10.603 -0.7748  1.0223  0.9411
  146SAPE   C1116011   5.800   4.599  10.684 -0.1312  0.1441  0.3827
  146SAPE  H11A16012   5.811   4.542  10.589 -0.2338 -0.8393  0.9527
  146SAPE  H11B16013   5.703   4.570  10.730 -0.4561  2.4559  1.2172
  146SAPE     P16014   6.064   4.601  10.739 -0.2393 -0.4101  0.1886
  146SAPE   O1316015   6.074   4.743  10.742  0.6443  0.2682 -0.2855
  146SAPE   O1416016   6.159   4.523  10.827 -0.5946 -0.2599  0.2434
  146SAPE   O1216017   5.913   4.564  10.774 -0.2090 -0.4855 -0.0189
  146SAPE   O1116018   6.081   4.547  10.586 -0.2861 -0.3972  0.1581
  146SAPE    C116019   6.098   4.406  10.562  0.5053  0.1801  0.0064
  146SAPE    HA16020   6.189   4.369  10.614  0.5534 -0.1687 -0.3243
  146SAPE    HB16021   6.010   4.352  10.600  0.9644 -0.1408  0.6107
  146SAPE    C216022   6.123   4.370  10.412  0.0362  0.3132 -0.4991
  146SAPE    HS16023   6.154   4.264  10.408 -0.2945  0.2468 -1.4017
  146SAPE   O2116024   6.224   4.453  10.349 -0.4907 -1.1459  0.3486
  146SAPE   C2116025   6.342   4.429  10.408 -0.0133 -0.3723 -0.3292
  146SAPE   O2216026   6.376   4.346  10.486  0.0225 -0.3315  0.4213
  146SAPE   C2216027   6.440   4.523  10.327 -0.2675 -0.6025  0.1878
  146SAPE   H2R16028   6.405   4.628  10.340 -1.0466 -0.9835  1.2235
  146SAPE   H2S16029   6.538   4.517  10.378  0.1113  0.7527 -0.3614
  146SAPE    C316030   5.999   4.380  10.323  0.2535 -0.1471 -0.1960
  146SAPE    HX16031   5.935   4.456  10.371 -2.0177 -1.3239 -1.2789
  146SAPE    HY16032   5.934   4.291  10.337  0.6644 -0.6924 -1.6707
  146SAPE   O3116033   6.024   4.384  10.180  0.3106  0.1753  0.0778
  146SAPE   C3116034   6.028   4.504  10.132 -0.2779 -0.1784 -0.3990
  146SAPE   O3216035   6.025   4.608  10.198 -0.0265  0.0372  0.2219
  146SAPE   C3216036   6.037   4.506   9.985 -0.6549 -0.0787 -0.1225
  146SAPE   H2X16037   5.933   4.517   9.948 -0.4660 -0.7700 -0.8771
  146SAPE   H2Y16038   6.095   4.418   9.950 -1.1153 -0.0299 -1.0413
  146SAPE   C2316039   6.433   4.489  10.180  0.1722 -0.3490  0.3589
  146SAPE   H3R16040   6.330   4.509  10.145  0.6411 -0.0877 -0.9048
  146SAPE   H3S16041   6.450   4.380  10.169 -0.2595 -0.4139  0.3508
  146SAPE   C2416042   6.533   4.560  10.086 -0.3773  0.7485  0.9754
  146SAPE   H4R16043   6.627   4.504  10.104 -0.7536 -0.0227  0.5185
  146SAPE   H4S16044   6.549   4.659  10.134  0.3647  1.0178  0.1634
  146SAPE   C2516045   6.513   4.573   9.940  0.9816 -0.2680 -1.2222
  146SAPE   H5R16046   6.483   4.484   9.882  0.0655 -0.0374 -1.1101
  146SAPE   C2616047   6.530   4.695   9.873  0.5129  0.8804  0.1328
  146SAPE   H6R16048   6.533   4.697   9.763  0.7624  2.6768  0.1434
  146SAPE   C2716049   6.588   4.829   9.927 -0.3112 -0.2025  0.1895
  146SAPE   H7R16050   6.607   4.906   9.849 -3.4959 -1.4916 -1.9623
  146SAPE   H7S16051   6.684   4.797   9.974 -0.7738  0.1925  1.4190
  146SAPE   C2816052   6.499   4.891  10.030  0.1983 -0.5994 -0.6474
  146SAPE   H8R16053   6.409   4.837  10.061  0.7127 -1.3589 -0.4835
  146SAPE   C2916054   6.517   5.018  10.078  0.0906  0.7532 -1.0725
  146SAPE   H9R16055   6.440   5.042  10.153  2.3817 -0.3918  1.7121
  146SAPE  C21016056   6.627   5.115  10.052  0.8445  0.0413  0.4769
  146SAPE  H10R16057   6.579   5.215  10.038 -1.5368 -1.0853  0.4343
  146SAPE  H10S16058   6.669   5.096   9.951 -1.2287 -2.4897  0.0606
  146SAPE  C21116059   6.730   5.113  10.159 -1.1498  0.3700 -0.0780
  146SAPE  H11R16060   6.705   5.062  10.253 -0.5610 -1.8196 -1.0809
  146SAPE  C21216061   6.857   5.167  10.138  0.2717 -0.3477 -0.0280
  146SAPE  H12R16062   6.917   5.170  10.231  0.6037 -3.4562 -0.0879
  146SAPE  C21316063   6.927   5.224  10.011 -1.0561 -0.0445  0.1912
  146SAPE  H13R16064   6.947   5.140   9.940 -1.1644  0.9923 -1.0983
  146SAPE  H13S16065   7.028   5.267  10.022 -1.4645  1.7775 -2.5816
  146SAPE  C21416066   6.849   5.337   9.942  0.0269 -0.1757 -0.3150
  146SAPE  H14R16067   6.814   5.406  10.021  0.6150  0.3071 -0.4739
  146SAPE  C21516068   6.805   5.354   9.816 -1.1480  0.1672  0.0563
  146SAPE  H15R16069   6.751   5.447   9.791 -0.2276  0.3869 -1.1653
  146SAPE  C21616070   6.841   5.273   9.694  0.6792 -0.3328  1.3266
  146SAPE  H16R16071   6.774   5.184   9.694 -0.8147  0.7721  0.9906
  146SAPE  H16S16072   6.944   5.231   9.700  0.8120 -0.3686 -0.7181
  146SAPE  C21716073   6.826   5.356   9.560 -0.1710 -0.7043  0.3246
  146SAPE  H17R16074   6.717   5.376   9.549 -0.3000 -1.6952 -0.2272
  146SAPE  H17S16075   6.862   5.293   9.477 -2.3422 -1.4416 -0.0903
  146SAPE  C21816076   6.916   5.483   9.556  0.5563 -0.0069  0.7374
  146SAPE  H18R16077   6.884   5.555   9.635 -1.5178  1.7302 -1.6254
  146SAPE  H18S16078   6.900   5.529   9.456 -1.7158 -2.0370  0.1388
  146SAPE  C21916079   7.065   5.463   9.594 -0.0984  0.7095  0.1455
  146SAPE  H19R16080   7.078   5.434   9.701  0.8475 -0.0749 -0.1672
  146SAPE  H19S16081   7.126   5.554   9.575  0.7616  0.0739 -0.1867
  146SAPE  C22016082   7.128   5.354   9.508  0.2666 -0.4506  0.4548
  146SAPE  H20R16083   7.083   5.255   9.528 -1.5693 -0.1704 -2.0301
  146SAPE  H20S16084   7.237   5.348   9.525  0.0513 -2.7470  1.1477
  146SAPE  H20T16085   7.118   5.381   9.401 -2.9186 -0.6699  0.6294
  146SAPE   C3316086   6.100   4.635   9.930 -0.3227 -0.3179  0.3474
  146SAPE   H3X16087   6.198   4.648   9.980  1.8996 -0.9697 -3.6523
  146SAPE   H3Y16088   6.031   4.720   9.948  0.9846  1.1002 -1.1814
  146SAPE   C3416089   6.119   4.630   9.779  0.2468  0.1475  0.6415
  146SAPE   H4X16090   6.202   4.562   9.751 -0.2786  0.7899 -2.6123
  146SAPE   H4Y16091   6.151   4.730   9.745 -1.7016  0.7009  0.3828
  146SAPE   C3516092   5.984   4.602   9.708  0.9036  0.0733 -0.1125
  146SAPE   H5X16093   5.893   4.642   9.759  0.2425 -0.0683 -1.1619
  146SAPE   H5Y16094   5.973   4.492   9.715 -1.6242  0.4499  3.0595
  146SAPE   C3616095   5.974   4.637   9.562  0.6461 -0.2199 -0.1688
  146SAPE   H6X16096   6.076   4.632   9.520  0.7574 -1.8710  0.2594
  146SAPE   H6Y16097   5.936   4.741   9.550 -0.1485 -0.7679 -2.8307
  146SAPE   C3716098   5.893   4.534   9.488 -0.2282  0.6601 -0.4804
  146SAPE   H7X16099   5.795   4.497   9.523  0.7083  0.4339  1.9608
  146SAPE   H7Y16100   5.959   4.445   9.494  0.9656  1.4966 -0.8922
  146SAPE   C3816101   5.890   4.568   9.341  0.2832  0.4063  0.5928
  146SAPE   H8X16102   5.993   4.601   9.316 -0.4574  3.0487  0.9017
  146SAPE   H8Y16103   5.820   4.652   9.321 -0.0357  0.3627  1.4578
  146SAPE   C3916104   5.830   4.455   9.247 -0.2675  0.0293 -0.4992
  146SAPE   H9X16105   5.722   4.443   9.268 -0.3161  0.0133 -0.7541
  146SAPE   H9Y16106   5.879   4.359   9.273  0.7655  0.4806 -0.7317
  146SAPE  C31016107   5.859   4.491   9.102 -0.5124 -0.1285 -0.2609
  146SAPE  H10X16108   5.953   4.448   9.061 -0.5230 -1.4470  1.0740
  146SAPE  H10Y16109   5.862   4.601   9.086 -0.5589 -0.3322 -1.7587
  146SAPE  C31116110   5.744   4.428   9.019 -0.0785  0.5149  0.0671
  146SAPE  H11X16111   5.651   4.472   9.060 -0.9550  0.1133 -1.4588
  146SAPE  H11Y16112   5.743   4.318   9.033 -0.7407  0.6204  0.9001
  146SAPE  C31216113   5.750   4.459   8.871  0.2899  0.4060  0.2958
  146SAPE  H12X16114   5.682   4.386   8.821 -0.9070  1.2365  0.7003
  146SAPE  H12Y16115   5.847   4.437   8.820  0.2358 -2.0632  1.1558
  146SAPE  C31316116   5.695   4.598   8.841 -0.1934  0.2759 -0.7680
  146SAPE  H13X16117   5.730   4.665   8.923  1.1943 -0.0511 -1.0755
  146SAPE  H13Y16118   5.584   4.600   8.847 -0.1375  0.6803  0.3141
  146SAPE  C31416119   5.746   4.654   8.704  0.2754  0.0004  0.2625
  146SAPE  H14X16120   5.689   4.749   8.694  1.4547  0.7151  0.3111
  146SAPE  H14Y16121   5.716   4.586   8.621 -1.8208  2.1958 -0.8255
  146SAPE  C31516122   5.895   4.695   8.700 -0.6694  0.3564  0.4496
  146SAPE  H15X16123   5.962   4.607   8.708 -0.3693  0.3187 -2.0067
  146SAPE  H15Y16124   5.919   4.752   8.792  1.1750 -2.3308  1.7107
  146SAPE  C31616125   5.942   4.763   8.570 -0.1476 -0.0815 -0.6144
  146SAPE  H16X16126   5.914   4.871   8.563 -0.5922 -0.1863 -0.4717
  146SAPE  H16Y16127   5.896   4.706   8.486  0.5279  0.1413 -1.1435
  146SAPE  C31716128   6.094   4.763   8.543  0.5479  0.1237  0.7785
  146SAPE  H17X16129   6.109   4.796   8.439  2.8065 -1.6866  0.4810
  146SAPE  H17Y16130   6.111   4.653   8.543 -0.5945 -0.0792  1.8779
  146SAPE  C31816131   6.180   4.817   8.653  0.1805 -0.4234 -0.5093
  146SAPE  H18X16132   6.178   4.750   8.741 -1.2387  0.4243  0.1198
  146SAPE  H18Y16133   6.150   4.919   8.684 -2.3916 -0.9885 -1.0603
  146SAPE  H18Z16134   6.287   4.821   8.623  0.1133  2.8068 -0.4815
  147SAPE     N16135   3.029   3.531   6.066 -0.1285 -0.2984 -0.4775
  147SAPE   HN116136   2.981   3.608   6.016 -0.7760 -0.5842 -0.3009
  147SAPE   HN216137   3.119   3.509   6.019  0.1180  0.4281 -0.3506
  147SAPE   HN316138   2.975   3.443   6.052 -1.8588  0.7899 -0.7372
  147SAPE   C1216139   3.046   3.558   6.209 -0.0487  0.2997 -0.0645
  147SAPE  H12A16140   3.144   3.608   6.222  0.6572 -1.3336  1.0419
  147SAPE  H12B16141   3.053   3.460   6.261  1.3106  0.2434 -0.3480
  147SAPE   C1116142   2.932   3.640   6.269 -0.8255  0.2472 -0.0085
  147SAPE  H11A16143   2.919   3.739   6.220  0.3539  1.0393  1.2598
  147SAPE  H11B16144   2.951   3.664   6.375 -1.7195 -1.3947  0.5363
  147SAPE     P16145   2.707   3.526   6.380  0.0410 -0.3117 -0.2799
  147SAPE   O1316146   2.645   3.651   6.432  0.1273  0.1180 -0.1209
  147SAPE   O1416147   2.612   3.417   6.338 -0.1332 -0.1129  0.1084
  147SAPE   O1216148   2.806   3.569   6.263  0.0563  0.5280 -0.4272
  147SAPE   O1116149   2.794   3.462   6.495 -0.0893 -0.0128  0.2489
  147SAPE    C116150   2.870   3.345   6.472  0.3943  0.3321  0.0420
  147SAPE    HA16151   2.809   3.254   6.456  1.1617 -0.1264 -0.3341
  147SAPE    HB16152   2.949   3.340   6.394  1.1644 -1.0252  0.8853
  147SAPE    C216153   2.960   3.309   6.603  0.1089  0.3654  0.5845
  147SAPE    HS16154   2.974   3.199   6.606 -3.5668 -0.2423 -1.5379
  147SAPE   O2116155   2.896   3.351   6.724 -0.4969  0.3475  0.1252
  147SAPE   C2116156   2.784   3.308   6.751 -0.5670 -0.0064 -0.2877
  147SAPE   O2216157   2.723   3.232   6.682 -0.2608  0.4317  0.2330
  147SAPE   C2216158   2.736   3.355   6.892  0.0119 -0.0529  0.8762
  147SAPE   H2R16159   2.692   3.265   6.940 -0.9394  0.6554  1.3559
  147SAPE   H2S16160   2.820   3.391   6.955 -0.6092 -2.5251  3.2130
  147SAPE    C316161   3.098   3.367   6.596  0.1950 -0.1280  0.1407
  147SAPE    HX16162   3.074   3.474   6.576 -2.3780 -0.9645 -1.5025
  147SAPE    HY16163   3.158   3.325   6.512  1.4454  1.8698 -0.0037
  147SAPE   O3116164   3.171   3.332   6.722  0.0020  0.5410 -0.0051
  147SAPE   C3116165   3.254   3.428   6.761  0.5564  0.5274  0.1559
  147SAPE   O3216166   3.287   3.525   6.701  0.7470  0.5001 -0.3807
  147SAPE   C3216167   3.298   3.393   6.904  0.5411 -0.1168  0.4513
  147SAPE   H2X16168   3.311   3.282   6.907  1.1329 -0.0761 -0.3843
  147SAPE   H2Y16169   3.216   3.412   6.977 -0.1518  0.1976 -0.3970
  147SAPE   C2316170   2.633   3.468   6.893 -0.3172  0.0542 -0.4170
  147SAPE   H3R16171   2.529   3.438   6.868 -1.7252  2.2496  2.4242
  147SAPE   H3S16172   2.664   3.542   6.816  0.4129 -2.6345 -2.7657
  147SAPE   C2416173   2.629   3.543   7.031  0.0760 -0.4022 -0.2269
  147SAPE   H4R16174   2.561   3.630   7.035  0.0586 -0.3707 -1.1027
  147SAPE   H4S16175   2.732   3.581   7.047 -0.2293 -0.1591  1.1757
  147SAPE   C2516176   2.586   3.455   7.146  0.1180  0.2827 -0.5481
  147SAPE   H5R16177   2.487   3.410   7.128  1.0129 -1.8496 -0.3318
  147SAPE   C2616178   2.660   3.411   7.251  0.2066  0.2303  0.0827
  147SAPE   H6R16179   2.614   3.346   7.327  0.8854  1.6365  1.7466
  147SAPE   C2716180   2.798   3.456   7.282 -0.5586  0.0236  0.2634
  147SAPE   H7R16181   2.858   3.466   7.189  1.1116 -1.7362  1.1254
  147SAPE   H7S16182   2.863   3.376   7.325  0.7166  0.8931 -0.0168
  147SAPE   C2816183   2.807   3.584   7.362  0.7907 -0.5447 -0.5923
  147SAPE   H8R16184   2.801   3.674   7.299 -0.9095 -1.7519 -2.2065
  147SAPE   C2916185   2.805   3.604   7.499  0.2036  0.3128 -1.1336
  147SAPE   H9R16186   2.819   3.702   7.547 -1.5187 -0.4752  1.0134
  147SAPE  C21016187   2.797   3.493   7.597  0.3393  0.0163 -0.3032
  147SAPE  H10R16188   2.726   3.411   7.571  1.1774 -0.4743 -1.0453
  147SAPE  H10S16189   2.768   3.540   7.694  1.4807  1.3743 -0.6023
  147SAPE  C21116190   2.931   3.440   7.632 -0.0399 -0.2026 -0.1760
  147SAPE  H11R16191   2.993   3.403   7.550  0.2584  0.9323 -0.4633
  147SAPE  C21216192   2.976   3.421   7.763  0.2592 -0.0309 -0.2597
  147SAPE  H12R16193   3.076   3.375   7.770 -0.7883 -2.3414 -0.1678
  147SAPE  C21316194   2.911   3.462   7.902 -0.9116  0.7984  0.6652
  147SAPE  H13R16195   2.913   3.367   7.961 -0.1009 -1.6785 -3.1871
  147SAPE  H13S16196   2.804   3.487   7.891 -0.2254  3.1981 -0.9525
  147SAPE  C21416197   2.982   3.585   7.965  0.0098 -0.7284  0.0038
  147SAPE  H14R16198   2.940   3.681   7.931 -2.0371 -1.4355  0.4603
  147SAPE  C21516199   3.082   3.578   8.054 -0.1240 -0.2560 -0.8624
  147SAPE  H15R16200   3.119   3.669   8.103  0.1646 -0.3197 -0.9618
  147SAPE  C21616201   3.139   3.452   8.123  0.2617 -0.1992  0.8518
  147SAPE  H16R16202   3.231   3.428   8.066 -0.0605 -0.1122  0.2945
  147SAPE  H16S16203   3.071   3.364   8.113  0.5059 -0.1657 -1.3641
  147SAPE  C21716204   3.180   3.467   8.273 -0.2181 -0.5161  0.1077
  147SAPE  H17R16205   3.112   3.494   8.356  1.9861  0.9502  1.4931
  147SAPE  H17S16206   3.267   3.536   8.267 -0.6593 -0.0323 -0.8672
  147SAPE  C21816207   3.249   3.336   8.318  0.3477  0.1855 -0.2183
  147SAPE  H18R16208   3.299   3.367   8.413 -0.3847 -0.4397  0.3787
  147SAPE  H18S16209   3.326   3.300   8.247  0.6179  0.8781 -0.2846
  147SAPE  C21916210   3.153   3.212   8.340  0.3540  0.0451  0.3126
  147SAPE  H19R16211   3.210   3.117   8.340 -0.3234 -0.3717 -0.3124
  147SAPE  H19S16212   3.094   3.205   8.245 -0.1455  0.5913  0.5747
  147SAPE  C22016213   3.060   3.223   8.456  0.6351 -0.1434  0.2689
  147SAPE  H20R16214   2.994   3.305   8.422  1.2952  0.6334  0.8075
  147SAPE  H20S16215   3.105   3.246   8.555  1.5225 -0.4963 -0.0443
  147SAPE  H20T16216   3.000   3.133   8.480 -0.1264  0.4274  0.5097
  147SAPE   C3316217   3.427   3.468   6.948 -0.0035  0.3765  0.4516
  147SAPE   H3X16218   3.402   3.571   6.913 -0.4072  0.8360  2.0604
  147SAPE   H3Y16219   3.509   3.418   6.893 -0.8456 -0.0397 -0.4500
  147SAPE   C3416220   3.446   3.475   7.097 -0.6039 -0.1319 -0.5590
  147SAPE   H4X16221   3.467   3.378   7.147  1.7975  1.5310  1.7887
  147SAPE   H4Y16222   3.353   3.513   7.144 -0.7137 -1.9436  0.7296
  147SAPE   C3516223   3.560   3.570   7.136 -0.0622 -0.6943  0.0018
  147SAPE   H5X16224   3.546   3.665   7.079  1.3806 -1.7266 -2.1598
  147SAPE   H5Y16225   3.651   3.519   7.097  1.2276  0.0069  2.0335
  147SAPE   C3616226   3.588   3.597   7.277  0.2073 -0.4574 -0.3984
  147SAPE   H6X16227   3.497   3.628   7.332 -0.5357 -2.2012 -0.5753
  147SAPE   H6Y16228   3.645   3.692   7.281  0.0588 -0.3217 -1.2470
  147SAPE   C3716229   3.668   3.481   7.345  0.5499 -0.3076  0.2236
  147SAPE   H7X16230   3.753   3.442   7.285  1.1956 -0.4726  1.2277
  147SAPE   H7Y16231   3.593   3.401   7.362 -1.0039  1.1717  0.5021
  147SAPE   C3816232   3.713   3.516   7.490  0.4508  1.5325  0.0414
  147SAPE   H8X16233   3.771   3.438   7.543 -2.7580  0.8004  2.5943
  147SAPE   H8Y16234   3.625   3.521   7.558 -0.7782 -0.2456 -1.3413
  147SAPE   C3916235   3.784   3.652   7.518 -0.3198  0.9684  0.3023
  147SAPE   H9X16236   3.727   3.745   7.496  0.0473  1.0495 -0.3169
  147SAPE   H9Y16237   3.876   3.657   7.456 -0.0440  0.4400  0.6644
  147SAPE  C31016238   3.838   3.677   7.665 -0.0829  0.3100 -0.0804
  147SAPE  H10X16239   3.934   3.732   7.670 -0.1111  0.3190  0.3579
  147SAPE  H10Y16240   3.864   3.580   7.712  0.1010  0.9994  1.2571
  147SAPE  C31116241   3.726   3.724   7.766 -0.4900  0.1661  0.3115
  147SAPE  H11X16242   3.648   3.644   7.758 -1.5455  1.3907 -2.4570
  147SAPE  H11Y16243   3.686   3.818   7.722  0.5599  0.0002 -1.0267
  147SAPE  C31216244   3.781   3.750   7.904 -0.0217  0.6372 -0.5614
  147SAPE  H12X16245   3.709   3.813   7.961  1.0100  0.2639  1.2210
  147SAPE  H12Y16246   3.874   3.811   7.900  0.2761  0.2649  0.4496
  147SAPE  C31316247   3.800   3.628   8.005 -0.2499 -0.5225 -0.1788
  147SAPE  H13X16248   3.887   3.569   7.971 -0.8069 -1.4115 -0.0922
  147SAPE  H13Y16249   3.708   3.565   8.011 -1.1827  0.8110 -0.2532
  147SAPE  C31416250   3.846   3.685   8.146 -0.0958 -0.0708  0.4770
  147SAPE  H14X16251   3.910   3.776   8.142  1.1588 -0.7351  3.7682
  147SAPE  H14Y16252   3.907   3.605   8.192 -0.0505 -0.2359  0.1323
  147SAPE  C31516253   3.723   3.699   8.243  0.2660 -0.4958  0.0855
  147SAPE  H15X16254   3.667   3.604   8.236 -0.8059  0.0846  0.5933
  147SAPE  H15Y16255   3.666   3.787   8.206  0.8433 -0.5368 -0.9011
  147SAPE  C31616256   3.766   3.703   8.386  0.3877 -0.1140 -0.5327
  147SAPE  H16X16257   3.860   3.762   8.388  0.0410  0.4279  0.0827
  147SAPE  H16Y16258   3.784   3.606   8.437 -1.5627  0.2934  0.9843
  147SAPE  C31716259   3.666   3.790   8.468  0.2677 -0.7535  0.2758
  147SAPE  H17X16260   3.567   3.742   8.478  1.4477 -3.0858  1.0933
  147SAPE  H17Y16261   3.650   3.886   8.414  0.6129 -0.5543  0.5262
  147SAPE  C31816262   3.706   3.815   8.617  0.2648 -0.3978 -0.2312
  147SAPE  H18X16263   3.784   3.893   8.628 -0.3487 -0.1713  2.9129
  147SAPE  H18Y16264   3.739   3.722   8.669 -0.8122 -0.0788  1.0489
  147SAPE  H18Z16265   3.622   3.859   8.674  1.2943  0.2765  0.7752
  148SAPE     N16266   2.201   1.186   6.337  0.4667  0.6310 -0.6878
  148SAPE   HN116267   2.292   1.234   6.348  1.0044 -0.5230 -0.0297
  148SAPE   HN216268   2.207   1.101   6.277 -0.8039 -0.5378  0.7932
  148SAPE   HN316269   2.138   1.252   6.287  2.2092  0.4116 -3.2859
  148SAPE   C1216270   2.138   1.143   6.464  0.1174 -0.1015 -0.1382
  148SAPE  H12A16271   2.195   1.058   6.507 -0.2738 -1.0628 -1.4602
  148SAPE  H12B16272   2.039   1.097   6.439 -1.1373  1.7035  1.3935
  148SAPE   C1116273   2.107   1.252   6.568  0.3663 -0.5548  0.0824
  148SAPE  H11A16274   2.205   1.293   6.599 -0.3015  1.5903 -0.5073
  148SAPE  H11B16275   2.056   1.211   6.658 -3.1387 -3.6425 -3.1094
  148SAPE     P16276   1.876   1.361   6.523  0.2425  0.0666  0.1811
  148SAPE   O1316277   1.827   1.491   6.473  0.7119  0.1216 -0.2016
  148SAPE   O1416278   1.826   1.239   6.464  0.1306  0.2253 -0.2933
  148SAPE   O1216279   2.028   1.357   6.513  0.4410 -0.3447 -0.3205
  148SAPE   O1116280   1.828   1.345   6.674 -0.4662  0.4973  0.7904
  148SAPE    C116281   1.749   1.440   6.749  0.7090 -0.2283  0.0779
  148SAPE    HA16282   1.674   1.479   6.678  0.8970  0.8190  0.4443
  148SAPE    HB16283   1.701   1.393   6.838  2.5674  0.9960  1.7709
  148SAPE    C216284   1.842   1.553   6.797  0.5414 -0.2145 -0.8716
  148SAPE    HS16285   1.892   1.601   6.710 -2.6484  1.3558 -1.8985
  148SAPE   O2116286   1.938   1.499   6.896  0.0372 -0.3980  0.6408
  148SAPE   C2116287   2.065   1.514   6.874  0.7022  0.6536 -0.3065
  148SAPE   O2216288   2.109   1.547   6.766  0.2893  0.2991 -0.1436
  148SAPE   C2216289   2.150   1.493   6.994 -0.2049 -0.1024 -0.3793
  148SAPE   H2R16290   2.137   1.587   7.052 -2.7660 -0.3933 -0.4094
  148SAPE   H2S16291   2.110   1.416   7.064  2.8466 -0.4198  1.0904
  148SAPE    C316292   1.770   1.665   6.871 -0.0594  0.2235 -0.2699
  148SAPE    HX16293   1.703   1.633   6.954 -1.4311  0.9603 -1.0837
  148SAPE    HY16294   1.705   1.723   6.803  0.5390  1.0902 -0.1180
  148SAPE   O3116295   1.862   1.759   6.928 -0.1693  0.5594  0.3430
  148SAPE   C3116296   1.940   1.844   6.854 -0.5265 -0.9330  0.1565
  148SAPE   O3216297   1.959   1.831   6.730  0.4053  0.0044 -0.2568
  148SAPE   C3216298   2.010   1.942   6.942  0.0715 -0.4909  0.0467
  148SAPE   H2X16299   2.071   2.011   6.880 -1.4900  0.9611  0.0876
  148SAPE   H2Y16300   2.082   1.889   7.007 -1.0162  1.8063  3.2252
  148SAPE   C2316301   2.296   1.465   6.970 -0.1960 -0.0740 -0.4640
  148SAPE   H3R16302   2.341   1.542   6.902  1.1082 -0.3253  0.0882
  148SAPE   H3S16303   2.307   1.376   6.904 -0.4615  0.9422 -1.9118
  148SAPE   C2416304   2.366   1.435   7.098  0.2194  0.0540 -0.0351
  148SAPE   H4R16305   2.315   1.352   7.150  0.4032 -0.8898 -1.3461
  148SAPE   H4S16306   2.340   1.525   7.158 -0.7585 -0.6165  0.5467
  148SAPE   C2516307   2.505   1.403   7.073  0.2483  0.4048 -0.7041
  148SAPE   H5R16308   2.525   1.350   6.979 -1.1685 -0.1886 -0.6811
  148SAPE   C2616309   2.609   1.436   7.148 -0.5485 -0.7482 -0.1120
  148SAPE   H6R16310   2.708   1.414   7.106 -0.1601 -0.8771  0.8606
  148SAPE   C2716311   2.609   1.509   7.278  0.1402  0.0907  0.0263
  148SAPE   H7R16312   2.510   1.559   7.278  0.1336  0.0770 -0.0693
  148SAPE   H7S16313   2.698   1.575   7.281 -0.9674  1.5512  3.3838
  148SAPE   C2816314   2.605   1.419   7.398  0.0764 -0.2229 -0.5425
  148SAPE   H8R16315   2.536   1.333   7.399 -0.2393  0.0249  2.5165
  148SAPE   C2916316   2.677   1.437   7.515 -0.1248  0.8821 -0.2181
  148SAPE   H9R16317   2.657   1.360   7.591 -2.3295 -0.8103 -2.4428
  148SAPE  C21016318   2.769   1.546   7.560 -0.0944 -0.1310  0.0033
  148SAPE  H10R16319   2.718   1.581   7.652  1.1014  2.0223 -0.1137
  148SAPE  H10S16320   2.766   1.632   7.490  0.6452  0.5688  0.8301
  148SAPE  C21116321   2.915   1.512   7.590  0.7886 -0.2277 -1.1952
  148SAPE  H11R16322   2.984   1.514   7.504  2.3867 -0.5322  0.0648
  148SAPE  C21216323   2.976   1.485   7.710  0.0778  0.3866 -0.0704
  148SAPE  H12R16324   3.085   1.469   7.711  0.3015  1.8058  2.5631
  148SAPE  C21316325   2.913   1.480   7.847 -0.2663 -0.1399 -0.2598
  148SAPE  H13R16326   2.895   1.371   7.862 -0.0998 -0.1584 -0.1882
  148SAPE  H13S16327   2.812   1.525   7.853  0.4196  1.1128  2.3703
  148SAPE  C21416328   2.997   1.520   7.963  0.4432  0.5647  0.3622
  148SAPE  H14R16329   3.090   1.568   7.932  0.6616  0.9719  1.6028
  148SAPE  C21516330   2.969   1.497   8.092  0.8484 -0.3717 -0.2729
  148SAPE  H15R16331   3.044   1.508   8.172 -2.8146  1.2900  3.1662
  148SAPE  C21616332   2.842   1.431   8.149  0.7872  0.3331 -0.1024
  148SAPE  H16R16333   2.826   1.340   8.087  1.5007  0.9064 -1.1438
  148SAPE  H16S16334   2.752   1.491   8.125 -0.2132 -1.9530 -2.4196
  148SAPE  C21716335   2.844   1.393   8.295 -0.4969  0.5233  0.0223
  148SAPE  H17R16336   2.905   1.305   8.323  2.3538  2.5709  0.4366
  148SAPE  H17S16337   2.743   1.366   8.332 -0.4198  1.3876  0.8777
  148SAPE  C21816338   2.887   1.516   8.380  0.1583 -0.2760  0.3083
  148SAPE  H18R16339   2.860   1.617   8.345 -0.6705 -0.2060  1.1091
  148SAPE  H18S16340   2.998   1.516   8.384  0.2909  3.0075 -2.0188
  148SAPE  C21916341   2.812   1.509   8.517 -0.5237 -0.1770  0.3219
  148SAPE  H19R16342   2.704   1.506   8.493  0.1968 -1.7247 -2.9929
  148SAPE  H19S16343   2.838   1.602   8.573 -3.5433  1.7968 -1.4363
  148SAPE  C22016344   2.843   1.393   8.605  0.6459  0.1154 -0.7161
  148SAPE  H20R16345   2.826   1.299   8.550 -0.8666 -0.9997  1.5581
  148SAPE  H20S16346   2.781   1.385   8.697 -0.9389 -1.2207 -1.8599
  148SAPE  H20T16347   2.948   1.395   8.642 -0.2964 -0.8526  2.1714
  148SAPE   C3316348   1.924   2.029   7.037 -0.5210 -0.5220  0.3827
  148SAPE   H3X16349   1.891   1.979   7.131 -0.6453 -1.3779 -0.1143
  148SAPE   H3Y16350   1.835   2.071   6.987  0.0336 -0.3101 -0.4331
  148SAPE   C3416351   2.026   2.131   7.092  0.2796  0.7861  0.0809
  148SAPE   H4X16352   2.071   2.196   7.013 -1.5183  0.2933 -1.3637
  148SAPE   H4Y16353   2.104   2.058   7.124 -3.6941 -3.5124  0.4838
  148SAPE   C3516354   1.975   2.211   7.215 -0.4372  0.1225 -0.3659
  148SAPE   H5X16355   1.914   2.156   7.290 -1.0330 -0.1856 -1.0709
  148SAPE   H5Y16356   1.909   2.285   7.165  0.0249  2.1065  1.8461
  148SAPE   C3616357   2.089   2.294   7.277 -0.0197 -0.2164 -0.5064
  148SAPE   H6X16358   2.046   2.375   7.339 -0.2984  0.5385 -1.6660
  148SAPE   H6Y16359   2.153   2.344   7.201 -1.2961  0.9013 -0.8555
  148SAPE   C3716360   2.172   2.197   7.378  0.0191 -0.0695 -0.1190
  148SAPE   H7X16361   2.276   2.235   7.383  0.1941 -0.7407  1.5927
  148SAPE   H7Y16362   2.179   2.095   7.333  0.8047 -0.3758  0.6917
  148SAPE   C3816363   2.122   2.197   7.522  0.8665 -0.1292  0.6954
  148SAPE   H8X16364   2.018   2.159   7.512  0.6446  0.3496  1.1524
  148SAPE   H8Y16365   2.119   2.304   7.552 -1.5946  0.0260 -0.0329
  148SAPE   C3916366   2.185   2.103   7.625 -0.1712 -0.3155  0.5031
  148SAPE   H9X16367   2.295   2.120   7.618 -0.8075  3.1986 -2.7727
  148SAPE   H9Y16368   2.165   1.997   7.600  1.1256  0.0726 -2.3829
  148SAPE  C31016369   2.146   2.147   7.773 -0.0398  0.4492  0.1671
  148SAPE  H10X16370   2.037   2.127   7.785  0.0675 -0.3586 -0.1717
  148SAPE  H10Y16371   2.166   2.256   7.775  1.6841  0.3215 -4.2954
  148SAPE  C31116372   2.224   2.074   7.885 -0.8051  0.3013  0.5166
  148SAPE  H11X16373   2.334   2.083   7.879 -0.5503 -2.0936  1.0718
  148SAPE  H11Y16374   2.192   1.968   7.871 -0.4887  0.3785 -0.8897
  148SAPE  C31216375   2.179   2.134   8.015  0.3528  0.2496  0.2291
  148SAPE  H12X16376   2.069   2.154   8.018  0.7325  3.0550 -2.5066
  148SAPE  H12Y16377   2.212   2.240   8.017 -0.5773  0.5671 -0.6056
  148SAPE  C31316378   2.219   2.048   8.139 -0.4205  0.7641  0.1380
  148SAPE  H13X16379   2.326   2.023   8.130 -0.3895  0.8408  0.2866
  148SAPE  H13Y16380   2.152   1.961   8.151  1.4634 -0.4226  2.6297
  148SAPE  C31416381   2.216   2.124   8.279 -0.0175 -0.2280  0.2407
  148SAPE  H14X16382   2.112   2.133   8.317 -0.4103  0.7664 -1.0061
  148SAPE  H14Y16383   2.257   2.227   8.275 -1.4231  0.3142 -1.3093
  148SAPE  C31516384   2.304   2.044   8.388  0.0399 -0.0802  0.8089
  148SAPE  H15X16385   2.411   2.061   8.363 -0.0008  0.5438  1.0556
  148SAPE  H15Y16386   2.288   1.935   8.390  0.7262 -0.2191 -0.5688
  148SAPE  C31616387   2.283   2.091   8.533 -0.1622  0.1420  0.3252
  148SAPE  H16X16388   2.177   2.067   8.555  0.9479 -2.1034  3.6146
  148SAPE  H16Y16389   2.301   2.201   8.533 -0.1407  0.1381 -0.0088
  148SAPE  C31716390   2.390   2.043   8.636  0.7119 -0.2444  0.6223
  148SAPE  H17X16391   2.399   1.934   8.616 -0.4131  0.1820 -2.5564
  148SAPE  H17Y16392   2.346   2.052   8.737  0.3624  2.6369  0.2587
  148SAPE  C31816393   2.527   2.118   8.630  0.2552  0.6972 -0.9086
  148SAPE  H18X16394   2.561   2.114   8.524 -1.7122  3.3723 -1.7037
  148SAPE  H18Y16395   2.609   2.089   8.699  1.0311 -0.4531 -2.2894
  148SAPE  H18Z16396   2.501   2.225   8.644  1.6727  0.8099  0.9828
  149SAPE     N16397   1.168   1.804   6.419  0.0044 -0.4704 -0.3425
  149SAPE   HN116398   1.192   1.785   6.320 -1.7835  1.2149 -1.1218
  149SAPE   HN216399   1.204   1.719   6.468  1.1463  0.6161  0.7366
  149SAPE   HN316400   1.068   1.821   6.442 -0.5244 -2.9210 -0.6076
  149SAPE   C1216401   1.249   1.921   6.454  0.1634 -0.2549  0.2333
  149SAPE  H12A16402   1.258   1.924   6.564 -1.5896 -0.2972  0.3839
  149SAPE  H12B16403   1.204   2.013   6.411  2.3200  0.1683 -1.1988
  149SAPE   C1116404   1.389   1.908   6.394  0.2694  0.1402  0.3117
  149SAPE  H11A16405   1.378   1.930   6.285 -1.5989  0.5712  0.5730
  149SAPE  H11B16406   1.427   1.806   6.415  0.2262 -0.3444 -1.8293
  149SAPE     P16407   1.637   1.995   6.451  0.3596 -0.0150  0.3237
  149SAPE   O1316408   1.680   1.856   6.434 -0.1607  0.4664 -0.7162
  149SAPE   O1416409   1.677   2.095   6.348 -0.2181  0.1757  0.4193
  149SAPE   O1216410   1.478   2.004   6.450  0.0385 -0.5364 -0.5490
  149SAPE   O1116411   1.683   2.051   6.591 -0.0606  0.8789  0.0017
  149SAPE    C116412   1.625   2.006   6.719 -0.3149  0.5572 -0.5643
  149SAPE    HA16413   1.571   1.910   6.707  2.3048 -0.8002 -1.9361
  149SAPE    HB16414   1.711   1.996   6.788  0.9138 -0.4038 -2.1951
  149SAPE    C216415   1.524   2.110   6.779 -0.0064  0.4128  0.4416
  149SAPE    HS16416   1.462   2.137   6.691 -0.8243 -2.1696  0.1676
  149SAPE   O2116417   1.599   2.214   6.831 -0.6774  0.6186 -0.1291
  149SAPE   C2116418   1.598   2.332   6.766 -0.0412  0.3657 -0.9228
  149SAPE   O2216419   1.533   2.356   6.669  0.0109  0.5752 -0.4794
  149SAPE   C2216420   1.685   2.439   6.835  0.1443  0.6049  0.5277
  149SAPE   H2R16421   1.773   2.382   6.870 -0.6593 -0.6893  0.5082
  149SAPE   H2S16422   1.700   2.513   6.753 -1.1238 -1.2466 -1.4429
  149SAPE    C316423   1.429   2.057   6.890  0.2692  0.1959  0.1976
  149SAPE    HX16424   1.352   1.995   6.840  1.7844 -1.5518 -0.0063
  149SAPE    HY16425   1.378   2.150   6.925 -2.0043 -2.4603  4.2827
  149SAPE   O3116426   1.493   1.973   6.987 -0.1506  0.1746 -0.5298
  149SAPE   C3116427   1.518   2.036   7.109  0.1393  0.7799  0.1765
  149SAPE   O3216428   1.501   2.153   7.126  0.0829  0.1136  0.6151
  149SAPE   C3216429   1.563   1.933   7.209  0.1098 -0.4308 -0.5840
  149SAPE   H2X16430   1.649   1.881   7.160  2.2947  1.3987  1.1738
  149SAPE   H2Y16431   1.486   1.860   7.240 -0.4001  0.8696  1.2688
  149SAPE   C2316432   1.618   2.490   6.965  0.7342 -0.2269 -0.5126
  149SAPE   H3R16433   1.578   2.407   7.028  1.4145  0.3143  0.6572
  149SAPE   H3S16434   1.541   2.564   6.933 -0.6878 -0.8041  1.4394
  149SAPE   C2416435   1.709   2.560   7.070 -1.1428  0.5764  0.3239
  149SAPE   H4R16436   1.776   2.628   7.013  0.0075 -0.2537  0.6689
  149SAPE   H4S16437   1.770   2.485   7.125  1.4727  0.1764 -2.8896
  149SAPE   C2516438   1.631   2.652   7.158 -0.1953 -0.1113 -0.7630
  149SAPE   H5R16439   1.553   2.712   7.109  1.4107  3.2192  0.6148
  149SAPE   C2616440   1.643   2.664   7.296 -0.6807 -0.3321 -0.2678
  149SAPE   H6R16441   1.568   2.715   7.358 -0.5695 -1.1338  0.5283
  149SAPE   C2716442   1.747   2.587   7.375  0.4369 -0.4417  0.3287
  149SAPE   H7R16443   1.787   2.649   7.458  0.2158 -0.1795  0.2403
  149SAPE   H7S16444   1.844   2.576   7.322  0.2800  0.6846 -0.2234
  149SAPE   C2816445   1.684   2.455   7.414  0.9117 -0.3188  0.2662
  149SAPE   H8R16446   1.654   2.390   7.330  0.1004  1.2701 -0.6802
  149SAPE   C2916447   1.681   2.395   7.538  0.1160 -0.9190  0.4100
  149SAPE   H9R16448   1.626   2.301   7.547  1.0876 -1.4891  0.5182
  149SAPE  C21016449   1.728   2.466   7.666  0.6651  0.0511  0.7147
  149SAPE  H10R16450   1.640   2.485   7.730  0.1206  0.3109 -0.1113
  149SAPE  H10S16451   1.773   2.565   7.643  1.7489 -0.5732  0.0819
  149SAPE  C21116452   1.820   2.367   7.736 -0.6798 -0.2867 -0.5445
  149SAPE  H11R16453   1.888   2.305   7.676 -1.1413 -1.6442  0.3013
  149SAPE  C21216454   1.837   2.349   7.872  0.4750  0.2916  0.1597
  149SAPE  H12R16455   1.900   2.267   7.909 -0.8537 -0.4322  0.8751
  149SAPE  C21316456   1.762   2.422   7.981 -1.0388 -0.7131 -0.6444
  149SAPE  H13R16457   1.678   2.480   7.937 -1.5979 -0.9301  0.1285
  149SAPE  H13S16458   1.824   2.504   8.022  0.6562 -2.0956 -0.3887
  149SAPE  C21416459   1.708   2.331   8.093 -0.0442  0.9365  0.3822
  149SAPE  H14R16460   1.639   2.252   8.061  2.1616 -0.9339  0.0756
  149SAPE  C21516461   1.736   2.338   8.222  0.4073  0.3132 -0.0910
  149SAPE  H15R16462   1.681   2.272   8.290 -0.0586  0.2036 -0.5703
  149SAPE  C21616463   1.819   2.443   8.290 -0.0903  0.9416 -0.3586
  149SAPE  H16R16464   1.761   2.501   8.365  0.4248 -0.8844  1.5019
  149SAPE  H16S16465   1.836   2.529   8.221 -0.3149  0.6218 -0.8089
  149SAPE  C21716466   1.953   2.378   8.350  0.0368 -0.5414 -0.3222
  149SAPE  H17R16467   1.997   2.296   8.288  0.8227  0.2391 -0.8140
  149SAPE  H17S16468   1.917   2.339   8.448 -1.9418 -0.1947 -0.8846
  149SAPE  C21816469   2.069   2.481   8.381  0.0488 -0.5093 -0.1684
  149SAPE  H18R16470   2.156   2.437   8.436  1.0671  2.6980  0.9069
  149SAPE  H18S16471   2.023   2.551   8.454 -2.8714 -1.3869 -1.1178
  149SAPE  C21916472   2.121   2.578   8.274 -1.1058 -0.1288  0.0384
  149SAPE  H19R16473   2.201   2.645   8.314 -0.4838 -0.0339 -1.3234
  149SAPE  H19S16474   2.031   2.633   8.239 -0.7427  1.0659  0.9547
  149SAPE  C22016475   2.184   2.512   8.155  0.2968  0.3050 -0.5550
  149SAPE  H20R16476   2.253   2.429   8.180 -1.5620 -0.7718  1.1438
  149SAPE  H20S16477   2.234   2.588   8.092  0.6557 -0.1086 -0.7609
  149SAPE  H20T16478   2.104   2.474   8.087 -1.8571 -0.3149  2.2000
  149SAPE   C3316479   1.623   2.005   7.334  0.3856 -0.0014  0.4396
  149SAPE   H3X16480   1.547   2.071   7.379 -0.9454 -1.3104  0.1587
  149SAPE   H3Y16481   1.711   2.061   7.295 -1.4954  1.0453 -2.4902
  149SAPE   C3416482   1.665   1.910   7.446  0.4923 -0.4882  0.6531
  149SAPE   H4X16483   1.731   1.828   7.411  1.9420  0.8587  0.1896
  149SAPE   H4Y16484   1.570   1.857   7.468  0.2385 -0.8765 -1.3360
  149SAPE   C3516485   1.708   1.962   7.579 -0.0966  0.1387 -0.2394
  149SAPE   H5X16486   1.614   1.997   7.626 -0.4186 -0.0039 -0.7747
  149SAPE   H5Y16487   1.780   2.047   7.573 -1.0999  1.1306  1.2357
  149SAPE   C3616488   1.781   1.850   7.665 -0.6061 -0.1001 -0.1527
  149SAPE   H6X16489   1.881   1.822   7.626  0.7754  0.3445  2.9033
  149SAPE   H6Y16490   1.716   1.761   7.665  2.7643 -2.6694  1.0057
  149SAPE   C3716491   1.807   1.909   7.806  0.3186 -0.0873  0.4011
  149SAPE   H7X16492   1.704   1.928   7.842 -0.2565 -0.4548 -0.9883
  149SAPE   H7Y16493   1.867   2.002   7.799  0.6430 -0.1273  2.4898
  149SAPE   C3816494   1.879   1.820   7.909 -0.2849 -0.5532 -0.0523
  149SAPE   H8X16495   1.985   1.800   7.882 -0.9058 -1.7953 -1.6524
  149SAPE   H8Y16496   1.838   1.718   7.926  0.1067 -0.2067  3.2775
  149SAPE   C3916497   1.871   1.870   8.063  0.3503 -0.0428  0.1316
  149SAPE   H9X16498   1.911   1.973   8.069 -0.9477  0.4598  0.3808
  149SAPE   H9Y16499   1.941   1.814   8.129  0.4634  2.6528  2.3898
  149SAPE  C31016500   1.722   1.863   8.124 -0.2372 -1.2300  0.7725
  149SAPE  H10X16501   1.692   1.761   8.094 -0.6519 -1.3652  1.6437
  149SAPE  H10Y16502   1.663   1.929   8.057 -0.5572 -2.4077 -0.1210
  149SAPE  C31116503   1.713   1.901   8.271  0.1461  1.2376  0.4180
  149SAPE  H11X16504   1.604   1.908   8.294 -0.2841 -2.0087 -0.3931
  149SAPE  H11Y16505   1.757   2.003   8.275 -1.6767  1.9863  1.9888
  149SAPE  C31216506   1.788   1.806   8.367 -0.1537 -0.0736 -0.3034
  149SAPE  H12X16507   1.887   1.786   8.322  1.8612  0.8727  3.5078
  149SAPE  H12Y16508   1.744   1.704   8.364 -1.3706  0.4716 -2.8078
  149SAPE  C31316509   1.804   1.857   8.504 -0.5918  0.6565 -0.0852
  149SAPE  H13X16510   1.700   1.867   8.542  0.3188 -0.8043  3.0355
  149SAPE  H13Y16511   1.859   1.953   8.501  0.8433 -0.1709 -0.9597
  149SAPE  C31416512   1.865   1.762   8.615  0.6367  0.0003 -0.1660
  149SAPE  H14X16513   1.895   1.832   8.696  2.9117 -1.0264 -0.0653
  149SAPE  H14Y16514   1.962   1.734   8.568  0.2726 -2.5373  0.5155
  149SAPE  C31516515   1.788   1.632   8.638 -0.7132  0.1267  0.4555
  149SAPE  H15X16516   1.776   1.583   8.539  0.8016 -0.7646  0.6999
  149SAPE  H15Y16517   1.698   1.648   8.701 -0.2309  1.7817  0.7560
  149SAPE  C31616518   1.875   1.538   8.713 -0.7813  0.0916 -0.5762
  149SAPE  H16X16519   1.901   1.584   8.811  0.9503 -0.4866 -0.7410
  149SAPE  H16Y16520   1.971   1.521   8.658 -0.2379 -1.6988  0.8813
  149SAPE  C31716521   1.807   1.406   8.731  0.2520  1.0295  0.7160
  149SAPE  H17X16522   1.716   1.404   8.795  0.3311 -3.6811  0.8783
  149SAPE  H17Y16523   1.883   1.348   8.787  2.9447  2.2425 -1.5750
  149SAPE  C31816524   1.768   1.325   8.607 -0.5605  0.5077 -0.1564
  149SAPE  H18X16525   1.663   1.347   8.582  0.0429  3.9525  0.1614
  149SAPE  H18Y16526   1.786   1.215   8.616  2.4519  0.9712  0.1310
  149SAPE  H18Z16527   1.831   1.357   8.522 -0.8804 -1.1606 -1.0503
  150SAPE     N16528   0.009   3.260   6.476 -0.4245 -0.5778  0.8602
  150SAPE   HN116529   0.070   3.289   6.396 -2.2076  0.6618 -0.0868
  150SAPE   HN216530  -0.088   3.252   6.440  0.6996 -1.0945 -2.3086
  150SAPE   HN316531   0.021   3.339   6.541 -1.3930 -0.7073  1.2023
  150SAPE   C1216532   0.062   3.124   6.522 -0.1982 -0.4286  0.5914
  150SAPE  H12A16533   0.017   3.042   6.461  1.6714 -1.5600  0.6579
  150SAPE  H12B16534   0.018   3.100   6.621  1.6412 -3.3009  0.7853
  150SAPE   C1116535   0.215   3.121   6.533  0.9475  0.3273 -0.4218
  150SAPE  H11A16536   0.252   3.036   6.593  0.2674  0.2237 -0.1394
  150SAPE  H11B16537   0.245   3.207   6.596  1.5064  0.7972 -1.3114
  150SAPE     P16538   0.342   3.261   6.353 -0.3182 -0.2149  0.0115
  150SAPE   O1316539   0.445   3.213   6.257  0.0926  0.2602  0.0561
  150SAPE   O1416540   0.239   3.358   6.306  0.6974  0.5558 -0.0113
  150SAPE   O1216541   0.274   3.127   6.405  0.0910 -0.3640  0.2637
  150SAPE   O1116542   0.411   3.324   6.471 -0.0327  0.0869 -0.5633
  150SAPE    C116543   0.520   3.262   6.550 -1.0464  0.3795 -0.3965
  150SAPE    HA16544   0.530   3.151   6.541 -1.8645  0.2187  0.5209
  150SAPE    HB16545   0.618   3.302   6.517 -0.8656 -0.0806 -0.4187
  150SAPE    C216546   0.506   3.288   6.703 -0.1893 -0.0845  0.0685
  150SAPE    HS16547   0.407   3.256   6.741  1.3996 -3.7851  1.2639
  150SAPE   O2116548   0.544   3.427   6.732  0.4334 -0.0187 -0.4955
  150SAPE   C2116549   0.432   3.502   6.775  0.4171 -0.5340 -0.3484
  150SAPE   O2216550   0.318   3.458   6.775  0.0084 -0.1564 -0.1769
  150SAPE   C2216551   0.473   3.651   6.807  0.6811  0.5027 -0.7040
  150SAPE   H2R16552   0.558   3.677   6.741  0.4022  0.0260 -1.2602
  150SAPE   H2S16553   0.387   3.719   6.786 -0.7226 -0.9694  0.1282
  150SAPE    C316554   0.601   3.191   6.771 -0.2743  0.4300  0.2666
  150SAPE    HX16555   0.694   3.224   6.721 -0.8154  1.1062 -0.2909
  150SAPE    HY16556   0.577   3.086   6.743  0.1080  0.0567  1.2970
  150SAPE   O3116557   0.618   3.221   6.911 -0.6875 -0.3971  0.6745
  150SAPE   C3116558   0.545   3.158   6.993 -0.0655 -0.1400  0.2344
  150SAPE   O3216559   0.471   3.062   6.963  0.2281  0.3336  0.5224
  150SAPE   C3216560   0.558   3.224   7.129  0.5246 -0.2752 -0.7932
  150SAPE   H2X16561   0.457   3.270   7.136  0.9691  0.6842 -0.4775
  150SAPE   H2Y16562   0.642   3.296   7.116  1.5996 -1.2399  0.6906
  150SAPE   C2316563   0.539   3.679   6.948 -0.2445  0.0999  0.4276
  150SAPE   H3R16564   0.629   3.744   6.938  0.8259 -1.2223  1.2659
  150SAPE   H3S16565   0.573   3.582   6.990 -1.1965 -0.6322 -0.4506
  150SAPE   C2416566   0.442   3.757   7.047 -0.1924  0.7773  0.3102
  150SAPE   H4R16567   0.481   3.746   7.151  0.0249  3.0245  0.4936
  150SAPE   H4S16568   0.345   3.703   7.045  0.2365  0.0300 -0.7795
  150SAPE   C2516569   0.417   3.901   7.013 -1.2965  0.0515 -0.3844
  150SAPE   H5R16570   0.455   3.935   6.915 -0.7691 -0.9817 -0.5457
  150SAPE   C2616571   0.342   3.977   7.091  0.4974 -0.0687 -0.5083
  150SAPE   H6R16572   0.337   4.082   7.058 -0.8960 -0.1228 -0.5255
  150SAPE   C2716573   0.267   3.955   7.226  0.3949 -1.0809  0.1531
  150SAPE   H7R16574   0.267   3.849   7.261 -0.2079 -1.3764 -0.7354
  150SAPE   H7S16575   0.164   3.995   7.215  0.9343  0.3598  0.2078
  150SAPE   C2816576   0.344   4.035   7.336 -0.4462 -0.5896  0.6073
  150SAPE   H8R16577   0.353   4.141   7.308 -0.2335 -1.0235 -1.0539
  150SAPE   C2916578   0.400   3.997   7.453 -0.4422  0.2155 -0.2605
  150SAPE   H9R16579   0.449   4.070   7.519  1.3723 -0.5906 -0.7029
  150SAPE  C21016580   0.399   3.855   7.510 -0.7315 -0.0654 -0.6503
  150SAPE  H10R16581   0.297   3.810   7.504 -0.7607 -0.0697 -0.1118
  150SAPE  H10S16582   0.417   3.860   7.619  0.4053  2.4681 -0.9232
  150SAPE  C21116583   0.510   3.772   7.447 -0.7048  0.5180  0.2732
  150SAPE  H11R16584   0.555   3.808   7.354  0.7749 -0.7584  0.4779
  150SAPE  C21216585   0.560   3.656   7.503 -0.3945 -0.2911 -0.5549
  150SAPE  H12R16586   0.631   3.600   7.440  0.2992  0.1637 -0.1971
  150SAPE  C21316587   0.516   3.591   7.627 -0.0601  0.3260 -0.1113
  150SAPE  H13R16588   0.474   3.495   7.588 -1.7862  0.1533  2.0857
  150SAPE  H13S16589   0.426   3.644   7.665 -0.3290  0.1670 -0.5142
  150SAPE  C21416590   0.635   3.565   7.719 -0.2498  0.0756 -0.5831
  150SAPE  H14R16591   0.720   3.523   7.663 -2.2478 -2.0236 -2.1550
  150SAPE  C21516592   0.658   3.581   7.853  0.5161  0.4582  1.3303
  150SAPE  H15R16593   0.755   3.569   7.902  0.4852 -0.7414  1.1188
  150SAPE  C21616594   0.546   3.625   7.944 -0.4617 -0.0977 -0.2323
  150SAPE  H16R16595   0.480   3.542   7.977  0.1266 -0.3609  0.2892
  150SAPE  H16S16596   0.476   3.697   7.897 -1.3552 -1.3394 -0.8328
  150SAPE  C21716597   0.597   3.678   8.081  1.0895  0.0196  0.5151
  150SAPE  H17R16598   0.513   3.728   8.134 -1.3756 -0.8063 -2.5234
  150SAPE  H17S16599   0.667   3.764   8.071  0.2985  0.9307  2.4780
  150SAPE  C21816600   0.669   3.568   8.161 -0.2300  0.0821 -0.3758
  150SAPE  H18R16601   0.762   3.555   8.101  0.9309  1.9847  0.9231
  150SAPE  H18S16602   0.593   3.488   8.166  0.4355 -0.4678  1.1021
  150SAPE  C21916603   0.704   3.601   8.299 -0.4239 -0.4020  0.1172
  150SAPE  H19R16604   0.772   3.688   8.294 -2.5345  1.1938 -1.6121
  150SAPE  H19S16605   0.751   3.523   8.363 -0.0762 -0.8097 -0.6359
  150SAPE  C22016606   0.583   3.648   8.383  0.7807 -0.3871 -0.1429
  150SAPE  H20R16607   0.503   3.571   8.374  2.3769 -1.9904 -1.1262
  150SAPE  H20S16608   0.544   3.747   8.352 -0.6018 -0.3590  1.6697
  150SAPE  H20T16609   0.616   3.649   8.489  1.2104  0.8951 -0.2828
  150SAPE   C3316610   0.578   3.133   7.250 -0.3329 -0.2814 -0.4700
  150SAPE   H3X16611   0.655   3.054   7.237 -0.2607 -0.5093  1.2611
  150SAPE   H3Y16612   0.480   3.085   7.273 -0.8545  0.8017 -0.4098
  150SAPE   C3416613   0.602   3.212   7.381  0.7199 -0.7318  0.3440
  150SAPE   H4X16614   0.510   3.273   7.397  1.0828 -0.6530  2.3250
  150SAPE   H4Y16615   0.693   3.273   7.367  0.2011  0.0166  0.1863
  150SAPE   C3516616   0.617   3.125   7.507  0.2007  0.4340  0.3555
  150SAPE   H5X16617   0.707   3.061   7.513  1.0686  1.5836 -0.3224
  150SAPE   H5Y16618   0.532   3.054   7.498  1.0485 -0.5509  0.1203
  150SAPE   C3616619   0.592   3.199   7.639  0.0723 -0.3792 -0.2680
  150SAPE   H6X16620   0.501   3.263   7.630  0.1557 -0.2738 -0.3686
  150SAPE   H6Y16621   0.680   3.260   7.670  0.6775 -0.9098 -0.9068
  150SAPE   C3716622   0.565   3.109   7.759 -0.7611  0.0740 -0.4001
  150SAPE   H7X16623   0.665   3.079   7.798 -1.4709 -0.2568  1.1987
  150SAPE   H7Y16624   0.506   3.015   7.745 -1.3641  0.8449 -3.4992
  150SAPE   C3816625   0.508   3.180   7.884 -0.4757  0.1394  0.3186
  150SAPE   H8X16626   0.421   3.240   7.849 -0.9880  0.6626  2.4119
  150SAPE   H8Y16627   0.587   3.249   7.919 -1.6283  2.3078 -1.2129
  150SAPE   C3916628   0.459   3.084   7.988  0.4093  0.2133  0.2028
  150SAPE   H9X16629   0.545   3.017   8.008 -0.6718 -1.5306 -0.8765
  150SAPE   H9Y16630   0.370   3.031   7.948  1.0659  0.8907 -2.2795
  150SAPE  C31016631   0.421   3.149   8.118  0.5307  0.2976  0.1022
  150SAPE  H10X16632   0.444   3.258   8.116 -0.0055  0.4373  1.0891
  150SAPE  H10Y16633   0.490   3.103   8.192  2.2631 -0.5577 -1.9948
  150SAPE  C31116634   0.277   3.115   8.170 -0.1965 -0.0451  0.4469
  150SAPE  H11X16635   0.251   3.008   8.158 -0.2783  0.0182  0.0718
  150SAPE  H11Y16636   0.210   3.170   8.101 -2.5737 -3.9281 -0.4911
  150SAPE  C31216637   0.247   3.171   8.312  0.5557 -0.0795 -0.2434
  150SAPE  H12X16638   0.244   3.282   8.309 -0.6019 -0.1403 -1.4909
  150SAPE  H12Y16639   0.321   3.128   8.383  1.0261  1.4946  0.2391
  150SAPE  C31316640   0.102   3.131   8.357 -0.2627  0.1412  0.4785
  150SAPE  H13X16641   0.098   3.020   8.352  2.1206  0.0760 -0.4660
  150SAPE  H13Y16642   0.035   3.162   8.273 -0.4954 -1.8311 -0.0802
  150SAPE  C31416643   0.060   3.178   8.493 -0.2214 -0.0673 -0.1478
  150SAPE  H14X16644   0.093   3.105   8.569  2.4206 -1.1806 -2.2678
  150SAPE  H14Y16645  -0.051   3.181   8.491 -0.2540 -1.5867 -1.9015
  150SAPE  C31516646   0.107   3.322   8.536 -0.5261 -0.4855 -0.6821
  150SAPE  H15X16647   0.090   3.377   8.441  0.0648  1.9802  0.6052
  150SAPE  H15Y16648   0.216   3.340   8.541 -0.3171 -0.8149 -3.4254
  150SAPE  C31616649   0.028   3.383   8.650 -0.2931 -0.3189 -0.4261
  150SAPE  H16X16650   0.044   3.317   8.738  1.6144 -0.4698 -0.8532
  150SAPE  H16Y16651  -0.077   3.361   8.622 -0.1275 -2.7506  0.7127
  150SAPE  C31716652   0.063   3.517   8.687  0.3334  0.4423 -0.2397
  150SAPE  H17X16653   0.169   3.532   8.720  0.3319 -0.5576  0.2361
  150SAPE  H17Y16654  -0.010   3.553   8.762  1.3410  0.6512  0.6610
  150SAPE  C31816655   0.039   3.618   8.572  0.1581  0.1831 -0.4607
  150SAPE  H18X16656  -0.065   3.611   8.534  0.0466 -1.8957  0.1472
  150SAPE  H18Y16657   0.115   3.595   8.493 -1.3590 -0.6778 -1.7070
  150SAPE  H18Z16658   0.057   3.716   8.620 -0.1712 -0.2790  0.6032
  151SAPE     N16659   3.607   1.122   6.233  0.2184  0.0006 -0.1513
  151SAPE   HN116660   3.662   1.106   6.146 -0.2983 -0.3346 -0.4132
  151SAPE   HN216661   3.605   1.226   6.246 -0.7118  0.1010 -1.0288
  151SAPE   HN316662   3.666   1.087   6.311 -3.2849  1.0665  3.1104
  151SAPE   C1216663   3.472   1.056   6.247  0.2225  0.0267  0.2863
  151SAPE  H12A16664   3.470   0.964   6.184 -0.1997  0.7410 -0.7596
  151SAPE  H12B16665   3.399   1.125   6.198 -0.2754 -0.9763 -0.4101
  151SAPE   C1116666   3.430   1.033   6.397  0.0976 -0.1236  0.5849
  151SAPE  H11A16667   3.503   0.957   6.433  0.5579  0.0786  0.0821
  151SAPE  H11B16668   3.326   0.994   6.391  0.0630  0.2097 -1.1973
  151SAPE     P16669   3.362   1.163   6.613 -0.1459  0.0890 -0.5270
  151SAPE   O1316670   3.451   1.208   6.726  0.9659  0.1168 -0.4639
  151SAPE   O1416671   3.246   1.246   6.584  0.0431  0.2070  0.0303
  151SAPE   O1216672   3.453   1.143   6.482  0.1207  0.0071 -0.0079
  151SAPE   O1116673   3.307   1.013   6.641 -0.0394  0.4056 -0.4889
  151SAPE    C116674   3.395   0.912   6.702 -0.0638 -0.0864  0.3530
  151SAPE    HA16675   3.374   0.811   6.661  3.1808 -1.1423  1.1192
  151SAPE    HB16676   3.502   0.923   6.675  0.1597 -0.3854  1.1182
  151SAPE    C216677   3.381   0.908   6.857  0.7280 -0.1883 -0.1567
  151SAPE    HS16678   3.416   1.006   6.895  1.3788 -1.2915  2.1665
  151SAPE   O2116679   3.462   0.794   6.901  0.3179 -0.2225 -0.2845
  151SAPE   C2116680   3.586   0.826   6.926  0.6222 -0.6028  0.3622
  151SAPE   O2216681   3.641   0.932   6.895  0.3722  0.0605  0.0679
  151SAPE   C2216682   3.644   0.699   6.990  0.1128 -0.2202  0.6004
  151SAPE   H2R16683   3.575   0.618   7.023 -0.2652 -1.1267 -2.2964
  151SAPE   H2S16684   3.700   0.644   6.911 -3.2474 -1.1439 -1.2488
  151SAPE    C316685   3.237   0.887   6.910  0.3087 -0.2358  0.7531
  151SAPE    HX16686   3.198   0.791   6.867  0.8208 -1.6378  3.3613
  151SAPE    HY16687   3.182   0.962   6.849  1.8034 -1.6334 -2.4591
  151SAPE   O3116688   3.219   0.919   7.045 -0.4874 -0.4412 -0.4437
  151SAPE   C3116689   3.200   0.814   7.134  0.2944  0.0412 -0.0377
  151SAPE   O3216690   3.223   0.697   7.101 -0.1994 -0.3587  0.3496
  151SAPE   C3216691   3.179   0.865   7.273 -0.6273  0.4883  0.4014
  151SAPE   H2X16692   3.112   0.953   7.258 -1.5789 -0.5370 -1.5090
  151SAPE   H2Y16693   3.272   0.912   7.311 -0.5524  1.2449 -0.6956
  151SAPE   C2316694   3.728   0.749   7.108  0.3343  0.8338  0.1931
  151SAPE   H3R16695   3.777   0.845   7.080 -0.1233  1.3838  1.2338
  151SAPE   H3S16696   3.802   0.672   7.138  0.1162  0.4780 -0.1755
  151SAPE   C2416697   3.651   0.793   7.234 -0.1182  0.6099  1.3307
  151SAPE   H4R16698   3.585   0.879   7.210 -1.4265 -1.1258 -1.5556
  151SAPE   H4S16699   3.736   0.830   7.296 -0.2382 -1.9967  3.1252
  151SAPE   C2516700   3.581   0.689   7.309 -0.1551  0.2557 -0.1251
  151SAPE   H5R16701   3.483   0.660   7.269 -1.1001  0.2769  2.1344
  151SAPE   C2616702   3.617   0.625   7.425  0.0681  0.2686 -0.1073
  151SAPE   H6R16703   3.540   0.555   7.462  0.3294 -1.6141 -2.9496
  151SAPE   C2716704   3.742   0.654   7.504 -0.4263  0.8648  0.3006
  151SAPE   H7R16705   3.738   0.764   7.522 -0.6813  0.2303  4.4153
  151SAPE   H7S16706   3.836   0.641   7.446 -0.5379 -0.0816  0.3299
  151SAPE   C2816707   3.753   0.580   7.634 -0.0396  0.6732 -0.8107
  151SAPE   H8R16708   3.812   0.488   7.630  2.9634  2.4971 -0.1303
  151SAPE   C2916709   3.698   0.615   7.755  0.1573  0.0952 -0.0239
  151SAPE   H9R16710   3.708   0.552   7.845 -1.5878  1.0273  0.8523
  151SAPE  C21016711   3.623   0.744   7.777 -0.0366 -0.2978  0.3754
  151SAPE  H10R16712   3.517   0.728   7.746  0.2437 -2.0805  0.3182
  151SAPE  H10S16713   3.659   0.820   7.704  0.7103  0.2685  1.3212
  151SAPE  C21116714   3.635   0.794   7.922  0.5700 -0.4183 -0.6792
  151SAPE  H11R16715   3.708   0.875   7.937  0.8537 -0.8693  0.4834
  151SAPE  C21216716   3.558   0.753   8.027  0.0753  0.1447  0.1815
  151SAPE  H12R16717   3.574   0.797   8.126 -1.6256  1.3483 -0.0504
  151SAPE  C21316718   3.448   0.647   8.026  0.0735  0.3008 -0.1980
  151SAPE  H13R16719   3.496   0.553   7.991 -2.3454 -1.0015 -0.1060
  151SAPE  H13S16720   3.380   0.667   7.940  0.6033  1.5393 -0.3423
  151SAPE  C21416721   3.376   0.634   8.154  0.6653 -0.0962 -0.4181
  151SAPE  H14R16722   3.267   0.634   8.136  0.1974  1.2046  2.2500
  151SAPE  C21516723   3.428   0.600   8.273  0.1068  0.8567 -0.1906
  151SAPE  H15R16724   3.359   0.612   8.358  0.2262  0.9897 -0.1095
  151SAPE  C21616725   3.579   0.578   8.308 -0.4394  0.1000 -0.1017
  151SAPE  H16R16726   3.602   0.651   8.389  0.3083  2.8646 -2.6948
  151SAPE  H16S16727   3.639   0.586   8.214  0.6846 -0.6760  0.5409
  151SAPE  C21716728   3.613   0.442   8.366 -0.5490  0.5580 -0.5104
  151SAPE  H17R16729   3.571   0.352   8.316  1.9511 -0.7308 -0.3524
  151SAPE  H17S16730   3.568   0.437   8.468  1.4121  1.2834  0.4242
  151SAPE  C21816731   3.766   0.419   8.379 -0.6123 -0.1549  0.1422
  151SAPE  H18R16732   3.815   0.438   8.281  1.5338 -0.6144  1.1045
  151SAPE  H18S16733   3.774   0.312   8.406 -1.3192 -0.1436  0.4299
  151SAPE  C21916734   3.832   0.503   8.485 -0.1389 -0.7426  0.3075
  151SAPE  H19R16735   3.786   0.487   8.585 -0.0645 -0.7973  0.3321
  151SAPE  H19S16736   3.825   0.612   8.463  2.7900 -0.5309  0.3113
  151SAPE  C22016737   3.975   0.464   8.518 -0.5463  0.3247  0.5247
  151SAPE  H20R16738   3.987   0.353   8.522 -0.5044  0.3005 -0.1714
  151SAPE  H20S16739   4.047   0.489   8.438 -0.0660  0.6259  1.0452
  151SAPE  H20T16740   4.016   0.501   8.615  0.6154 -3.4700  1.6118
  151SAPE   C3316741   3.121   0.771   7.374 -0.3823 -0.2779  0.0163
  151SAPE   H3X16742   3.090   0.676   7.325 -1.0968 -0.3657  0.6488
  151SAPE   H3Y16743   3.036   0.814   7.429  0.2180  0.9087  0.0212
  151SAPE   C3416744   3.233   0.725   7.470 -0.7260  0.5306  0.1001
  151SAPE   H4X16745   3.281   0.810   7.523 -1.1576 -0.4618  2.1243
  151SAPE   H4Y16746   3.308   0.670   7.410 -1.2176 -0.3533  0.2896
  151SAPE   C3516747   3.172   0.635   7.577 -0.1598 -0.2641 -0.8014
  151SAPE   H5X16748   3.244   0.573   7.634  0.3363  1.3911  0.4129
  151SAPE   H5Y16749   3.086   0.573   7.543 -0.8018 -0.0523  0.4229
  151SAPE   C3616750   3.095   0.712   7.695  0.3583 -0.7180  0.3798
  151SAPE   H6X16751   3.008   0.775   7.668  2.3353  1.0500 -2.1798
  151SAPE   H6Y16752   3.170   0.783   7.738 -0.4871  1.3568 -1.4567
  151SAPE   C3716753   3.047   0.629   7.812  0.4088  0.6085  0.5038
  151SAPE   H7X16754   3.137   0.579   7.854 -0.0213 -0.8113 -0.2169
  151SAPE   H7Y16755   2.989   0.541   7.776  0.9432  0.3291  0.3289
  151SAPE   C3816756   2.959   0.699   7.915  0.0860 -0.5208  0.1565
  151SAPE   H8X16757   2.920   0.625   7.988  0.9419 -1.3802 -0.2426
  151SAPE   H8Y16758   2.876   0.742   7.856  0.2566 -1.9204 -1.1272
  151SAPE   C3916759   3.037   0.806   7.989  0.4229 -0.0263  0.1084
  151SAPE   H9X16760   3.071   0.869   7.904 -1.2816 -0.9424 -1.2844
  151SAPE   H9Y16761   3.125   0.777   8.050 -0.6749 -1.0136  1.2534
  151SAPE  C31016762   2.942   0.887   8.076 -0.3263 -0.4504 -0.1330
  151SAPE  H10X16763   2.839   0.900   8.036 -0.1387  1.2935 -0.0729
  151SAPE  H10Y16764   2.990   0.985   8.096  0.5861 -0.5245 -1.9061
  151SAPE  C31116765   2.908   0.808   8.211  0.3562 -0.0078  0.5258
  151SAPE  H11X16766   3.002   0.764   8.250 -0.8796 -0.5173  3.0444
  151SAPE  H11Y16767   2.841   0.722   8.191  0.7587 -0.7143  2.0801
  151SAPE  C31216768   2.848   0.910   8.308  0.1189  0.1779  0.1105
  151SAPE  H12X16769   2.768   0.969   8.259 -0.3699 -0.8693 -0.3716
  151SAPE  H12Y16770   2.917   0.992   8.337  1.7022 -1.1138  0.0345
  151SAPE  C31316771   2.782   0.852   8.438 -0.9343  0.4063 -0.0681
  151SAPE  H13X16772   2.708   0.775   8.408 -0.0678 -0.5929  0.3100
  151SAPE  H13Y16773   2.725   0.936   8.484 -0.9904  1.6803 -2.4219
  151SAPE  C31416774   2.887   0.814   8.537 -0.2151  0.6465  0.7571
  151SAPE  H14X16775   2.944   0.907   8.558  0.8521  0.1032  0.3097
  151SAPE  H14Y16776   2.964   0.748   8.492 -0.2640 -0.0113  1.6305
  151SAPE  C31516777   2.833   0.772   8.675  0.1966 -0.1045 -0.2816
  151SAPE  H15X16778   2.735   0.823   8.689 -0.8146 -1.5989 -1.7575
  151SAPE  H15Y16779   2.908   0.804   8.750  1.1441 -0.4294 -1.0857
  151SAPE  C31616780   2.804   0.619   8.685  0.4962  0.3661 -0.3393
  151SAPE  H16X16781   2.760   0.575   8.593 -0.8379 -1.8297  1.3014
  151SAPE  H16Y16782   2.727   0.600   8.763 -0.0748  1.8203 -0.5249
  151SAPE  C31716783   2.926   0.534   8.711  0.0753  0.1225 -0.0261
  151SAPE  H17X16784   2.994   0.589   8.779 -0.5505  0.5607  0.2452
  151SAPE  H17Y16785   2.980   0.510   8.617  1.4875  0.7706  0.5854
  151SAPE  C31816786   2.882   0.405   8.781  0.3648  0.3098  0.1512
  151SAPE  H18X16787   2.844   0.430   8.882 -1.5219 -1.8792  0.0032
  151SAPE  H18Y16788   2.970   0.338   8.789  0.0859 -0.5896 -3.4421
  151SAPE  H18Z16789   2.799   0.350   8.732 -1.0026  3.6889 -1.4754
  152SAPE     N16790   0.898   4.794   5.839  0.4519 -0.1510  0.4853
  152SAPE   HN116791   0.931   4.839   5.752  2.6748 -0.6464  1.0367
  152SAPE   HN216792   0.929   4.696   5.822  2.8759  1.0119 -2.0648
  152SAPE   HN316793   0.794   4.791   5.840  0.4685 -1.1195 -0.1241
  152SAPE   C1216794   0.938   4.860   5.965 -0.6638 -0.1402  0.0492
  152SAPE  H12A16795   0.862   4.940   5.975  0.8061  1.3846 -0.7710
  152SAPE  H12B16796   1.042   4.899   5.956 -0.2119 -1.2931  0.2011
  152SAPE   C1116797   0.918   4.763   6.079  0.1592  0.0534  0.5631
  152SAPE  H11A16798   0.941   4.828   6.166 -0.8462  0.5215  0.4878
  152SAPE  H11B16799   0.993   4.682   6.077  0.2650  0.1595 -0.3084
  152SAPE     P16800   0.683   4.748   6.210  0.1263  0.2148 -0.0762
  152SAPE   O1316801   0.652   4.890   6.204 -0.0335 -0.6323 -0.2668
  152SAPE   O1416802   0.565   4.653   6.207  0.1873  0.2209 -0.1167
  152SAPE   O1216803   0.786   4.709   6.094  0.7002  0.6287 -0.2714
  152SAPE   O1116804   0.766   4.725   6.336  0.2612  0.2581  0.1150
  152SAPE    C116805   0.775   4.588   6.392  0.1645 -0.1731 -0.1488
  152SAPE    HA16806   0.774   4.513   6.310 -1.7841 -1.5407  1.0851
  152SAPE    HB16807   0.881   4.574   6.425 -0.1489 -1.6522  0.3031
  152SAPE    C216808   0.678   4.559   6.509 -0.9583 -0.3086 -0.0866
  152SAPE    HS16809   0.570   4.559   6.480 -1.4497  2.2751  1.6128
  152SAPE   O2116810   0.714   4.649   6.615  0.3320  0.1593 -0.1108
  152SAPE   C2116811   0.617   4.737   6.647 -1.2087 -0.4408  0.1369
  152SAPE   O2216812   0.514   4.759   6.585 -0.6347 -0.1611  0.6704
  152SAPE   C2216813   0.673   4.813   6.763 -0.4898  0.3964  0.1228
  152SAPE   H2R16814   0.759   4.754   6.800 -0.7725  0.3105  0.6550
  152SAPE   H2S16815   0.720   4.908   6.731  1.2413 -1.1609 -2.0258
  152SAPE    C316816   0.696   4.416   6.563 -0.2762 -0.1124  0.7974
  152SAPE    HX16817   0.804   4.391   6.568  0.3109  2.0244 -0.7153
  152SAPE    HY16818   0.644   4.356   6.485 -1.5585 -0.0927  1.6190
  152SAPE   O3116819   0.634   4.410   6.693  0.4704  0.9062  0.1943
  152SAPE   C3116820   0.500   4.402   6.706  0.3358  0.0854 -0.0610
  152SAPE   O3216821   0.416   4.378   6.621 -0.1728 -0.6321  0.1435
  152SAPE   C3216822   0.479   4.436   6.852  0.5241  0.0714  0.2243
  152SAPE   H2X16823   0.370   4.452   6.869  0.2517  0.2380 -1.6587
  152SAPE   H2Y16824   0.531   4.531   6.872 -0.6490  0.3814  1.9605
  152SAPE   C2316825   0.575   4.849   6.871 -0.1999  0.2575 -0.1671
  152SAPE   H3R16826   0.486   4.782   6.859 -0.7117  0.9793 -0.4206
  152SAPE   H3S16827   0.537   4.952   6.853  1.2156  0.5845 -1.3278
  152SAPE   C2416828   0.621   4.839   7.018  0.1808  0.0458 -0.8398
  152SAPE   H4R16829   0.671   4.740   7.028 -1.3610 -0.8644 -1.9265
  152SAPE   H4S16830   0.533   4.846   7.084  1.0932  1.3451  0.2513
  152SAPE   C2516831   0.718   4.945   7.058 -0.5602 -0.4140 -0.5301
  152SAPE   H5R16832   0.774   4.988   6.973  2.9200 -0.3385  1.7379
  152SAPE   C2616833   0.760   4.973   7.182 -0.1329  0.0178 -0.0021
  152SAPE   H6R16834   0.840   5.046   7.200  1.3440 -1.2736 -1.0724
  152SAPE   C2716835   0.701   4.914   7.303 -0.6918  0.3774 -0.4944
  152SAPE   H7R16836   0.788   4.875   7.359  0.6041  2.3297 -1.1245
  152SAPE   H7S16837   0.644   4.819   7.300  0.8474 -0.5887  0.4278
  152SAPE   C2816838   0.629   5.031   7.376 -0.5251  0.0338 -0.2479
  152SAPE   H8R16839   0.523   5.052   7.356 -1.1249 -0.8499  1.8423
  152SAPE   C2916840   0.692   5.109   7.467 -0.0143  0.1813  0.0001
  152SAPE   H9R16841   0.628   5.180   7.520  1.0818  0.7987  0.5169
  152SAPE  C21016842   0.830   5.097   7.525  0.9808 -0.2375  0.2850
  152SAPE  H10R16843   0.896   5.036   7.460  2.6445  0.8076  0.9751
  152SAPE  H10S16844   0.820   5.022   7.606 -2.6175  1.5864  1.6359
  152SAPE  C21116845   0.892   5.220   7.581 -0.1992  0.2204  0.1006
  152SAPE  H11R16846   0.912   5.293   7.501  2.0619 -1.3273 -0.7757
  152SAPE  C21216847   0.919   5.252   7.712  0.7822 -0.3195 -0.9431
  152SAPE  H12R16848   0.984   5.341   7.725 -1.9512  1.4846  0.8676
  152SAPE  C21316849   0.868   5.169   7.828  0.2840  0.0732 -0.1763
  152SAPE  H13R16850   0.780   5.123   7.777 -1.0833  2.6652 -0.2485
  152SAPE  H13S16851   0.827   5.240   7.903 -0.1631 -1.3691  0.9657
  152SAPE  C21416852   0.955   5.064   7.881  0.1894 -0.3919 -1.2442
  152SAPE  H14R16853   1.024   5.025   7.804  0.9612  1.5536 -1.5587
  152SAPE  C21516854   0.952   5.014   8.005 -1.0276  0.0193 -0.3080
  152SAPE  H15R16855   1.025   4.934   8.025 -1.0633 -0.1627 -0.8860
  152SAPE  C21616856   0.871   5.046   8.125 -0.3695 -0.6041  0.8882
  152SAPE  H16R16857   0.788   4.972   8.115  0.0924 -0.9611 -0.2922
  152SAPE  H16S16858   0.830   5.148   8.112 -0.6046 -0.6700  1.0999
  152SAPE  C21716859   0.961   5.035   8.248  0.4663 -0.1342 -0.2523
  152SAPE  H17R16860   1.048   5.101   8.230  1.1428 -0.3884  2.0111
  152SAPE  H17S16861   1.003   4.932   8.256  3.2776  0.9447 -0.5689
  152SAPE  C21816862   0.889   5.075   8.379  0.0603  0.2911  0.3396
  152SAPE  H18R16863   0.810   5.002   8.405  1.9111 -1.2974  1.7313
  152SAPE  H18S16864   0.841   5.172   8.359 -1.6414 -0.3158  1.4003
  152SAPE  C21916865   0.985   5.087   8.496  0.2338 -0.0072 -0.4973
  152SAPE  H19R16866   1.052   5.170   8.466  2.2506 -1.8321 -1.1619
  152SAPE  H19S16867   1.032   4.987   8.511  0.1095 -0.2521 -1.7095
  152SAPE  C22016868   0.928   5.125   8.634  0.1454 -0.2097 -0.2726
  152SAPE  H20R16869   0.900   5.232   8.644 -2.6273 -0.9121 -0.2870
  152SAPE  H20S16870   1.013   5.112   8.705  2.3166  0.2384 -2.6942
  152SAPE  H20T16871   0.843   5.065   8.674 -1.0840  0.1457 -2.3064
  152SAPE   C3316872   0.521   4.321   6.942  0.4315  0.1725  0.1875
  152SAPE   H3X16873   0.628   4.299   6.923  1.2043  1.9288  2.3100
  152SAPE   H3Y16874   0.466   4.227   6.922 -0.8598  0.9266  0.1437
  152SAPE   C3416875   0.512   4.352   7.088  0.3408  0.1758 -0.3089
  152SAPE   H4X16876   0.568   4.276   7.146 -1.1125  0.5190  1.5975
  152SAPE   H4Y16877   0.408   4.347   7.125  0.9068  0.0402  1.3402
  152SAPE   C3516878   0.572   4.493   7.130 -0.7595 -0.6205 -0.5110
  152SAPE   H5X16879   0.504   4.570   7.090 -0.3174  2.4447  4.2786
  152SAPE   H5Y16880   0.675   4.496   7.088 -2.0085  0.6344 -3.6153
  152SAPE   C3616881   0.582   4.517   7.276 -1.0169 -0.2024 -0.1840
  152SAPE   H6X16882   0.675   4.563   7.313 -2.1463  2.0090 -0.0053
  152SAPE   H6Y16883   0.583   4.424   7.336 -0.4181  1.3363  2.2238
  152SAPE   C3716884   0.453   4.592   7.320  0.4212  1.1248 -0.4350
  152SAPE   H7X16885   0.370   4.559   7.254  0.0676  4.1508 -1.5814
  152SAPE   H7Y16886   0.458   4.701   7.299 -0.5529  0.7948 -2.4962
  152SAPE   C3816887   0.414   4.574   7.467  0.2033  0.2088 -0.1698
  152SAPE   H8X16888   0.393   4.468   7.491  0.6192 -0.1621 -1.4256
  152SAPE   H8Y16889   0.319   4.630   7.478  0.7006  1.6911 -2.9791
  152SAPE   C3916890   0.512   4.634   7.572  0.9388  0.5297  0.9611
  152SAPE   H9X16891   0.538   4.739   7.547 -1.2897  1.1881  1.3497
  152SAPE   H9Y16892   0.603   4.572   7.554 -0.1694 -0.8357 -0.0173
  152SAPE  C31016893   0.470   4.625   7.723 -1.2121 -0.2003 -0.5665
  152SAPE  H10X16894   0.382   4.690   7.739 -1.6046 -0.8733  0.0166
  152SAPE  H10Y16895   0.549   4.683   7.776 -1.2395 -1.1786  0.5794
  152SAPE  C31116896   0.464   4.487   7.780 -1.2506 -0.8970  0.1823
  152SAPE  H11X16897   0.560   4.438   7.754 -0.8414  0.2624 -0.5512
  152SAPE  H11Y16898   0.403   4.424   7.712 -0.4545  0.6548 -2.0444
  152SAPE  C31216899   0.427   4.494   7.926 -0.1363 -0.4183  0.0030
  152SAPE  H12X16900   0.317   4.513   7.930 -1.0190 -5.0921  1.7359
  152SAPE  H12Y16901   0.474   4.578   7.981  0.3875 -0.8778  0.2574
  152SAPE  C31316902   0.448   4.359   7.985  0.2047 -1.1044 -0.6752
  152SAPE  H13X16903   0.559   4.349   7.986  0.2430 -0.6799 -0.4062
  152SAPE  H13Y16904   0.400   4.283   7.920 -1.0676 -0.8055 -0.0851
  152SAPE  C31416905   0.403   4.354   8.129 -0.2605  0.2184  0.2180
  152SAPE  H14X16906   0.406   4.247   8.156 -1.7152  0.1578  0.1821
  152SAPE  H14Y16907   0.297   4.382   8.146 -0.4874 -0.4694 -0.0977
  152SAPE  C31516908   0.488   4.449   8.215  0.9583  0.8693 -0.0550
  152SAPE  H15X16909   0.490   4.552   8.172  0.4583 -0.1655 -2.6251
  152SAPE  H15Y16910   0.594   4.418   8.199  0.9474 -0.0454  1.6069
  152SAPE  C31616911   0.448   4.445   8.363 -0.4207  0.2793 -0.3412
  152SAPE  H16X16912   0.543   4.432   8.420 -0.4612  0.2869 -0.2723
  152SAPE  H16Y16913   0.379   4.359   8.377 -1.4818  1.3979  1.4919
  152SAPE  C31716914   0.385   4.577   8.408  0.3248 -0.3799 -0.4593
  152SAPE  H17X16915   0.343   4.561   8.510  0.1047 -2.2722 -0.8419
  152SAPE  H17Y16916   0.308   4.614   8.338  1.1314  1.0993 -0.5889
  152SAPE  C31816917   0.486   4.694   8.409 -0.3406  0.3360 -0.5500
  152SAPE  H18X16918   0.553   4.696   8.320  0.9808  2.5278  0.4211
  152SAPE  H18Y16919   0.547   4.684   8.502 -0.7228  1.4580 -0.1640
  152SAPE  H18Z16920   0.436   4.793   8.417 -0.5963  0.3668 -2.3898
  153SAPE     N16921   3.724   4.564   6.230  0.2682  0.4627 -0.0566
  153SAPE   HN116922   3.820   4.533   6.256 -0.3404 -0.7300  0.8187
  153SAPE   HN216923   3.660   4.508   6.290  1.3905 -0.7888 -0.0061
  153SAPE   HN316924   3.702   4.547   6.130  1.5549  0.8174 -0.4046
  153SAPE   C1216925   3.697   4.710   6.260 -1.0075  0.5834 -1.2222
  153SAPE  H12A16926   3.787   4.765   6.227 -1.0361  1.1983 -0.2953
  153SAPE  H12B16927   3.674   4.712   6.369 -0.4936  0.5281 -1.1132
  153SAPE   C1116928   3.589   4.770   6.166 -0.0196  0.3092 -0.3306
  153SAPE  H11A16929   3.623   4.787   6.061 -0.5029  0.2892 -0.4920
  153SAPE  H11B16930   3.573   4.874   6.201 -1.5792  0.1875 -0.6264
  153SAPE     P16931   3.345   4.693   6.272 -0.0653 -0.9136  0.1897
  153SAPE   O1316932   3.232   4.748   6.198 -0.1447 -0.4627  0.5398
  153SAPE   O1416933   3.340   4.550   6.314  0.2918 -0.2146  0.3055
  153SAPE   O1216934   3.470   4.691   6.171  0.0913  0.3699  0.4556
  153SAPE   O1116935   3.399   4.781   6.389 -0.1794 -0.1896  0.0804
  153SAPE    C116936   3.304   4.862   6.463 -0.3134 -0.4479 -0.2015
  153SAPE    HA16937   3.317   4.970   6.440 -2.7749  0.0849  0.7235
  153SAPE    HB16938   3.195   4.852   6.443 -0.5916  1.2988  0.3083
  153SAPE    C216939   3.334   4.848   6.619  0.5719  0.2357  0.0772
  153SAPE    HS16940   3.282   4.935   6.664 -0.5684 -0.6790  0.5271
  153SAPE   O2116941   3.473   4.858   6.654 -0.4020 -0.3278  0.4550
  153SAPE   C2116942   3.545   4.972   6.625  0.2176  0.2322  0.0026
  153SAPE   O2216943   3.496   5.077   6.595  0.3113  0.5719 -0.6989
  153SAPE   C2216944   3.691   4.939   6.637 -0.0712 -0.1424 -0.1686
  153SAPE   H2R16945   3.705   4.830   6.646 -1.3259 -0.4852 -2.0853
  153SAPE   H2S16946   3.746   4.960   6.542  0.0945 -0.0858 -0.0617
  153SAPE    C316947   3.285   4.708   6.661  1.3654 -0.4485 -0.3733
  153SAPE    HX16948   3.346   4.638   6.599  1.6546  0.8818 -1.6254
  153SAPE    HY16949   3.176   4.693   6.644  1.2684  0.1775 -0.2988
  153SAPE   O3116950   3.293   4.702   6.805 -0.5648  0.2211 -0.1507
  153SAPE   C3116951   3.397   4.628   6.859 -0.3207  0.8533  1.0574
  153SAPE   O3216952   3.489   4.589   6.788 -0.6450  0.1150  0.2934
  153SAPE   C3216953   3.383   4.602   7.004 -0.6541  0.2099 -0.2923
  153SAPE   H2X16954   3.396   4.492   7.017 -2.3907  0.2373  2.0186
  153SAPE   H2Y16955   3.279   4.630   7.029 -0.2436  1.4759  0.0558
  153SAPE   C2316956   3.748   5.012   6.764  0.4322 -0.1465  0.0810
  153SAPE   H3R16957   3.708   5.116   6.766 -1.4801 -0.8739  0.9541
  153SAPE   H3S16958   3.858   5.022   6.752  0.0502  3.0910 -1.2506
  153SAPE   C2416959   3.710   4.939   6.903 -0.5428 -0.4185 -0.6033
  153SAPE   H4R16960   3.599   4.946   6.904 -0.3930  2.4642  0.1014
  153SAPE   H4S16961   3.774   4.988   6.980 -0.0772 -0.5925 -0.8769
  153SAPE   C2516962   3.750   4.794   6.905  0.7258 -0.6571  0.8207
  153SAPE   H5R16963   3.695   4.735   6.832 -0.8645  2.0722 -0.2388
  153SAPE   C2616964   3.838   4.728   6.982  0.2567  0.1830 -0.4882
  153SAPE   H6R16965   3.851   4.620   6.964 -0.4507 -0.1799  1.0663
  153SAPE   C2716966   3.915   4.800   7.094  0.2676 -0.4892  0.2009
  153SAPE   H7R16967   3.843   4.858   7.156  0.1126 -0.3917 -0.0710
  153SAPE   H7S16968   3.983   4.882   7.061  0.7943 -0.7928  0.5219
  153SAPE   C2816969   3.986   4.698   7.178  0.1436  0.0703  0.0894
  153SAPE   H8R16970   3.974   4.593   7.148  0.7993 -0.1184  0.4707
  153SAPE   C2916971   4.070   4.715   7.285 -0.0510 -0.2033 -0.0303
  153SAPE   H9R16972   4.100   4.628   7.345 -0.3655 -1.7138 -2.0166
  153SAPE  C21016973   4.118   4.845   7.341 -0.2935  0.6753  0.2130
  153SAPE  H10R16974   4.154   4.902   7.252 -0.4558 -2.2349 -1.7625
  153SAPE  H10S16975   4.204   4.831   7.409 -0.5002  0.7912  0.4986
  153SAPE  C21116976   4.001   4.912   7.401 -0.3655 -0.9239 -0.7655
  153SAPE  H11R16977   3.915   4.935   7.337 -1.4905  1.2026  1.4601
  153SAPE  C21216978   3.989   4.925   7.533  0.1048 -0.8925  1.0543
  153SAPE  H12R16979   3.896   4.974   7.567 -0.6034 -0.7007 -1.1019
  153SAPE  C21316980   4.082   4.897   7.650  0.3307 -0.1094  0.3593
  153SAPE  H13R16981   4.151   4.816   7.621 -1.7917 -1.6296 -0.6195
  153SAPE  H13S16982   4.027   4.862   7.741 -0.5902  0.5407  0.0581
  153SAPE  C21416983   4.177   5.017   7.671  0.6293 -0.3440 -0.4378
  153SAPE  H14R16984   4.199   5.076   7.581 -0.3161  1.1839  0.2945
  153SAPE  C21516985   4.220   5.060   7.793 -0.1154  0.2082 -0.1179
  153SAPE  H15R16986   4.282   5.151   7.797 -0.4773  0.5577 -2.1164
  153SAPE  C21616987   4.199   4.991   7.926  0.4061  0.4544 -0.8971
  153SAPE  H16R16988   4.290   4.938   7.961 -0.1506  0.3475  0.4097
  153SAPE  H16S16989   4.127   4.907   7.919 -0.0089  0.7108  0.1923
  153SAPE  C21716990   4.160   5.088   8.035  0.0254  0.3647  0.1467
  153SAPE  H17R16991   4.243   5.162   8.042  0.1303  0.1030  1.9214
  153SAPE  H17S16992   4.156   5.031   8.130 -0.6581 -2.4525 -1.5229
  153SAPE  C21816993   4.026   5.156   8.023  0.4416 -0.3246  0.7901
  153SAPE  H18R16994   3.950   5.076   8.005  0.1247  0.0774  0.3397
  153SAPE  H18S16995   4.043   5.210   7.928  1.7556 -0.5833  0.8742
  153SAPE  C21916996   3.994   5.253   8.134 -0.4983  0.1706 -0.2519
  153SAPE  H19R16997   3.910   5.315   8.096  1.3922  2.0704 -1.4355
  153SAPE  H19S16998   4.081   5.317   8.161  0.0744 -0.5783 -0.2822
  153SAPE  C22016999   3.955   5.182   8.272  0.4368  0.6488 -0.8625
  153SAPE  H20R17000   3.892   5.253   8.330  0.6791  0.9048 -0.9125
  153SAPE  H20S17001   4.046   5.155   8.329  0.9653  0.7025 -1.6714
  153SAPE  H20T17002   3.898   5.088   8.257  0.7326  0.4188 -0.5174
  153SAPE   C3317003   3.486   4.673   7.095 -0.1963  1.3624 -0.0031
  153SAPE   H3X17004   3.508   4.777   7.063 -0.5590  1.1954 -0.7975
  153SAPE   H3Y17005   3.580   4.614   7.097 -1.3919 -0.6436 -1.2905
  153SAPE   C3417006   3.423   4.696   7.228  0.3847  0.1069 -0.0286
  153SAPE   H4X17007   3.362   4.614   7.273  1.7451  1.6921  5.1091
  153SAPE   H4Y17008   3.356   4.784   7.218 -0.9467 -0.6895  1.6073
  153SAPE   C3517009   3.528   4.717   7.342 -0.6123 -0.3960  0.0144
  153SAPE   H5X17010   3.593   4.804   7.322 -2.4423  0.9411 -0.2481
  153SAPE   H5Y17011   3.577   4.617   7.343  0.4456  0.1272  0.9252
  153SAPE   C3617012   3.480   4.735   7.485  0.4422  0.3567 -0.3769
  153SAPE   H6X17013   3.405   4.661   7.519 -0.3197  0.6204 -1.4298
  153SAPE   H6Y17014   3.429   4.834   7.496 -0.9072 -0.4681  0.9836
  153SAPE   C3717015   3.599   4.743   7.581  0.2642 -0.4225 -0.3904
  153SAPE   H7X17016   3.646   4.842   7.566 -0.0654 -0.2078 -0.0380
  153SAPE   H7Y17017   3.679   4.669   7.562  0.2343 -0.8470  1.0536
  153SAPE   C3817018   3.557   4.734   7.725  0.0621 -0.5697 -0.3579
  153SAPE   H8X17019   3.504   4.641   7.754  1.2936 -1.4393 -0.8548
  153SAPE   H8Y17020   3.493   4.824   7.739  2.5391  1.5812 -2.3237
  153SAPE   C3917021   3.683   4.764   7.811 -0.4081 -0.5963  0.4422
  153SAPE   H9X17022   3.742   4.845   7.763 -1.2142 -1.1725 -1.5956
  153SAPE   H9Y17023   3.748   4.675   7.797  0.5015 -0.1598  1.7252
  153SAPE  C31017024   3.679   4.780   7.963 -0.2938  0.6355 -0.1576
  153SAPE  H10X17025   3.619   4.701   8.011  0.5658  1.3396  2.1364
  153SAPE  H10Y17026   3.642   4.881   7.990 -2.1195  1.1094 -4.0514
  153SAPE  C31117027   3.823   4.776   8.015 -0.5742  0.4130 -0.1292
  153SAPE  H11X17028   3.878   4.848   7.951  0.0043 -0.7139 -0.9031
  153SAPE  H11Y17029   3.864   4.675   7.996  2.3253  1.6544 -0.7375
  153SAPE  C31217030   3.837   4.819   8.159  0.4109  0.3246  0.2740
  153SAPE  H12X17031   3.808   4.927   8.162  0.5456  0.3850 -0.5316
  153SAPE  H12Y17032   3.946   4.824   8.180  0.4087 -0.7141  0.5241
  153SAPE  C31317033   3.771   4.738   8.273 -0.5052  0.8852  0.5906
  153SAPE  H13X17034   3.750   4.635   8.235 -1.3969  1.0446  0.6361
  153SAPE  H13Y17035   3.671   4.781   8.294 -0.9513  0.1274  0.0719
  153SAPE  C31417036   3.859   4.724   8.395  0.5976 -0.5236  0.0685
  153SAPE  H14X17037   3.951   4.667   8.369 -0.3046 -1.6349 -0.7471
  153SAPE  H14Y17038   3.807   4.644   8.453  0.7495  0.0262  0.9718
  153SAPE  C31517039   3.894   4.844   8.477 -0.1830  0.2031  0.3097
  153SAPE  H15X17040   3.806   4.908   8.500 -0.7535  0.1187 -1.5659
  153SAPE  H15Y17041   3.962   4.896   8.406  0.5010 -0.8909  0.1469
  153SAPE  C31617042   3.967   4.810   8.604  0.4898  0.0856 -0.3021
  153SAPE  H16X17043   4.064   4.760   8.583  1.3045  0.2784  2.8509
  153SAPE  H16Y17044   3.901   4.736   8.653 -0.4542  0.0219 -1.6269
  153SAPE  C31717045   3.993   4.932   8.698  0.9944 -0.8029 -0.2565
  153SAPE  H17X17046   3.901   4.993   8.698  0.8067 -1.0791  0.0511
  153SAPE  H17Y17047   4.077   4.994   8.660 -1.1006  2.3287  0.0997
  153SAPE  C31817048   4.029   4.888   8.841  0.1919 -0.1343  0.1590
  153SAPE  H18X17049   3.939   4.837   8.882  0.4457  0.0227  0.9370
  153SAPE  H18Y17050   4.052   4.976   8.905 -0.0344 -0.4072  0.6235
  153SAPE  H18Z17051   4.114   4.817   8.842 -0.0463 -0.4230  0.1263
  154SAPE     N17052   1.486   4.182   6.271  0.3081  0.1163 -1.0523
  154SAPE   HN117053   1.590   4.173   6.268  0.5146  1.9550  0.0424
  154SAPE   HN217054   1.453   4.277   6.297 -0.3024  0.3774 -2.6813
  154SAPE   HN317055   1.449   4.115   6.341 -2.7071  0.4286 -2.2690
  154SAPE   C1217056   1.429   4.150   6.136 -0.2057  0.3101 -0.5182
  154SAPE  H12A17057   1.473   4.059   6.090 -0.0397  1.8993 -3.6596
  154SAPE  H12B17058   1.460   4.239   6.077  1.8916 -0.0915 -0.0671
  154SAPE   C1117059   1.277   4.145   6.146  0.2252  0.6384 -0.2717
  154SAPE  H11A17060   1.234   4.158   6.044 -1.2012 -3.6270 -0.2934
  154SAPE  H11B17061   1.247   4.227   6.215 -0.4794 -1.4029  1.8802
  154SAPE     P17062   1.175   3.903   6.113 -0.2010  0.3457  0.0621
  154SAPE   O1317063   1.040   3.938   6.072  0.1157 -0.1730 -0.6119
  154SAPE   O1417064   1.279   3.880   6.011 -0.9155 -0.6869  0.0263
  154SAPE   O1217065   1.235   4.020   6.202  0.2686 -0.0748  0.0198
  154SAPE   O1117066   1.158   3.779   6.214 -0.5337 -0.3454 -0.1710
  154SAPE    C117067   1.259   3.765   6.315 -0.8249 -0.1602 -0.4650
  154SAPE    HA17068   1.271   3.656   6.331  0.7196  0.2928  1.6031
  154SAPE    HB17069   1.362   3.795   6.289 -1.5738  2.7572 -0.2030
  154SAPE    C217070   1.212   3.821   6.458 -0.1377  0.0982  0.2242
  154SAPE    HS17071   1.176   3.925   6.444 -3.2465 -0.6267  2.5365
  154SAPE   O2117072   1.321   3.803   6.548 -0.4326 -0.1631  0.1166
  154SAPE   C2117073   1.420   3.896   6.544  1.1429 -0.9609  0.1271
  154SAPE   O2217074   1.430   3.988   6.470 -0.3119  0.3345  0.0885
  154SAPE   C2217075   1.527   3.856   6.638  0.0182  0.4230 -0.2671
  154SAPE   H2R17076   1.477   3.833   6.735 -0.0624 -1.2645 -0.7088
  154SAPE   H2S17077   1.572   3.766   6.593  1.1934  0.4599  0.7935
  154SAPE    C317078   1.090   3.747   6.509 -0.1612 -0.4504 -0.6811
  154SAPE    HX17079   1.128   3.651   6.552 -1.8326 -0.0298  1.8377
  154SAPE    HY17080   1.021   3.725   6.425 -2.0594 -2.4333  1.3404
  154SAPE   O3117081   1.037   3.833   6.614  0.5399  0.1242 -0.6799
  154SAPE   C3117082   1.046   3.783   6.744  0.2943 -0.0792  0.5010
  154SAPE   O3217083   1.110   3.682   6.773  0.2610 -0.7308 -0.5056
  154SAPE   C3217084   0.956   3.859   6.837 -0.5003 -0.3858  0.7107
  154SAPE   H2X17085   0.858   3.862   6.785  0.5467 -1.9854 -1.4164
  154SAPE   H2Y17086   0.993   3.964   6.844 -1.6699  0.1792 -1.1688
  154SAPE   C2317087   1.633   3.969   6.644  0.2643  0.4538 -0.3716
  154SAPE   H3R17088   1.582   4.059   6.684 -1.2106 -0.2489 -0.5934
  154SAPE   H3S17089   1.673   3.990   6.543  2.1199  2.1444  0.6892
  154SAPE   C2417090   1.754   3.932   6.742  0.0501  0.2507  0.4066
  154SAPE   H4R17091   1.810   3.846   6.698  2.5391  1.5333  0.9389
  154SAPE   H4S17092   1.709   3.882   6.830 -0.0662 -0.1589  0.1164
  154SAPE   C2517093   1.849   4.043   6.775 -0.0777  0.4814 -0.6241
  154SAPE   H5R17094   1.894   4.085   6.684  0.6438 -0.7539 -0.8436
  154SAPE   C2617095   1.896   4.097   6.895  0.1527 -0.2534 -0.5008
  154SAPE   H6R17096   1.965   4.181   6.880 -1.5227  1.1375 -0.5743
  154SAPE   C2717097   1.852   4.051   7.035  0.2012 -0.3545 -0.0551
  154SAPE   H7R17098   1.938   4.057   7.104 -0.0205  2.1847  0.0441
  154SAPE   H7S17099   1.824   3.943   7.033  0.1343 -0.3682  1.3134
  154SAPE   C2817100   1.736   4.125   7.092  0.6090 -0.1227  0.3306
  154SAPE   H8R17101   1.664   4.158   7.017 -0.6365 -1.5765  0.8707
  154SAPE   C2917102   1.712   4.164   7.224 -0.6319  0.6283 -0.6450
  154SAPE   H9R17103   1.612   4.206   7.241 -3.1535 -5.5173  0.7734
  154SAPE  C21017104   1.792   4.125   7.344 -0.2109 -0.0486 -0.4468
  154SAPE  H10R17105   1.838   4.223   7.370 -0.8963  0.0185  0.5521
  154SAPE  H10S17106   1.876   4.054   7.328 -0.7514 -0.5421 -1.0997
  154SAPE  C21117107   1.717   4.071   7.460 -0.6637  0.4041  0.0492
  154SAPE  H11R17108   1.638   3.998   7.434 -1.0643  0.8284  0.0644
  154SAPE  C21217109   1.741   4.099   7.595  0.1569 -0.2643 -0.5639
  154SAPE  H12R17110   1.662   4.066   7.663 -0.2746  0.1059 -0.8797
  154SAPE  C21317111   1.850   4.189   7.643  0.7226 -0.0711  0.9858
  154SAPE  H13R17112   1.823   4.282   7.699  0.0112  1.2465 -1.4744
  154SAPE  H13S17113   1.914   4.230   7.562 -0.9603  3.7095  1.4765
  154SAPE  C21417114   1.951   4.107   7.728 -0.4081  0.8005  0.3917
  154SAPE  H14R17115   2.028   4.064   7.662 -0.7725 -0.0226  0.4923
  154SAPE  C21517116   1.942   4.086   7.860 -0.5651  0.0947  0.2293
  154SAPE  H15R17117   2.005   4.009   7.906 -0.7322 -0.6519 -0.7851
  154SAPE  C21617118   1.823   4.128   7.954 -0.0888 -0.6853 -0.7991
  154SAPE  H16R17119   1.758   4.041   7.977  0.0434 -0.4445  0.5470
  154SAPE  H16S17120   1.755   4.205   7.913  0.0988 -0.5459 -0.8457
  154SAPE  C21717121   1.878   4.191   8.087  0.1466  0.1493  0.8199
  154SAPE  H17R17122   1.804   4.258   8.135 -0.7311 -0.6762  0.6186
  154SAPE  H17S17123   1.958   4.257   8.047  0.6695  0.8270  2.9139
  154SAPE  C21817124   1.943   4.095   8.185  0.3665 -0.2303 -0.4342
  154SAPE  H18R17125   2.016   4.036   8.125  0.5443  1.4212 -1.9136
  154SAPE  H18S17126   1.866   4.023   8.217 -0.2206  2.2964  4.2749
  154SAPE  C21917127   2.010   4.168   8.301  0.1356  0.2292 -0.2241
  154SAPE  H19R17128   1.934   4.234   8.350 -2.2170 -0.6826 -2.5193
  154SAPE  H19S17129   2.092   4.229   8.257 -0.1651 -0.1256 -1.2904
  154SAPE  C22017130   2.063   4.064   8.404 -0.2010 -0.4547 -0.5963
  154SAPE  H20R17131   1.980   4.030   8.469  0.2722  1.1441  0.8894
  154SAPE  H20S17132   2.151   4.090   8.467  1.3713  1.3789 -3.4340
  154SAPE  H20T17133   2.107   3.978   8.349 -0.4301 -0.7307 -0.3453
  154SAPE   C3317134   0.952   3.803   6.977  0.0201 -0.4430  0.4618
  154SAPE   H3X17135   1.054   3.806   7.021  0.4968  1.8707 -0.7481
  154SAPE   H3Y17136   0.918   3.697   6.973 -0.0864 -0.4480  1.2936
  154SAPE   C3417137   0.861   3.861   7.088  0.0958  0.2722 -0.2473
  154SAPE   H4X17138   0.849   3.777   7.159 -0.0753 -0.1617 -0.7822
  154SAPE   H4Y17139   0.767   3.891   7.035 -0.7547  0.5133  1.3764
  154SAPE   C3517140   0.911   3.993   7.155 -0.0485  0.1107  0.1348
  154SAPE   H5X17141   0.939   4.067   7.077  1.9080  0.4890  1.1617
  154SAPE   H5Y17142   1.003   3.962   7.209 -0.6240 -0.4743  0.7856
  154SAPE   C3617143   0.806   4.057   7.254  0.0806 -0.5560 -0.5208
  154SAPE   H6X17144   0.706   4.058   7.205 -0.1201 -0.2136 -0.0988
  154SAPE   H6Y17145   0.837   4.160   7.282  0.1945 -0.7613  0.1108
  154SAPE   C3717146   0.802   3.977   7.395 -0.0870  0.4736 -1.1356
  154SAPE   H7X17147   0.912   3.960   7.400 -0.4934 -1.5288  1.6554
  154SAPE   H7Y17148   0.751   3.883   7.368  1.5797 -0.3631 -1.4794
  154SAPE   C3817149   0.751   4.048   7.513 -0.2423 -0.5453  0.7892
  154SAPE   H8X17150   0.701   3.976   7.582 -0.6416 -1.4229 -0.3956
  154SAPE   H8Y17151   0.668   4.118   7.494  0.1917 -0.4349 -0.7452
  154SAPE   C3917152   0.862   4.105   7.607 -0.4133 -0.4384  0.1060
  154SAPE   H9X17153   0.896   4.185   7.539  1.7909 -1.5102 -0.0810
  154SAPE   H9Y17154   0.942   4.032   7.629  1.5763  1.1049 -1.8667
  154SAPE  C31017155   0.819   4.175   7.739 -0.6186 -0.2204  0.5545
  154SAPE  H10X17156   0.727   4.236   7.722 -0.8451 -0.7314 -0.0608
  154SAPE  H10Y17157   0.898   4.245   7.773 -0.8417 -0.0692  0.7662
  154SAPE  C31117158   0.796   4.081   7.863 -0.0984 -0.4786  0.3269
  154SAPE  H11X17159   0.879   4.008   7.878  0.9034  0.6182  0.1870
  154SAPE  H11Y17160   0.702   4.022   7.856 -0.0862 -0.5031  0.3729
  154SAPE  C31217161   0.789   4.148   8.000 -0.0819  0.4529 -0.0277
  154SAPE  H12X17162   0.685   4.180   8.022 -0.5508 -0.1745 -1.2599
  154SAPE  H12Y17163   0.865   4.227   8.018  1.3685 -0.8500 -0.3793
  154SAPE  C31317164   0.817   4.048   8.112  0.2436  0.7912 -0.0154
  154SAPE  H13X17165   0.916   4.001   8.094 -1.1640 -1.5218 -2.1486
  154SAPE  H13Y17166   0.741   3.967   8.106  1.1351  0.0091 -0.7940
  154SAPE  C31417167   0.795   4.108   8.252 -0.0143  0.4663 -0.4710
  154SAPE  H14X17168   0.698   4.160   8.259 -1.6073 -2.5326  0.4479
  154SAPE  H14Y17169   0.873   4.178   8.289 -0.6541  0.4251  0.9833
  154SAPE  C31517170   0.792   3.993   8.358  0.5635  0.1687  0.9100
  154SAPE  H15X17171   0.835   3.906   8.304  3.3474  2.0004  0.0728
  154SAPE  H15Y17172   0.688   3.954   8.367  0.4724  0.3208  0.5399
  154SAPE  C31617173   0.838   4.025   8.497 -0.5358  1.1734 -0.2354
  154SAPE  H16X17174   0.925   4.093   8.491  0.6998  0.1359  4.2418
  154SAPE  H16Y17175   0.872   3.928   8.538  1.4474  1.9979  0.1226
  154SAPE  C31717176   0.736   4.088   8.589 -0.1220 -0.3229  0.0172
  154SAPE  H17X17177   0.650   4.017   8.593 -1.8674  1.7937  1.1538
  154SAPE  H17Y17178   0.697   4.176   8.535 -0.2739 -0.2731  0.2062
  154SAPE  C31817179   0.796   4.123   8.727  0.2774 -0.1155  0.2258
  154SAPE  H18X17180   0.833   4.029   8.774  0.0378 -0.3974 -0.1502
  154SAPE  H18Y17181   0.715   4.144   8.799 -2.0223 -1.2473 -1.9736
  154SAPE  H18Z17182   0.866   4.209   8.732 -1.3309  1.2973 -1.0200
  155SAPE     N17183   1.355   5.688   6.664 -0.4670 -0.7159 -0.7504
  155SAPE   HN117184   1.360   5.788   6.636  1.4516 -1.2435 -2.3350
  155SAPE   HN217185   1.284   5.676   6.740 -0.0722 -0.0117 -0.2668
  155SAPE   HN317186   1.454   5.665   6.685  0.6563  2.6964 -2.0065
  155SAPE   C1217187   1.302   5.617   6.550 -0.3393  0.7347  0.3824
  155SAPE  H12A17188   1.366   5.637   6.462 -0.1414  1.4511  0.6847
  155SAPE  H12B17189   1.204   5.659   6.519 -0.3894 -0.4923 -1.1582
  155SAPE   C1117190   1.276   5.465   6.569 -0.4245 -0.8372 -0.1529
  155SAPE  H11A17191   1.200   5.470   6.650 -0.3246 -0.1435 -0.0982
  155SAPE  H11B17192   1.367   5.414   6.605  0.6385 -0.0579 -1.6611
  155SAPE     P17193   1.300   5.308   6.362 -0.1179 -0.2477  0.4226
  155SAPE   O1317194   1.206   5.259   6.255 -0.3235  0.0014 -0.3960
  155SAPE   O1417195   1.426   5.367   6.311  0.4079 -0.5063  0.1749
  155SAPE   O1217196   1.220   5.410   6.452 -0.3600  0.3987 -0.0123
  155SAPE   O1117197   1.335   5.181   6.454  0.1048  0.1098  0.0506
  155SAPE    C117198   1.243   5.109   6.527 -0.0295 -0.1225  0.2067
  155SAPE    HA17199   1.139   5.121   6.491 -0.0850 -1.1241  0.0170
  155SAPE    HB17200   1.266   5.000   6.520  0.3243 -0.0527  0.2533
  155SAPE    C217201   1.259   5.141   6.681 -0.2219 -0.4969 -0.1869
  155SAPE    HS17202   1.184   5.221   6.704  2.0412  1.3985  0.8344
  155SAPE   O2117203   1.391   5.178   6.717 -0.0056  0.2099  0.6618
  155SAPE   C2117204   1.411   5.252   6.833  0.3296  0.0599  0.1885
  155SAPE   O2217205   1.321   5.307   6.893 -0.3026 -0.3731  0.0975
  155SAPE   C2217206   1.561   5.248   6.860 -0.1304  0.2588 -0.7779
  155SAPE   H2R17207   1.610   5.248   6.760 -0.9778 -2.3979 -1.2370
  155SAPE   H2S17208   1.588   5.339   6.917  1.6188  0.5201 -1.9908
  155SAPE    C317209   1.217   5.015   6.763 -0.1688 -0.4788 -0.1766
  155SAPE    HX17210   1.291   4.939   6.728  0.1558 -1.0717  1.7154
  155SAPE    HY17211   1.118   4.969   6.739 -1.6821  0.9076  3.2079
  155SAPE   O3117212   1.233   5.025   6.906 -0.6750 -0.1101  0.4515
  155SAPE   C3117213   1.122   5.091   6.951 -0.5967  1.2204 -0.3954
  155SAPE   O3217214   1.025   5.114   6.887 -0.2530 -0.2418  0.3164
  155SAPE   C3217215   1.134   5.126   7.107  0.3010  0.4916 -0.7319
  155SAPE   H2X17216   1.045   5.180   7.146 -1.4567 -2.4928 -0.4944
  155SAPE   H2Y17217   1.221   5.195   7.117  0.2120  0.5618 -0.4432
  155SAPE   C2317218   1.600   5.123   6.941 -0.9183  0.1761 -0.2759
  155SAPE   H3R17219   1.561   5.029   6.895 -0.1758 -0.0869 -0.3792
  155SAPE   H3S17220   1.546   5.127   7.038 -0.5757  0.2369 -0.0866
  155SAPE   C2417221   1.751   5.099   6.949 -0.3128 -0.2179 -0.3362
  155SAPE   H4R17222   1.805   5.071   6.855  2.1215 -0.4935  1.0943
  155SAPE   H4S17223   1.754   5.015   7.021  1.1475 -1.7676 -2.1045
  155SAPE   C2517224   1.818   5.219   7.005  0.1569  0.2624  0.6751
  155SAPE   H5R17225   1.878   5.285   6.941  0.2490 -2.0602 -1.7776
  155SAPE   C2617226   1.825   5.258   7.137  0.1386 -0.5156  0.5468
  155SAPE   H6R17227   1.881   5.350   7.157  0.1992 -0.4626  0.1518
  155SAPE   C2717228   1.770   5.190   7.261  0.3489 -0.7743 -0.4809
  155SAPE   H7R17229   1.844   5.110   7.286  2.8665  1.0567 -1.7747
  155SAPE   H7S17230   1.675   5.141   7.232  0.0099 -1.1440  1.1847
  155SAPE   C2817231   1.735   5.288   7.372  0.0124  0.9199 -0.5296
  155SAPE   H8R17232   1.720   5.391   7.335 -2.2785  0.4548 -0.9754
  155SAPE   C2917233   1.737   5.268   7.508  0.2274  0.5304 -0.2098
  155SAPE   H9R17234   1.736   5.350   7.581  0.2278 -0.0939  0.4973
  155SAPE  C21017235   1.780   5.136   7.574 -0.0140 -0.1209 -0.0640
  155SAPE  H10R17236   1.891   5.143   7.586 -0.0612 -0.7507  0.8165
  155SAPE  H10S17237   1.761   5.055   7.501 -2.0913  1.4813 -1.3432
  155SAPE  C21117238   1.717   5.103   7.705  0.2221  0.3872 -0.3887
  155SAPE  H11R17239   1.616   5.059   7.705 -0.5604  2.1460 -1.3721
  155SAPE  C21217240   1.773   5.110   7.830 -0.3845  0.7715  0.7167
  155SAPE  H12R17241   1.704   5.083   7.911 -2.3125  5.9779  1.0242
  155SAPE  C21317242   1.912   5.157   7.871 -0.0173 -0.3025 -0.1115
  155SAPE  H13R17243   1.911   5.264   7.902  0.1048 -0.6487  1.1316
  155SAPE  H13S17244   1.980   5.144   7.785 -0.0388 -0.7394 -0.0630
  155SAPE  C21417245   1.970   5.081   7.997 -0.4564 -0.2164 -0.1840
  155SAPE  H14R17246   2.034   4.999   7.961  0.2398  0.7185 -1.1439
  155SAPE  C21517247   1.943   5.094   8.130 -1.2159  0.7180 -0.4307
  155SAPE  H15R17248   1.993   5.026   8.202  2.3340 -0.2071 -3.6264
  155SAPE  C21617249   1.838   5.193   8.179  0.4787  0.1437  0.5505
  155SAPE  H16R17250   1.760   5.207   8.101  1.9661 -1.8414 -1.3364
  155SAPE  H16S17251   1.881   5.291   8.205 -0.7250  0.6820  0.5335
  155SAPE  C21717252   1.769   5.140   8.299 -0.4096 -0.5216  0.7840
  155SAPE  H17R17253   1.717   5.043   8.283 -1.1897 -0.2356  1.5280
  155SAPE  H17S17254   1.684   5.205   8.331  0.3685 -0.3761  2.6130
  155SAPE  C21817255   1.856   5.110   8.422 -0.0675 -0.7549  0.2825
  155SAPE  H18R17256   1.922   5.199   8.437  1.2412 -1.4834 -0.9574
  155SAPE  H18S17257   1.928   5.027   8.406 -0.8356 -1.2083 -0.8394
  155SAPE  C21917258   1.764   5.085   8.543 -0.1748 -0.3685 -0.1325
  155SAPE  H19R17259   1.697   4.999   8.525 -0.0528 -1.2222  3.0685
  155SAPE  H19S17260   1.711   5.181   8.566  1.4397  0.4574  0.2497
  155SAPE  C22017261   1.850   5.047   8.660  0.3289 -0.6735  0.0989
  155SAPE  H20R17262   1.918   5.126   8.700 -0.5271  0.0742  0.1111
  155SAPE  H20S17263   1.911   4.957   8.637 -0.6386 -1.3860  0.3093
  155SAPE  H20T17264   1.789   5.001   8.740  0.2849 -3.1191 -1.2904
  155SAPE   C3317265   1.167   4.997   7.184 -0.0638  0.0013 -0.3747
  155SAPE   H3X17266   1.232   4.930   7.124  1.6844  1.9792 -0.7817
  155SAPE   H3Y17267   1.076   4.942   7.214  0.4868 -0.4607  0.4852
  155SAPE   C3417268   1.231   5.030   7.322 -0.4396  0.4142 -0.2600
  155SAPE   H4X17269   1.204   5.125   7.373  1.4974  0.5197  0.5888
  155SAPE   H4Y17270   1.339   5.050   7.310  0.9239 -4.0195  3.4298
  155SAPE   C3517271   1.211   4.920   7.427  0.3349 -0.4056  0.1812
  155SAPE   H5X17272   1.264   4.825   7.403 -0.5735 -1.0679  0.7853
  155SAPE   H5Y17273   1.106   4.885   7.440  0.2010 -0.7153 -1.5432
  155SAPE   C3617274   1.272   4.963   7.559 -0.0325  0.0840  0.0818
  155SAPE   H6X17275   1.225   5.063   7.573 -0.5836  0.0186 -1.2234
  155SAPE   H6Y17276   1.383   4.975   7.554 -0.1847  1.3223 -0.4192
  155SAPE   C3717277   1.238   4.865   7.669 -0.8596 -0.5703  0.0980
  155SAPE   H7X17278   1.266   4.765   7.629  2.7856  1.1131 -1.7438
  155SAPE   H7Y17279   1.128   4.870   7.683 -0.8776  0.3228 -0.3714
  155SAPE   C3817280   1.317   4.898   7.798  0.4937  0.6948 -0.1172
  155SAPE   H8X17281   1.282   4.999   7.829 -0.8718  0.9259 -2.2914
  155SAPE   H8Y17282   1.425   4.898   7.774  0.6429 -1.2260  0.4798
  155SAPE   C3917283   1.310   4.797   7.908  0.4393  0.5390 -0.0501
  155SAPE   H9X17284   1.313   4.693   7.867 -0.9562  0.6638 -0.5160
  155SAPE   H9Y17285   1.214   4.821   7.958  1.1528  0.8149  1.2072
  155SAPE  C31017286   1.430   4.804   8.008  0.4592 -0.0943  0.1192
  155SAPE  H10X17287   1.525   4.790   7.952 -0.2163  0.6301 -1.2434
  155SAPE  H10Y17288   1.429   4.718   8.079 -1.3371 -0.4333 -0.2778
  155SAPE  C31117289   1.445   4.938   8.090 -0.5519  1.1272  0.6495
  155SAPE  H11X17290   1.464   5.018   8.015 -1.3026 -1.1629 -2.0461
  155SAPE  H11Y17291   1.531   4.918   8.158 -0.3504  1.6392  0.5478
  155SAPE  C31217292   1.325   4.976   8.182  0.3483  0.4702 -0.3595
  155SAPE  H12X17293   1.229   4.968   8.126  1.5085  0.3072 -2.3887
  155SAPE  H12Y17294   1.349   5.082   8.206 -0.3443  0.3803  0.7378
  155SAPE  C31317295   1.312   4.879   8.301  0.0887 -0.4917 -0.2103
  155SAPE  H13X17296   1.308   4.773   8.265 -3.6840  0.1463 -1.9455
  155SAPE  H13Y17297   1.205   4.880   8.330 -0.0061  2.1172 -0.5784
  155SAPE  C31417298   1.396   4.917   8.425 -0.0377 -0.4556  0.6365
  155SAPE  H14X17299   1.359   5.019   8.451 -0.7114 -0.1024 -1.5358
  155SAPE  H14Y17300   1.503   4.929   8.400 -0.1318 -0.7491  0.0744
  155SAPE  C31517301   1.382   4.819   8.528 -0.2579 -0.7675 -0.0117
  155SAPE  H15X17302   1.359   4.721   8.481  0.1804  0.2622 -2.4237
  155SAPE  H15Y17303   1.292   4.841   8.590  0.1339 -0.3619  0.4126
  155SAPE  C31617304   1.507   4.803   8.603  0.0657  0.2113 -0.0067
  155SAPE  H16X17305   1.519   4.893   8.666 -1.9593  1.3045 -1.1134
  155SAPE  H16Y17306   1.595   4.798   8.536  0.1329 -0.0736  0.0996
  155SAPE  C31717307   1.516   4.676   8.689  0.7432 -0.1137 -0.0192
  155SAPE  H17X17308   1.466   4.593   8.636  0.7841  0.9461 -1.7427
  155SAPE  H17Y17309   1.450   4.679   8.779 -1.6600 -2.4117 -1.6386
  155SAPE  C31817310   1.653   4.643   8.736 -0.1408 -0.7890 -0.6239
  155SAPE  H18X17311   1.649   4.569   8.819  1.9449 -0.2091  0.0256
  155SAPE  H18Y17312   1.706   4.737   8.763 -0.1863 -1.4518  1.8908
  155SAPE  H18Z17313   1.711   4.591   8.657 -0.6920  0.0497 -1.5936
  156SAPE     N17314   0.107   5.088   6.351  0.2938  0.3273 -0.3479
  156SAPE   HN117315   0.140   5.185   6.370  0.6871  0.2669 -0.7198
  156SAPE   HN217316   0.032   5.060   6.418  2.9656 -0.9492  2.2467
  156SAPE   HN317317   0.191   5.027   6.366  0.9412  1.6095  1.4342
  156SAPE   C1217318   0.051   5.079   6.213 -1.1108 -0.1810  0.1432
  156SAPE  H12A17319   0.091   4.985   6.170  2.2069 -0.0043  2.6488
  156SAPE  H12B17320   0.091   5.164   6.155 -0.1219 -1.4870 -1.1476
  156SAPE   C1117321  -0.102   5.078   6.220  0.3311  0.3115  0.0524
  156SAPE  H11A17322  -0.139   4.990   6.278  0.7991  0.1260  0.0761
  156SAPE  H11B17323  -0.138   5.062   6.117  2.8604 -2.2438 -0.4957
  156SAPE     P17324  -0.292   5.272   6.253 -0.3515  0.0746  0.1086
  156SAPE   O1317325  -0.264   5.361   6.139  0.0302 -0.1148 -0.5225
  156SAPE   O1417326  -0.402   5.176   6.230 -0.0839  0.1183  0.2930
  156SAPE   O1217327  -0.154   5.204   6.277 -0.0106  0.8029 -1.1334
  156SAPE   O1117328  -0.300   5.368   6.379 -0.2703 -0.0442 -0.2553
  156SAPE    C117329  -0.263   5.314   6.515 -0.0628 -0.1116  0.3319
  156SAPE    HA17330  -0.343   5.247   6.555  0.0903  0.1517  1.0826
  156SAPE    HB17331  -0.168   5.257   6.512  0.0225  0.0555 -0.2830
  156SAPE    C217332  -0.219   5.439   6.604  0.1628 -0.2303  0.6664
  156SAPE    HS17333  -0.198   5.395   6.703  0.4352 -1.0212  0.2665
  156SAPE   O2117334  -0.321   5.545   6.612  0.0817 -0.1683  0.2795
  156SAPE   C2117335  -0.417   5.514   6.694 -0.2537 -0.3528 -0.4271
  156SAPE   O2217336  -0.433   5.408   6.748 -0.5229  0.6029  0.0454
  156SAPE   C2217337  -0.512   5.636   6.714 -0.4395 -0.2898  0.2316
  156SAPE   H2R17338  -0.541   5.687   6.619  0.7831  1.8524  0.9667
  156SAPE   H2S17339  -0.611   5.593   6.740 -0.5233  1.1678  2.4259
  156SAPE    C317340  -0.093   5.501   6.544 -0.0072 -0.0463  0.4886
  156SAPE    HX17341  -0.103   5.548   6.444  1.2243  1.3374  0.9932
  156SAPE    HY17342  -0.018   5.421   6.524  0.4054  0.9255 -1.9144
  156SAPE   O3117343  -0.051   5.603   6.633 -0.4218 -0.1980 -0.2324
  156SAPE   C3117344   0.014   5.558   6.737  0.0157  0.3387  0.7719
  156SAPE   O3217345   0.034   5.441   6.767  0.6320 -0.1590  0.1440
  156SAPE   C3217346   0.080   5.672   6.807 -0.5458 -0.6150  0.3176
  156SAPE   H2X17347   0.005   5.752   6.827  0.0484 -0.1497  0.6654
  156SAPE   H2Y17348   0.144   5.710   6.724 -1.1881  2.8326  1.3298
  156SAPE   C2317349  -0.464   5.738   6.825 -0.2432 -0.3269  0.1568
  156SAPE   H3R17350  -0.539   5.819   6.830  1.2426  1.1007 -0.4730
  156SAPE   H3S17351  -0.363   5.767   6.788 -0.9683 -0.5550 -2.0398
  156SAPE   C2417352  -0.433   5.677   6.968  0.4382  0.3528 -0.3402
  156SAPE   H4R17353  -0.413   5.761   7.038 -2.4054 -0.5519  1.6287
  156SAPE   H4S17354  -0.338   5.623   6.946  0.7758  0.9601 -0.3918
  156SAPE   C2517355  -0.540   5.597   7.028  0.0499 -0.3691 -0.6546
  156SAPE   H5R17356  -0.588   5.523   6.961 -0.6208 -1.4064  0.9503
  156SAPE   C2617357  -0.588   5.599   7.154 -0.1269 -0.4222  0.3935
  156SAPE   H6R17358  -0.671   5.533   7.184 -0.1204 -0.5921  0.0433
  156SAPE   C2717359  -0.548   5.700   7.259  0.5421  0.0834 -0.4962
  156SAPE   H7R17360  -0.607   5.694   7.352  0.2049  1.0523 -0.6408
  156SAPE   H7S17361  -0.589   5.798   7.226 -1.1234 -0.5648 -0.3801
  156SAPE   C2817362  -0.407   5.709   7.308  0.0445 -0.2505  0.2498
  156SAPE   H8R17363  -0.333   5.722   7.227  0.1955  1.0352  0.5811
  156SAPE   C2917364  -0.357   5.696   7.433 -0.0798  0.1277  0.2652
  156SAPE   H9R17365  -0.249   5.681   7.443  0.2231  1.5520 -0.6993
  156SAPE  C21017366  -0.435   5.668   7.561  0.0993  0.4299  0.8091
  156SAPE  H10R17367  -0.417   5.574   7.619  2.7554 -0.0856 -0.7577
  156SAPE  H10S17368  -0.545   5.667   7.541  0.3436 -0.7849 -0.5850
  156SAPE  C21117369  -0.419   5.782   7.663  0.4615  0.2107 -0.5127
  156SAPE  H11R17370  -0.356   5.867   7.633 -1.0648  1.5419 -0.0237
  156SAPE  C21217371  -0.467   5.774   7.790  0.4389  0.0205 -0.1239
  156SAPE  H12R17372  -0.454   5.868   7.846  0.3322  0.4769 -0.8451
  156SAPE  C21317373  -0.567   5.672   7.848 -0.3251  0.6986  0.2300
  156SAPE  H13R17374  -0.601   5.592   7.778  0.5926 -0.2589  0.8554
  156SAPE  H13S17375  -0.659   5.721   7.887  1.2043  3.7505  0.1634
  156SAPE  C21417376  -0.490   5.604   7.963 -0.1435 -0.0917 -0.2870
  156SAPE  H14R17377  -0.430   5.515   7.939 -2.2086 -1.5172 -0.3369
  156SAPE  C21517378  -0.494   5.644   8.092  0.1376  0.3795  0.2763
  156SAPE  H15R17379  -0.443   5.586   8.170 -0.7061 -0.6925  0.0404
  156SAPE  C21617380  -0.577   5.762   8.150 -0.7224 -0.3471  0.4829
  156SAPE  H16R17381  -0.563   5.847   8.080  1.4751 -0.9529  0.1554
  156SAPE  H16S17382  -0.517   5.803   8.235  1.3472  2.9820 -2.4214
  156SAPE  C21717383  -0.716   5.724   8.196  0.3627 -0.8904  0.3029
  156SAPE  H17R17384  -0.773   5.665   8.120 -1.3461  0.1005  0.7985
  156SAPE  H17S17385  -0.773   5.818   8.214 -0.3245 -0.8679 -1.8101
  156SAPE  C21817386  -0.721   5.646   8.331 -0.2890  0.2740  0.3344
  156SAPE  H18R17387  -0.783   5.711   8.397 -0.9620 -1.2488  1.2246
  156SAPE  H18S17388  -0.620   5.645   8.378 -0.7270 -0.3616  1.2940
  156SAPE  C21917389  -0.786   5.514   8.324  0.2136 -0.3683 -0.1645
  156SAPE  H19R17390  -0.712   5.448   8.274  2.3304  1.8507 -0.0437
  156SAPE  H19S17391  -0.885   5.512   8.274 -1.1259 -0.5587  2.4243
  156SAPE  C22017392  -0.809   5.464   8.464  0.9399 -0.0479 -0.1824
  156SAPE  H20R17393  -0.874   5.527   8.528 -1.4194  0.0877 -2.6289
  156SAPE  H20S17394  -0.717   5.471   8.526 -0.8219  1.8711  2.2946
  156SAPE  H20T17395  -0.834   5.357   8.481 -2.2053  0.5621 -0.6677
  156SAPE   C3317396   0.151   5.620   6.936  0.3471 -0.7966  0.1514
  156SAPE   H3X17397   0.228   5.697   6.959  0.8144 -1.5338  1.0912
  156SAPE   H3Y17398   0.197   5.519   6.937  0.5738 -0.6924  0.2552
  156SAPE   C3417399   0.061   5.638   7.059 -0.1158 -0.0470 -0.3642
  156SAPE   H4X17400  -0.037   5.590   7.041  0.6196 -1.3044 -1.0492
  156SAPE   H4Y17401   0.044   5.747   7.074  1.0900  0.0346  0.5851
  156SAPE   C3517402   0.120   5.575   7.184  0.4828  0.0832 -0.1783
  156SAPE   H5X17403   0.215   5.620   7.219 -0.5433  0.0090  2.7863
  156SAPE   H5Y17404   0.152   5.473   7.154 -0.5884 -0.3003 -0.0229
  156SAPE   C3617405   0.018   5.571   7.303  0.1692  0.0121  0.1687
  156SAPE   H6X17406  -0.043   5.480   7.285 -3.2006  2.4162 -0.9790
  156SAPE   H6Y17407  -0.036   5.666   7.289 -0.0955 -0.2190 -0.3722
  156SAPE   C3717408   0.093   5.550   7.438 -0.2350 -0.1092 -0.0227
  156SAPE   H7X17409   0.183   5.615   7.448 -0.4534  0.2715 -0.5575
  156SAPE   H7Y17410   0.140   5.449   7.434  0.0396  0.0046  0.2462
  156SAPE   C3817411   0.018   5.559   7.567 -0.1663  0.0875 -0.9403
  156SAPE   H8X17412  -0.077   5.500   7.566  0.9392 -1.9347  3.4974
  156SAPE   H8Y17413  -0.015   5.664   7.577  1.9128  1.0278 -3.4553
  156SAPE   C3917414   0.102   5.525   7.687 -0.3571  0.2817  1.4057
  156SAPE   H9X17415   0.185   5.599   7.696  0.0825 -0.0028 -0.1710
  156SAPE   H9Y17416   0.149   5.424   7.687 -1.4009 -0.2603 -1.6387
  156SAPE  C31017417   0.025   5.537   7.820  0.6780  0.4242  0.5071
  156SAPE  H10X17418  -0.060   5.466   7.814 -0.9185  2.1258  2.3648
  156SAPE  H10Y17419  -0.022   5.633   7.851  0.1724  0.6121 -0.8314
  156SAPE  C31117420   0.108   5.482   7.942  0.3407 -0.0115 -0.1539
  156SAPE  H11X17421   0.202   5.537   7.966 -0.7633  0.6539  2.9553
  156SAPE  H11Y17422   0.141   5.379   7.915  0.5198  0.3106 -1.1901
  156SAPE  C31217423   0.030   5.479   8.073 -0.3620  0.3377 -1.0147
  156SAPE  H12X17424  -0.065   5.424   8.055 -0.0600  0.0444 -1.7389
  156SAPE  H12Y17425   0.002   5.582   8.103  1.1153  0.7295 -0.9731
  156SAPE  C31317426   0.115   5.421   8.192 -0.0862 -0.2005 -0.4895
  156SAPE  H13X17427   0.205   5.485   8.201 -0.6659  0.6924 -1.0174
  156SAPE  H13Y17428   0.166   5.325   8.167  1.1864  0.4077 -0.2866
  156SAPE  C31417429   0.040   5.397   8.322 -0.3429 -0.5365  0.6569
  156SAPE  H14X17430  -0.041   5.322   8.319  0.2434 -1.1296 -0.3082
  156SAPE  H14Y17431  -0.001   5.496   8.351  0.6737  0.0721  0.0545
  156SAPE  C31517432   0.130   5.345   8.438 -0.1227  0.6759  0.9082
  156SAPE  H15X17433   0.219   5.409   8.455  0.5374  0.1891 -0.6897
  156SAPE  H15Y17434   0.165   5.239   8.436  0.1177  0.7693  0.0553
  156SAPE  C31617435   0.042   5.367   8.562 -0.9005 -0.6762 -0.3610
  156SAPE  H16X17436   0.094   5.310   8.641 -0.1884 -2.3152 -1.9829
  156SAPE  H16Y17437  -0.063   5.330   8.562 -1.0697 -0.2800 -2.2809
  156SAPE  C31717438   0.025   5.514   8.606  0.2495 -0.3984  0.3757
  156SAPE  H17X17439  -0.046   5.507   8.691  0.6546 -0.0437  0.7485
  156SAPE  H17Y17440   0.002   5.595   8.533 -1.1859 -1.9140 -0.8780
  156SAPE  C31817441   0.159   5.567   8.673  0.2709  0.6572  0.3172
  156SAPE  H18X17442   0.195   5.501   8.755 -2.7312 -2.1223 -0.5000
  156SAPE  H18Y17443   0.142   5.668   8.715  0.1516  0.1395  1.5470
  156SAPE  H18Z17444   0.242   5.579   8.600 -1.5750 -2.1750 -2.3643
  157SAPE     N17445   4.209   0.154   6.019  0.0621  0.2201 -0.1663
  157SAPE   HN117446   4.145   0.102   5.956  2.9720  1.3263 -4.2736
  157SAPE   HN217447   4.305   0.144   5.980 -1.2975  0.3369 -3.7226
  157SAPE   HN317448   4.200   0.111   6.113 -0.3178  2.3934  0.8052
  157SAPE   C1217449   4.158   0.296   6.010 -0.8588  0.1982 -0.6173
  157SAPE  H12A17450   4.048   0.287   6.021 -0.7347  1.1990  1.7581
  157SAPE  H12B17451   4.201   0.328   5.913 -0.1958 -1.0889 -0.7563
  157SAPE   C1117452   4.202   0.391   6.126  0.7731 -0.8010  0.4850
  157SAPE  H11A17453   4.137   0.375   6.215  1.3133  1.8370  1.3999
  157SAPE  H11B17454   4.178   0.497   6.107  3.3279 -0.3889 -0.6639
  157SAPE     P17455   4.422   0.468   6.243  0.3030  0.0633  0.1411
  157SAPE   O1317456   4.528   0.515   6.153  0.3575  0.8095 -0.3760
  157SAPE   O1417457   4.333   0.567   6.308 -0.1159 -0.0387  0.1206
  157SAPE   O1217458   4.336   0.367   6.170 -0.5786  0.0475 -0.1313
  157SAPE   O1117459   4.485   0.377   6.352  0.0423  0.1619 -0.2389
  157SAPE    C117460   4.434   0.255   6.405 -0.3145 -0.3974  0.2257
  157SAPE    HA17461   4.366   0.193   6.344  1.3203  0.1455 -2.2219
  157SAPE    HB17462   4.520   0.189   6.431 -1.3435 -0.7347  2.8946
  157SAPE    C217463   4.370   0.287   6.541  0.3778 -0.5344  0.2838
  157SAPE    HS17464   4.280   0.350   6.523  0.7665 -0.2022 -0.5259
  157SAPE   O2117465   4.459   0.364   6.631  0.0161  0.6670 -0.0627
  157SAPE   C2117466   4.414   0.475   6.679  0.4945 -0.7260 -0.1340
  157SAPE   O2217467   4.297   0.506   6.674 -0.2203  0.0120 -0.3181
  157SAPE   C2217468   4.520   0.557   6.737 -0.1196  0.1820 -0.9722
  157SAPE   H2R17469   4.602   0.550   6.662 -0.5926 -2.1351 -1.3315
  157SAPE   H2S17470   4.491   0.660   6.765  0.4594 -0.1120  0.7999
  157SAPE    C317471   4.328   0.153   6.619 -0.0736 -0.0261  0.0192
  157SAPE    HX17472   4.420   0.097   6.646  0.6347  1.5932  1.0235
  157SAPE    HY17473   4.257   0.093   6.557 -0.5955  1.2780 -0.6813
  157SAPE   O3117474   4.262   0.180   6.742 -0.1895  0.8069 -0.1672
  157SAPE   C3117475   4.139   0.219   6.735 -1.0526 -0.2839  0.1775
  157SAPE   O3217476   4.061   0.207   6.644 -0.6462 -0.1647  0.5030
  157SAPE   C3217477   4.098   0.295   6.865 -0.7087 -1.0669  0.0799
  157SAPE   H2X17478   3.998   0.338   6.845 -0.1341  0.3770  0.2056
  157SAPE   H2Y17479   4.177   0.371   6.884 -0.5537 -1.3634  0.6386
  157SAPE   C2317480   4.583   0.481   6.860  0.1310 -0.5766 -0.2341
  157SAPE   H3R17481   4.682   0.437   6.832 -0.0012 -0.0387 -1.6080
  157SAPE   H3S17482   4.526   0.390   6.888  2.4962 -1.7982  0.8416
  157SAPE   C2417483   4.601   0.585   6.979  0.4523 -0.2275 -0.3097
  157SAPE   H4R17484   4.500   0.623   7.005  0.1116 -0.3396 -1.4481
  157SAPE   H4S17485   4.657   0.665   6.926  2.2037 -0.5239  1.0589
  157SAPE   C2517486   4.683   0.541   7.102  0.0686  0.2972  0.1383
  157SAPE   H5R17487   4.771   0.600   7.130 -0.9451  1.3610  1.1893
  157SAPE   C2617488   4.636   0.456   7.195 -0.4249 -0.1287  0.0719
  157SAPE   H6R17489   4.704   0.413   7.270  2.8912 -0.3042 -2.8864
  157SAPE   C2717490   4.499   0.389   7.206  0.1277 -0.3275 -0.3187
  157SAPE   H7R17491   4.485   0.340   7.107 -2.5065 -1.2213  0.4760
  157SAPE   H7S17492   4.431   0.476   7.215 -0.5190 -0.5320 -2.7856
  157SAPE   C2817493   4.470   0.292   7.321  0.7442 -0.0945  0.3143
  157SAPE   H8R17494   4.447   0.190   7.289  2.1714 -0.8696  1.6473
  157SAPE   C2917495   4.490   0.310   7.454  0.0677  0.0916  0.1692
  157SAPE   H9R17496   4.486   0.219   7.515  0.1225  2.0517  3.2257
  157SAPE  C21017497   4.557   0.429   7.521  0.1874 -0.1854  0.6490
  157SAPE  H10R17498   4.493   0.473   7.599 -2.4135 -2.9456  0.1703
  157SAPE  H10S17499   4.566   0.514   7.449 -1.6556  0.3795  1.0613
  157SAPE  C21117500   4.673   0.379   7.597 -0.5451  0.1156 -0.0834
  157SAPE  H11R17501   4.662   0.287   7.657  0.1162 -0.0101 -0.1476
  157SAPE  C21217502   4.791   0.432   7.607 -0.6305  0.5165  0.4242
  157SAPE  H12R17503   4.874   0.380   7.657  1.3871  0.5312 -2.7345
  157SAPE  C21317504   4.846   0.563   7.552  0.6624  0.1597  0.0477
  157SAPE  H13R17505   4.768   0.642   7.547  1.1961  0.5275 -2.8441
  157SAPE  H13S17506   4.881   0.544   7.449  1.9846 -2.3782  0.9163
  157SAPE  C21417507   4.968   0.627   7.628  0.3864  0.0087 -0.3771
  157SAPE  H14R17508   5.048   0.554   7.647 -0.3008 -0.6697 -0.0480
  157SAPE  C21517509   4.979   0.747   7.676 -0.1480 -0.2367 -0.2958
  157SAPE  H15R17510   5.065   0.771   7.740  0.4861 -1.1875 -0.7767
  157SAPE  C21617511   4.869   0.853   7.667  0.3005 -0.0603 -0.1125
  157SAPE  H16R17512   4.817   0.847   7.569 -0.8032  2.6070  0.2835
  157SAPE  H16S17513   4.902   0.957   7.688 -0.2108  0.1967 -0.5710
  157SAPE  C21717514   4.759   0.814   7.775  0.4600 -0.8647 -0.5292
  157SAPE  H17R17515   4.723   0.710   7.763  1.3144 -1.0418 -1.6641
  157SAPE  H17S17516   4.673   0.883   7.760  0.9404  0.1753  1.3873
  157SAPE  C21817517   4.807   0.837   7.916 -0.4042 -0.5514 -0.0217
  157SAPE  H18R17518   4.824   0.946   7.932  1.1336 -0.8177  0.2096
  157SAPE  H18S17519   4.907   0.792   7.930  0.3152  0.4573 -1.7789
  157SAPE  C21917520   4.712   0.771   8.013 -0.3244  0.8851  0.2850
  157SAPE  H19R17521   4.684   0.672   7.972  1.5067 -0.3514  1.8920
  157SAPE  H19S17522   4.621   0.834   8.020 -1.8331 -0.7192 -3.4049
  157SAPE  C22017523   4.775   0.759   8.155 -0.1232  0.0850 -0.5374
  157SAPE  H20R17524   4.809   0.852   8.206 -0.8048 -0.5531  1.0941
  157SAPE  H20S17525   4.846   0.674   8.146 -0.6042 -0.4741  0.8299
  157SAPE  H20T17526   4.694   0.722   8.222 -0.6361 -0.0270 -1.2083
  157SAPE   C3317527   4.091   0.204   6.987 -0.2078 -0.7014 -0.1233
  157SAPE   H3X17528   4.180   0.139   6.996  2.4933  2.6685 -1.4775
  157SAPE   H3Y17529   3.993   0.152   6.981  0.6598 -2.2852 -0.7293
  157SAPE   C3417530   4.080   0.294   7.116  0.8965  0.1265  0.4365
  157SAPE   H4X17531   3.988   0.356   7.108  0.3491 -0.8413 -0.9784
  157SAPE   H4Y17532   4.174   0.352   7.128  2.2031 -1.2790 -2.5733
  157SAPE   C3517533   4.076   0.206   7.238  0.1696  0.5414 -0.2233
  157SAPE   H5X17534   4.155   0.129   7.232  0.3752  0.6556  0.9257
  157SAPE   H5Y17535   3.982   0.148   7.225 -0.6139  1.0107  2.8988
  157SAPE   C3617536   4.067   0.276   7.372 -0.4668  0.4702 -0.6471
  157SAPE   H6X17537   3.963   0.312   7.387 -1.5575 -3.3974  1.6690
  157SAPE   H6Y17538   4.140   0.360   7.367  0.5856 -0.4111 -0.2778
  157SAPE   C3717539   4.102   0.196   7.498 -1.2042  0.5747  0.3174
  157SAPE   H7X17540   4.206   0.157   7.493 -1.8294 -1.0035 -0.8879
  157SAPE   H7Y17541   4.041   0.103   7.495 -0.4621  0.0994 -0.3096
  157SAPE   C3817542   4.101   0.266   7.639  0.0683 -0.1167  0.6269
  157SAPE   H8X17543   4.090   0.189   7.718  1.0151 -0.7674  0.1164
  157SAPE   H8Y17544   4.016   0.337   7.645 -0.8668 -1.0634 -0.9197
  157SAPE   C3917545   4.236   0.338   7.673 -0.0047 -0.4221 -0.4312
  157SAPE   H9X17546   4.246   0.421   7.600 -0.3444 -1.9443 -2.2471
  157SAPE   H9Y17547   4.317   0.263   7.662  1.2955  0.9273 -0.2846
  157SAPE  C31017548   4.241   0.387   7.817  0.0591 -0.0332  0.1974
  157SAPE  H10X17549   4.325   0.458   7.836 -0.9616  0.5651  2.6639
  157SAPE  H10Y17550   4.263   0.302   7.885 -0.0983 -0.2306 -0.0003
  157SAPE  C31117551   4.116   0.453   7.875 -0.0112  0.1155 -0.5374
  157SAPE  H11X17552   4.038   0.373   7.880  1.8353 -1.7416 -0.7392
  157SAPE  H11Y17553   4.077   0.522   7.797  1.1975  0.7494 -0.5741
  157SAPE  C31217554   4.125   0.533   8.009  0.1115 -0.4521  0.7744
  157SAPE  H12X17555   4.197   0.617   7.997 -1.1898  0.7003  0.7913
  157SAPE  H12Y17556   4.156   0.470   8.094 -2.5434 -1.2420  1.2067
  157SAPE  C31317557   3.982   0.588   8.033 -0.1811 -0.1988  0.4852
  157SAPE  H13X17558   3.907   0.507   8.017 -0.2209 -0.2009  0.6807
  157SAPE  H13Y17559   3.956   0.660   7.952 -1.2689  0.1129  1.1061
  157SAPE  C31417560   3.972   0.676   8.157 -0.3087 -0.0620 -0.0400
  157SAPE  H14X17561   3.990   0.606   8.241 -0.3535  3.6210  3.1899
  157SAPE  H14Y17562   3.870   0.719   8.159 -1.1145 -1.9355 -0.0052
  157SAPE  C31517563   4.063   0.798   8.168 -0.1428  0.3208 -0.7560
  157SAPE  H15X17564   4.049   0.859   8.076 -0.8900 -1.1259 -1.6182
  157SAPE  H15Y17565   4.167   0.762   8.154 -0.4578 -1.2349  0.7137
  157SAPE  C31617566   4.036   0.882   8.295  0.3248 -0.0492  0.2374
  157SAPE  H16X17567   3.983   0.809   8.361  0.5283  0.4141  0.9197
  157SAPE  H16Y17568   3.972   0.969   8.266  2.5955  1.1460 -1.3362
  157SAPE  C31717569   4.165   0.942   8.368  0.6689 -0.3459 -0.2692
  157SAPE  H17X17570   4.133   1.006   8.453 -0.4541  1.1402 -1.7536
  157SAPE  H17Y17571   4.217   1.006   8.294  2.7057 -0.0938  1.3474
  157SAPE  C31817572   4.257   0.834   8.415  0.0857  0.6722  0.3079
  157SAPE  H18X17573   4.190   0.761   8.465 -0.9128 -0.0629 -2.0494
  157SAPE  H18Y17574   4.337   0.859   8.489 -0.4358 -4.0498  2.6592
  157SAPE  H18Z17575   4.302   0.768   8.338  0.4885  2.2253 -0.8043
  158SAPE     N17576   6.129   4.222   6.461 -0.1378  0.0609  0.1227
  158SAPE   HN117577   6.109   4.255   6.365  1.2176  1.2845  0.2498
  158SAPE   HN217578   6.216   4.168   6.441  0.0647  0.9238 -1.4337
  158SAPE   HN317579   6.057   4.164   6.510  0.9554 -2.8089 -1.5271
  158SAPE   C1217580   6.162   4.338   6.550 -0.5723 -0.0058  0.2348
  158SAPE  H12A17581   6.195   4.307   6.652 -2.0471 -1.1793  0.3732
  158SAPE  H12B17582   6.070   4.398   6.570 -1.5440 -1.8203  1.3273
  158SAPE   C1117583   6.265   4.432   6.481  0.4621 -0.4761 -0.4280
  158SAPE  H11A17584   6.253   4.528   6.536 -0.2549  0.0708 -1.5126
  158SAPE  H11B17585   6.232   4.441   6.375 -0.0727  0.4575 -0.1870
  158SAPE     P17586   6.502   4.418   6.385 -0.0390 -0.0519  0.2839
  158SAPE   O1317587   6.630   4.352   6.425 -0.4027  1.0649  0.0945
  158SAPE   O1417588   6.454   4.385   6.252 -0.0539 -0.4306 -0.0440
  158SAPE   O1217589   6.397   4.375   6.493  0.5764 -0.4167  0.3862
  158SAPE   O1117590   6.502   4.577   6.394 -0.3174  0.0758 -0.2425
  158SAPE    C117591   6.603   4.646   6.461  0.3171 -0.0850  0.0312
  158SAPE    HA17592   6.682   4.581   6.504  0.2704  0.7235  1.3831
  158SAPE    HB17593   6.662   4.723   6.407 -1.0056  1.2669  0.4619
  158SAPE    C217594   6.529   4.720   6.574  0.3079  0.4158  0.2153
  158SAPE    HS17595   6.605   4.776   6.633  0.6107  0.4280 -0.1842
  158SAPE   O2117596   6.466   4.626   6.668  0.2533 -0.6914 -0.2387
  158SAPE   C2117597   6.553   4.551   6.739  0.7050 -0.1954 -0.0797
  158SAPE   O2217598   6.672   4.571   6.746 -0.2360 -0.3324 -0.2636
  158SAPE   C2217599   6.484   4.439   6.814 -0.3864  0.3635 -0.3043
  158SAPE   H2R17600   6.471   4.351   6.747  1.9263 -0.4324  0.2318
  158SAPE   H2S17601   6.561   4.409   6.889 -0.9127 -0.7284 -0.1826
  158SAPE    C317602   6.424   4.830   6.524 -0.9900  0.0749 -0.1679
  158SAPE    HX17603   6.351   4.782   6.456 -0.4023 -0.5912 -0.3330
  158SAPE    HY17604   6.466   4.903   6.452 -1.4634 -0.1338 -0.6617
  158SAPE   O3117605   6.352   4.896   6.640  1.0015  0.5652  0.5914
  158SAPE   C3117606   6.427   4.981   6.712 -0.5598 -0.3350 -0.8147
  158SAPE   O3217607   6.541   5.003   6.681  0.0205  0.4388 -0.3071
  158SAPE   C3217608   6.340   5.038   6.821 -0.4496 -0.0600  0.0895
  158SAPE   H2X17609   6.306   4.945   6.871 -0.7346  0.4423  0.8359
  158SAPE   H2Y17610   6.261   5.098   6.771  0.6537  1.5085  0.1830
  158SAPE   C2317611   6.345   4.476   6.878  0.5284 -0.6230  0.4245
  158SAPE   H3R17612   6.317   4.393   6.946 -2.2731  1.4708  1.9209
  158SAPE   H3S17613   6.259   4.481   6.807  0.1698  0.6257  0.9398
  158SAPE   C2417614   6.346   4.601   6.967  0.6211  0.1462 -0.2850
  158SAPE   H4R17615   6.240   4.618   6.996 -0.0162 -0.2853 -2.2856
  158SAPE   H4S17616   6.370   4.687   6.901 -1.0486 -1.5211 -3.1394
  158SAPE   C2517617   6.450   4.593   7.076 -0.0178  0.3711 -0.1429
  158SAPE   H5R17618   6.546   4.546   7.049  0.2416 -0.3248  1.9153
  158SAPE   C2617619   6.430   4.633   7.197  0.1719  0.3841  0.4927
  158SAPE   H6R17620   6.519   4.612   7.259  0.5926 -1.2330 -0.6178
  158SAPE   C2717621   6.310   4.698   7.261  0.1417  0.7626 -0.0263
  158SAPE   H7R17622   6.234   4.618   7.275 -2.0031  2.3430 -2.2811
  158SAPE   H7S17623   6.269   4.779   7.197 -0.4889  1.1635  0.8773
  158SAPE   C2817624   6.315   4.768   7.393  0.3825 -0.3806  0.5547
  158SAPE   H8R17625   6.318   4.877   7.380 -0.3190 -0.4991 -0.6593
  158SAPE   C2917626   6.322   4.707   7.513 -0.3658  0.4119 -0.1056
  158SAPE   H9R17627   6.333   4.766   7.606  1.9588 -0.0687 -0.0590
  158SAPE  C21017628   6.324   4.559   7.529  0.2310  0.4165  0.7433
  158SAPE  H10R17629   6.397   4.526   7.606 -0.7941  0.2723  1.6589
  158SAPE  H10S17630   6.363   4.507   7.438  0.7966 -2.0108  2.3248
  158SAPE  C21117631   6.187   4.497   7.560  0.5079 -0.0648 -0.2871
  158SAPE  H11R17632   6.133   4.473   7.467 -0.9267 -1.4739  0.8764
  158SAPE  C21217633   6.140   4.446   7.685 -0.3247  0.2929 -0.6137
  158SAPE  H12R17634   6.039   4.402   7.683 -1.1027  1.9479  1.3581
  158SAPE  C21317635   6.208   4.438   7.823 -0.1784  0.5866 -0.1349
  158SAPE  H13R17636   6.172   4.518   7.891 -0.1343 -1.4248  2.3384
  158SAPE  H13S17637   6.316   4.457   7.801 -0.6058  3.1280 -0.2426
  158SAPE  C21417638   6.191   4.305   7.895  0.0538 -0.3413  0.1337
  158SAPE  H14R17639   6.180   4.217   7.829 -2.6128  0.8205 -1.0589
  158SAPE  C21517640   6.189   4.282   8.026  0.4732 -0.2655  0.2113
  158SAPE  H15R17641   6.167   4.178   8.056 -1.8492  0.0718 -0.2903
  158SAPE  C21617642   6.199   4.376   8.143  0.4895 -0.5195 -0.0102
  158SAPE  H16R17643   6.223   4.479   8.107  0.5452  0.3525  2.4697
  158SAPE  H16S17644   6.281   4.341   8.209 -0.7576 -0.0378  1.8333
  158SAPE  C21717645   6.069   4.384   8.225 -0.5561 -0.0220  0.3969
  158SAPE  H17R17646   5.979   4.388   8.160 -0.4732 -0.2184  0.2693
  158SAPE  H17S17647   6.075   4.473   8.291  0.8676  0.7423 -0.7254
  158SAPE  C21817648   6.042   4.264   8.317  0.0747  0.2526  0.1142
  158SAPE  H18R17649   6.115   4.259   8.400  1.2527 -2.2711 -1.0269
  158SAPE  H18S17650   6.042   4.170   8.258  0.9443 -0.5642  1.3917
  158SAPE  C21917651   5.901   4.268   8.376 -1.2564 -0.2263 -0.1464
  158SAPE  H19R17652   5.872   4.163   8.395 -2.4372  0.2170  0.5639
  158SAPE  H19S17653   5.834   4.317   8.302 -1.0569 -2.1991 -1.6800
  158SAPE  C22017654   5.912   4.336   8.514 -0.5595  0.1158  0.1507
  158SAPE  H20R17655   5.808   4.360   8.545 -0.2034  0.8966  0.7458
  158SAPE  H20S17656   5.970   4.430   8.507  0.4099 -0.5258 -0.5484
  158SAPE  H20T17657   5.958   4.270   8.591  1.2983  1.0952 -0.1058
  158SAPE   C3317658   6.423   5.122   6.918 -0.1940 -0.3226  0.0915
  158SAPE   H3X17659   6.435   5.224   6.875 -1.2645  0.2877  1.1834
  158SAPE   H3Y17660   6.528   5.087   6.929 -0.3520 -0.5801  0.8633
  158SAPE   C3417661   6.361   5.134   7.058 -0.8090  0.2198 -0.9757
  158SAPE   H4X17662   6.355   5.035   7.108 -1.5027  0.3012 -0.8899
  158SAPE   H4Y17663   6.255   5.167   7.044 -0.9627  1.1778  2.0930
  158SAPE   C3517664   6.439   5.245   7.135 -0.1997  0.3793 -0.5538
  158SAPE   H5X17665   6.455   5.343   7.085  0.4048  2.4130  3.4462
  158SAPE   H5Y17666   6.541   5.216   7.167 -0.0184  2.0154  0.4197
  158SAPE   C3617667   6.366   5.290   7.261 -0.1392  0.2991  0.2312
  158SAPE   H6X17668   6.258   5.268   7.253 -0.0632 -0.4407  1.1281
  158SAPE   H6Y17669   6.368   5.400   7.280 -1.6781  0.4754 -0.6268
  158SAPE   C3717670   6.415   5.212   7.385  0.7003 -0.3256 -0.7849
  158SAPE   H7X17671   6.391   5.104   7.374 -0.5868 -0.1863  0.5709
  158SAPE   H7Y17672   6.525   5.214   7.394  0.6965  2.0435 -0.9686
  158SAPE   C3817673   6.357   5.253   7.513  0.9383  0.3245  0.3621
  158SAPE   H8X17674   6.246   5.254   7.515  0.8962 -1.2170 -0.4118
  158SAPE   H8Y17675   6.391   5.356   7.539 -0.4259  0.8732  0.0306
  158SAPE   C3917676   6.398   5.164   7.627  0.4394  0.3121  0.1157
  158SAPE   H9X17677   6.501   5.126   7.608  0.2922 -1.1568  2.0213
  158SAPE   H9Y17678   6.341   5.069   7.629  0.4769  0.3055  1.1774
  158SAPE  C31017679   6.385   5.237   7.759 -0.3432  0.9372 -0.0656
  158SAPE  H10X17680   6.285   5.286   7.757  0.1687  1.9891 -1.0877
  158SAPE  H10Y17681   6.457   5.322   7.757 -0.2495  1.0352  3.4895
  158SAPE  C31117682   6.405   5.147   7.884 -0.1444  0.5136  0.4687
  158SAPE  H11X17683   6.501   5.092   7.876  0.7939  2.2060 -0.2790
  158SAPE  H11Y17684   6.315   5.084   7.891 -1.7568  2.8461  1.4048
  158SAPE  C31217685   6.413   5.231   8.009 -0.1133  0.6325 -0.2934
  158SAPE  H12X17686   6.325   5.298   8.017 -0.3339  0.2981  0.0955
  158SAPE  H12Y17687   6.509   5.287   8.003 -1.7787  3.5745 -0.1767
  158SAPE  C31317688   6.412   5.147   8.130 -0.5554 -0.1635 -0.1823
  158SAPE  H13X17689   6.505   5.087   8.138  0.6589  1.5365 -1.2388
  158SAPE  H13Y17690   6.333   5.069   8.128  0.2186 -0.9434 -0.7762
  158SAPE  C31417691   6.394   5.238   8.253  0.4482  0.0226 -0.3947
  158SAPE  H14X17692   6.312   5.307   8.222  0.6048 -0.3417 -1.6454
  158SAPE  H14Y17693   6.485   5.300   8.267  1.7985 -1.7357 -1.2270
  158SAPE  C31517694   6.364   5.165   8.384 -0.0721  0.3540  0.4274
  158SAPE  H15X17695   6.442   5.093   8.415 -0.4963 -0.9338 -1.4212
  158SAPE  H15Y17696   6.268   5.110   8.372 -1.2435  1.9424  2.2746
  158SAPE  C31617697   6.342   5.260   8.504 -0.1702  0.4319  0.0427
  158SAPE  H16X17698   6.302   5.197   8.586  0.1399  0.1848  0.0046
  158SAPE  H16Y17699   6.275   5.342   8.470 -0.7763 -0.1996 -0.2989
  158SAPE  C31717700   6.468   5.337   8.554 -0.7773  0.0694  0.6270
  158SAPE  H17X17701   6.502   5.398   8.468  1.4654  0.5563  1.8225
  158SAPE  H17Y17702   6.545   5.261   8.579  0.1690  0.1242 -2.0185
  158SAPE  C31817703   6.423   5.443   8.657  1.3155 -0.1014  1.0118
  158SAPE  H18X17704   6.347   5.510   8.612  1.2731 -0.0257  1.1957
  158SAPE  H18Y17705   6.513   5.498   8.692  0.4480  2.2982 -0.4167
  158SAPE  H18Z17706   6.374   5.392   8.743  2.1059 -0.8300  1.0333
  159SAPE     N17707   5.168   1.645   6.165  0.4243 -0.6274 -0.1090
  159SAPE   HN117708   5.088   1.711   6.153 -0.3686 -1.6403 -0.4804
  159SAPE   HN217709   5.238   1.695   6.223 -0.9912 -0.3517  1.4171
  159SAPE   HN317710   5.210   1.619   6.074 -0.7669  0.0366 -0.8756
  159SAPE   C1217711   5.130   1.528   6.252  0.0917 -0.9769 -0.1430
  159SAPE  H12A17712   5.064   1.458   6.195  1.8047 -0.7411 -2.4572
  159SAPE  H12B17713   5.062   1.564   6.333 -0.8274 -1.6063 -0.6196
  159SAPE   C1117714   5.243   1.455   6.324 -0.0127 -0.0114  0.2173
  159SAPE  H11A17715   5.186   1.389   6.393 -2.2518  0.1385 -1.4336
  159SAPE  H11B17716   5.315   1.517   6.381  1.4130 -0.6354 -0.8837
  159SAPE     P17717   5.463   1.356   6.234 -0.0723 -0.0827  0.5796
  159SAPE   O1317718   5.504   1.241   6.148  0.3796 -0.1170 -0.1036
  159SAPE   O1417719   5.529   1.486   6.213 -0.3962  0.1515  0.4580
  159SAPE   O1217720   5.304   1.376   6.230  0.0930  0.2412 -0.0413
  159SAPE   O1117721   5.493   1.315   6.392 -0.7832 -0.2037  0.4174
  159SAPE    C117722   5.417   1.231   6.473 -0.0393  0.5405  0.1431
  159SAPE    HA17723   5.352   1.298   6.534  1.2068  1.7535  0.1487
  159SAPE    HB17724   5.363   1.151   6.418 -0.7078  0.8559  0.3354
  159SAPE    C217725   5.518   1.143   6.557  0.2093 -0.0683  0.1639
  159SAPE    HS17726   5.462   1.052   6.589  2.3573 -1.2046  0.7463
  159SAPE   O2117727   5.565   1.214   6.674  0.0806 -0.4126 -0.3507
  159SAPE   C2117728   5.541   1.164   6.789 -0.4559  0.2492 -1.3797
  159SAPE   O2217729   5.473   1.066   6.814  0.4246 -0.4539  0.7535
  159SAPE   C2217730   5.607   1.254   6.893  0.1054  0.3366 -0.4726
  159SAPE   H2R17731   5.614   1.202   6.991  0.0331  2.8944  0.9212
  159SAPE   H2S17732   5.712   1.276   6.865  0.4153 -1.3928 -0.7426
  159SAPE    C317733   5.630   1.092   6.469 -0.4413 -0.9541  0.1126
  159SAPE    HX17734   5.679   1.186   6.435  0.3606 -0.4973  2.5050
  159SAPE    HY17735   5.586   1.032   6.386  0.4613 -0.3634 -0.8015
  159SAPE   O3117736   5.721   0.998   6.525  0.2691  0.1682 -0.7346
  159SAPE   C3117737   5.833   0.979   6.452  0.1739 -0.2799  0.3591
  159SAPE   O3217738   5.871   1.047   6.363 -0.0340  0.7790 -1.0936
  159SAPE   C3217739   5.921   0.866   6.500  0.0112  0.2707  0.4565
  159SAPE   H2X17740   5.950   0.793   6.421 -1.3551 -0.1062  0.2857
  159SAPE   H2Y17741   5.850   0.815   6.569 -1.7737  1.2645 -0.6116
  159SAPE   C2317742   5.538   1.388   6.926 -0.2994  0.0544 -0.3388
  159SAPE   H3R17743   5.517   1.423   6.823  0.8162 -0.7531 -0.8398
  159SAPE   H3S17744   5.622   1.454   6.957 -0.4630  0.3267 -0.4720
  159SAPE   C2417745   5.412   1.376   7.009  1.0221 -0.1404  0.8465
  159SAPE   H4R17746   5.414   1.350   7.118 -2.2160 -1.1507  0.7310
  159SAPE   H4S17747   5.353   1.294   6.964  1.5389  0.1431 -0.3429
  159SAPE   C2517748   5.336   1.511   6.993  0.0787 -0.1493  0.6681
  159SAPE   H5R17749   5.402   1.598   6.976  1.0745 -0.7302  1.4867
  159SAPE   C2617750   5.197   1.532   6.979  0.5796  0.4072  0.5003
  159SAPE   H6R17751   5.170   1.635   6.953 -0.6040  0.2484  1.0507
  159SAPE   C2717752   5.082   1.438   6.994 -0.0180 -0.1975 -1.1101
  159SAPE   H7R17753   5.070   1.418   7.103 -0.5596  2.3219 -0.6760
  159SAPE   H7S17754   5.107   1.338   6.951 -0.5023 -1.8072  2.1663
  159SAPE   C2817755   4.949   1.471   6.921  0.4610  0.8304 -0.9226
  159SAPE   H8R17756   4.945   1.555   6.849 -1.9534  2.2269  0.7585
  159SAPE   C2917757   4.838   1.384   6.914  0.3370  0.5498 -0.2817
  159SAPE   H9R17758   4.764   1.417   6.839  0.4863 -0.0358 -0.6896
  159SAPE  C21017759   4.826   1.242   6.968  0.6342 -0.1945  0.2427
  159SAPE  H10R17760   4.913   1.206   7.027  1.3736  1.2432  0.0395
  159SAPE  H10S17761   4.831   1.170   6.883  0.4855 -0.3766  0.3883
  159SAPE  C21117762   4.705   1.225   7.056 -0.1031  0.6639  0.0070
  159SAPE  H11R17763   4.618   1.198   6.994 -0.1815 -1.2588  0.9192
  159SAPE  C21217764   4.694   1.222   7.193  0.4684  1.0970 -0.4671
  159SAPE  H12R17765   4.596   1.214   7.242 -0.0319 -1.4962 -1.7762
  159SAPE  C21317766   4.809   1.235   7.292 -0.4313 -0.0635  0.3622
  159SAPE  H13R17767   4.766   1.293   7.376  2.4223  1.4871  0.7982
  159SAPE  H13S17768   4.891   1.297   7.250 -0.3527  0.0710  0.7075
  159SAPE  C21417769   4.855   1.103   7.349  0.5655 -0.7913  0.7794
  159SAPE  H14R17770   4.782   1.020   7.346  0.9265 -1.0753 -1.3130
  159SAPE  C21517771   4.980   1.072   7.393  0.3323 -0.7129 -0.5574
  159SAPE  H15R17772   4.994   0.975   7.443  0.5000 -0.2860  0.2422
  159SAPE  C21617773   5.094   1.171   7.405  0.0421 -0.6110  0.4754
  159SAPE  H16R17774   5.071   1.269   7.357 -4.1006 -1.3909  0.7112
  159SAPE  H16S17775   5.186   1.142   7.350  1.0742  1.8959  0.7859
  159SAPE  C21717776   5.126   1.205   7.558 -0.1288  0.4136  0.0271
  159SAPE  H17R17777   5.038   1.254   7.606 -0.2854  0.9186 -0.7605
  159SAPE  H17S17778   5.205   1.284   7.566  0.4173 -0.1891  0.6349
  159SAPE  C21817779   5.168   1.079   7.628 -0.0104  0.2030  0.2614
  159SAPE  H18R17780   5.252   1.026   7.579  1.9876  1.4740  2.1962
  159SAPE  H18S17781   5.088   1.002   7.634 -1.4639  1.6009 -0.9366
  159SAPE  C21917782   5.227   1.094   7.770 -0.0460 -0.0055  0.1416
  159SAPE  H19R17783   5.150   1.120   7.847 -1.4399  0.1359 -1.2645
  159SAPE  H19S17784   5.291   1.185   7.766  3.3098 -2.3830 -1.8788
  159SAPE  C22017785   5.305   0.970   7.824 -0.1482  0.2274  0.9673
  159SAPE  H20R17786   5.374   0.923   7.751  0.7224  0.2035  1.8092
  159SAPE  H20S17787   5.229   0.892   7.849 -0.5947  0.5262  0.5525
  159SAPE  H20T17788   5.374   1.003   7.904  1.4194 -1.7621  0.4752
  159SAPE   C3317789   6.046   0.902   6.580 -0.4787 -0.2323 -1.2213
  159SAPE   H3X17790   6.118   0.945   6.507 -1.9354 -0.7186 -2.9692
  159SAPE   H3Y17791   6.092   0.804   6.604  0.5486  0.3262 -0.8621
  159SAPE   C3417792   6.025   0.986   6.707  0.4826 -0.4433 -0.4888
  159SAPE   H4X17793   5.937   0.946   6.762  2.3695 -2.9647  0.7870
  159SAPE   H4Y17794   6.019   1.095   6.692  1.6347 -0.6234 -2.5700
  159SAPE   C3517795   6.136   0.960   6.809 -0.5716  0.2779 -0.1128
  159SAPE   H5X17796   6.170   1.053   6.859 -0.4647  0.1540  0.0465
  159SAPE   H5Y17797   6.230   0.916   6.769 -1.4099 -1.6368 -0.0172
  159SAPE   C3617798   6.088   0.873   6.934 -0.1171  0.5002 -0.2287
  159SAPE   H6X17799   6.059   0.771   6.899 -0.6601  0.7386 -0.4785
  159SAPE   H6Y17800   5.999   0.926   6.976 -1.6686 -0.3582 -2.3426
  159SAPE   C3717801   6.181   0.845   7.050  0.0774 -0.6821 -0.2808
  159SAPE   H7X17802   6.228   0.937   7.091 -0.5221 -0.9996  1.1369
  159SAPE   H7Y17803   6.260   0.790   6.995 -1.0177 -0.1396 -2.4573
  159SAPE   C3817804   6.108   0.756   7.153 -0.1641  0.0254  0.4364
  159SAPE   H8X17805   6.091   0.664   7.094 -1.0642 -1.4660  2.9474
  159SAPE   H8Y17806   6.006   0.800   7.164 -0.5684 -0.4165 -1.3319
  159SAPE   C3917807   6.185   0.734   7.278  0.0198  0.6302  0.4097
  159SAPE   H9X17808   6.285   0.700   7.243 -0.1125  0.7046 -0.0452
  159SAPE   H9Y17809   6.135   0.648   7.326  0.0085  0.2709 -0.2394
  159SAPE  C31017810   6.205   0.865   7.355  0.9308  0.0765  0.3133
  159SAPE  H10X17811   6.102   0.905   7.354  1.2209  0.8493  0.8278
  159SAPE  H10Y17812   6.257   0.941   7.293 -0.1561 -0.3337 -1.1187
  159SAPE  C31117813   6.262   0.852   7.495  0.1295 -0.0787 -0.4801
  159SAPE  H11X17814   6.371   0.835   7.507  0.9175  3.7909 -1.6970
  159SAPE  H11Y17815   6.216   0.766   7.549 -0.7188  0.1155 -0.8856
  159SAPE  C31217816   6.220   0.973   7.588  0.5790 -0.3442 -0.0918
  159SAPE  H12X17817   6.126   1.017   7.547  0.9091 -0.8831 -1.4489
  159SAPE  H12Y17818   6.290   1.059   7.583 -0.6698  0.7805  1.3877
  159SAPE  C31317819   6.224   0.939   7.730 -0.3644  0.5595 -0.0470
  159SAPE  H13X17820   6.314   0.877   7.748 -1.4249 -1.1400 -0.4648
  159SAPE  H13Y17821   6.144   0.875   7.772  1.3508 -0.4697  1.7354
  159SAPE  C31417822   6.220   1.067   7.807 -0.0987 -0.1587 -1.2960
  159SAPE  H14X17823   6.130   1.127   7.781 -0.5188 -0.8415 -1.4382
  159SAPE  H14Y17824   6.299   1.140   7.781 -0.6999  2.0565  2.5742
  159SAPE  C31517825   6.246   1.047   7.961  0.5221 -0.3711 -0.3566
  159SAPE  H15X17826   6.259   1.144   8.013  0.7271 -1.0481  0.8785
  159SAPE  H15Y17827   6.345   0.998   7.979  2.8126  4.4422  0.9546
  159SAPE  C31617828   6.149   0.948   8.025  0.0013 -0.2015 -0.5855
  159SAPE  H16X17829   6.186   0.848   7.996 -0.9125 -0.5305 -0.6279
  159SAPE  H16Y17830   6.046   0.973   7.990 -0.1056 -1.6078 -1.3025
  159SAPE  C31717831   6.165   0.952   8.182 -0.1127  0.3111 -0.0166
  159SAPE  H17X17832   6.091   0.877   8.219 -0.7455  0.5373 -0.8178
  159SAPE  H17Y17833   6.139   1.052   8.223 -0.0411  0.1888  0.3255
  159SAPE  C31817834   6.300   0.908   8.222 -0.6797 -0.2245 -0.4889
  159SAPE  H18X17835   6.325   0.815   8.166 -0.5256 -1.0433  0.9035
  159SAPE  H18Y17836   6.297   0.892   8.332 -1.2040  0.0769 -0.4600
  159SAPE  H18Z17837   6.388   0.974   8.204 -1.3081  0.5199 -0.8619
  160SAPE     N17838   6.211   6.345   6.257 -0.0060 -0.4636 -0.3371
  160SAPE   HN117839   6.226   6.262   6.196 -0.1427 -1.1681  0.5673
  160SAPE   HN217840   6.153   6.319   6.340 -0.0021 -1.9909 -0.7847
  160SAPE   HN317841   6.160   6.413   6.197  0.5329  1.2003  1.0677
  160SAPE   C1217842   6.341   6.405   6.298 -0.0476 -0.6968 -0.3073
  160SAPE  H12A17843   6.325   6.500   6.353 -1.7062  0.2307 -2.3343
  160SAPE  H12B17844   6.391   6.433   6.204 -0.4012  0.7969 -0.0615
  160SAPE   C1117845   6.427   6.304   6.381  0.0442 -0.8311  0.3074
  160SAPE  H11A17846   6.380   6.291   6.481  0.9551  0.9682  0.9863
  160SAPE  H11B17847   6.532   6.336   6.395 -0.3973  3.1194 -4.3822
  160SAPE     P17848   6.473   6.050   6.391  0.2087 -0.0860  0.1297
  160SAPE   O1317849   6.425   5.926   6.325 -0.0326  0.6582  0.1709
  160SAPE   O1417850   6.616   6.065   6.415 -0.3930 -0.5636  0.6492
  160SAPE   O1217851   6.425   6.182   6.316 -0.0907  0.1121  0.2642
  160SAPE   O1117852   6.389   6.067   6.521 -0.5793  0.3378 -0.4613
  160SAPE    C117853   6.270   6.003   6.561 -0.7689 -0.0033  0.3399
  160SAPE    HA17854   6.243   5.917   6.496  2.8978 -0.0729 -1.1754
  160SAPE    HB17855   6.283   5.974   6.667  0.5881  1.1404  0.4972
  160SAPE    C217856   6.141   6.093   6.545 -0.3251  0.0536  0.0986
  160SAPE    HS17857   6.147   6.136   6.443 -1.1044  0.5012  0.2345
  160SAPE   O2117858   6.140   6.188   6.648 -0.8224  0.0646 -0.6145
  160SAPE   C2117859   6.107   6.308   6.608 -0.2218  0.3670  0.4473
  160SAPE   O2217860   6.115   6.357   6.498 -0.2734  0.5948  0.0030
  160SAPE   C2217861   6.032   6.383   6.721 -0.0502  0.2093  0.3731
  160SAPE   H2R17862   5.984   6.298   6.774  1.2899 -0.0573  1.1764
  160SAPE   H2S17863   6.096   6.448   6.784 -2.5093  1.7485  1.3627
  160SAPE    C317864   6.017   6.012   6.558 -0.2541 -0.0813 -0.2659
  160SAPE    HX17865   6.003   5.941   6.474  1.6341 -1.2803  0.4211
  160SAPE    HY17866   5.929   6.080   6.547  0.0501  0.2015 -1.0388
  160SAPE   O3117867   6.017   5.940   6.682 -0.6253  0.2585 -0.0069
  160SAPE   C3117868   5.942   5.991   6.776  0.5164 -0.5222 -0.4010
  160SAPE   O3217869   5.858   6.080   6.764  0.0432 -0.4652 -0.0382
  160SAPE   C3217870   5.956   5.910   6.908 -0.4284 -0.2882 -0.6252
  160SAPE   H2X17871   6.045   5.843   6.910 -0.1524  0.0909  2.9353
  160SAPE   H2Y17872   5.870   5.842   6.925  0.8682 -2.2106 -1.4956
  160SAPE   C2317873   5.901   6.463   6.661  0.1226  0.1032  0.1491
  160SAPE   H3R17874   5.931   6.520   6.570  3.5855 -2.4769 -0.4204
  160SAPE   H3S17875   5.861   6.529   6.741  4.2802  3.2533 -0.1601
  160SAPE   C2417876   5.794   6.369   6.615 -0.2086 -1.1901 -0.0469
  160SAPE   H4R17877   5.743   6.321   6.700 -0.8734 -1.2038 -0.4492
  160SAPE   H4S17878   5.836   6.287   6.553 -0.9050 -1.8654  0.3704
  160SAPE   C2517879   5.694   6.438   6.534 -0.2064 -0.8259 -0.0062
  160SAPE   H5R17880   5.731   6.463   6.434  2.1239 -1.2251  0.7355
  160SAPE   C2617881   5.562   6.453   6.564  0.0539 -0.6433 -0.9198
  160SAPE   H6R17882   5.493   6.509   6.499 -2.3016 -0.7933  1.3871
  160SAPE   C2717883   5.496   6.424   6.699 -0.1080  0.2854 -0.1509
  160SAPE   H7R17884   5.479   6.314   6.710  1.0249  0.1219  0.0417
  160SAPE   H7S17885   5.394   6.467   6.693 -0.8730 -1.2983  1.1408
  160SAPE   C2817886   5.562   6.485   6.818  0.5402  0.6359 -0.2087
  160SAPE   H8R17887   5.597   6.587   6.798 -0.0095  1.8251  4.1707
  160SAPE   C2917888   5.582   6.439   6.943  0.5138  0.2113  0.4115
  160SAPE   H9R17889   5.627   6.507   7.017  2.6648 -0.0530 -0.6038
  160SAPE  C21017890   5.534   6.309   6.994  0.1827  0.3642  0.1719
  160SAPE  H10R17891   5.480   6.259   6.911  2.5509 -1.7559 -0.1305
  160SAPE  H10S17892   5.462   6.326   7.078 -1.1784  0.3729 -0.9867
  160SAPE  C21117893   5.653   6.227   7.037 -0.0409  0.4751  0.0588
  160SAPE  H11R17894   5.690   6.149   6.968 -1.1266  1.2295 -1.4016
  160SAPE  C21217895   5.714   6.233   7.157 -0.0690  0.3572  0.2565
  160SAPE  H12R17896   5.792   6.160   7.179 -0.6809 -0.8965 -1.6178
  160SAPE  C21317897   5.690   6.326   7.273 -0.0799 -0.7219  0.0091
  160SAPE  H13R17898   5.593   6.376   7.253  0.9189 -0.0439 -3.4568
  160SAPE  H13S17899   5.765   6.407   7.284  3.9361 -4.1732 -0.6282
  160SAPE  C21417900   5.680   6.252   7.401  0.8380 -0.1605  0.0940
  160SAPE  H14R17901   5.611   6.166   7.402 -0.0594  0.5602  0.6249
  160SAPE  C21517902   5.749   6.266   7.515  0.5270 -0.3607 -1.0121
  160SAPE  H15R17903   5.733   6.189   7.592  0.4903 -0.0230 -0.6826
  160SAPE  C21617904   5.871   6.355   7.523 -0.0228 -0.9821  0.2875
  160SAPE  H16R17905   5.864   6.456   7.477  0.5904 -1.7137 -1.4302
  160SAPE  H16S17906   5.947   6.311   7.456 -0.0537  0.5118 -0.7548
  160SAPE  C21717907   5.917   6.366   7.668  0.0863 -0.4467  0.7300
  160SAPE  H17R17908   6.017   6.415   7.667  1.4755 -3.1901  0.0704
  160SAPE  H17S17909   5.929   6.273   7.727 -1.4503 -0.9608  0.2507
  160SAPE  C21817910   5.815   6.452   7.751 -0.0470  0.1998  0.1566
  160SAPE  H18R17911   5.711   6.413   7.754  0.1043 -0.1323  1.2388
  160SAPE  H18S17912   5.811   6.551   7.701  1.6133  0.4941  0.5727
  160SAPE  C21917913   5.840   6.453   7.896  0.6474  0.1464 -0.3457
  160SAPE  H19R17914   5.812   6.550   7.942  1.9455 -0.3950  1.6768
  160SAPE  H19S17915   5.948   6.439   7.916  0.3852  0.8251  1.6737
  160SAPE  C22017916   5.763   6.356   7.989  0.4390 -0.0208 -0.3212
  160SAPE  H20R17917   5.652   6.353   7.985  0.4494  0.1581 -0.8541
  160SAPE  H20S17918   5.767   6.394   8.093 -4.4227  0.3994 -0.1635
  160SAPE  H20T17919   5.793   6.250   7.980 -0.8530 -0.7223  2.9326
  160SAPE   C3317920   5.975   5.999   7.034 -0.3141  0.5888  0.0507
  160SAPE   H3X17921   5.896   6.077   7.032 -0.4363  0.5828  2.4310
  160SAPE   H3Y17922   6.072   6.052   7.028  1.0714 -1.7580  0.7286
  160SAPE   C3417923   5.981   5.922   7.163  0.1098  0.1223 -0.9493
  160SAPE   H4X17924   6.041   5.831   7.139 -1.7213 -0.3637 -3.8269
  160SAPE   H4Y17925   5.882   5.879   7.189 -1.2094  3.5962  0.0720
  160SAPE   C3517926   6.039   6.004   7.281 -0.3105 -0.0673  0.0716
  160SAPE   H5X17927   6.017   6.111   7.262 -0.3970 -0.6096 -3.2644
  160SAPE   H5Y17928   6.148   5.986   7.268 -0.4643  0.6565 -2.5253
  160SAPE   C3617929   5.996   5.955   7.419  0.0776 -0.3157  0.6991
  160SAPE   H6X17930   6.015   5.845   7.423  2.9450 -0.0065 -2.5706
  160SAPE   H6Y17931   5.886   5.968   7.428 -0.3674 -2.5679 -0.9417
  160SAPE   C3717932   6.068   6.024   7.533  0.8554  0.1418 -0.2847
  160SAPE   H7X17933   6.066   6.133   7.513 -1.3952 -0.0176 -0.9863
  160SAPE   H7Y17934   6.173   5.988   7.537  0.9790  0.4558 -0.7340
  160SAPE   C3817935   6.002   5.992   7.663 -0.0474 -0.1976  0.8269
  160SAPE   H8X17936   5.998   5.882   7.680 -1.8674 -0.1034  1.0900
  160SAPE   H8Y17937   5.896   6.024   7.654 -0.5466 -1.6814  1.1654
  160SAPE   C3917938   6.075   6.057   7.778 -0.5856  0.2851 -0.7490
  160SAPE   H9X17939   6.099   6.164   7.758 -1.1644  0.7366  0.9232
  160SAPE   H9Y17940   6.174   6.009   7.790 -0.9673 -0.7582 -1.6303
  160SAPE  C31017941   6.003   6.061   7.914 -0.6128 -0.1256 -0.9333
  160SAPE  H10X17942   5.966   5.957   7.931 -0.4459  0.0006  0.1992
  160SAPE  H10Y17943   5.920   6.132   7.899  1.0411  2.1149  0.2987
  160SAPE  C31117944   6.092   6.100   8.035  0.2033 -0.5226 -0.3331
  160SAPE  H11X17945   6.172   6.030   8.065 -0.4981 -0.3150  2.0905
  160SAPE  H11Y17946   6.018   6.112   8.117 -0.3468  1.9321 -1.1202
  160SAPE  C31217947   6.169   6.237   8.024  0.4651 -0.0054  0.5229
  160SAPE  H12X17948   6.099   6.320   8.004  1.8409  0.6590 -1.6983
  160SAPE  H12Y17949   6.237   6.241   7.936 -0.9165  0.1495 -0.5480
  160SAPE  C31317950   6.261   6.270   8.147  0.3567 -0.6063 -0.3342
  160SAPE  H13X17951   6.199   6.284   8.238  1.0202 -1.9266  0.3368
  160SAPE  H13Y17952   6.318   6.363   8.127 -1.3769  0.4740 -0.2638
  160SAPE  C31417953   6.369   6.162   8.180  0.7553 -0.3524  0.0085
  160SAPE  H14X17954   6.428   6.142   8.088  0.8311 -1.1249  0.2193
  160SAPE  H14Y17955   6.319   6.072   8.223 -1.7974  2.2465  2.6829
  160SAPE  C31517956   6.465   6.227   8.279  0.6904 -0.3772  0.3550
  160SAPE  H15X17957   6.503   6.322   8.239 -1.7541 -0.0474 -1.2949
  160SAPE  H15Y17958   6.558   6.167   8.293  0.8663  0.3332  2.4927
  160SAPE  C31617959   6.410   6.247   8.421  0.5203  0.5785 -0.0723
  160SAPE  H16X17960   6.369   6.154   8.467 -1.0157  1.2889  0.0232
  160SAPE  H16Y17961   6.334   6.327   8.419  0.3971  0.4863  0.7496
  160SAPE  C31717962   6.516   6.300   8.522  0.4111  0.0206 -0.7711
  160SAPE  H17X17963   6.574   6.377   8.466 -0.1775 -0.1746 -1.6510
  160SAPE  H17Y17964   6.597   6.224   8.535 -1.6882 -2.2166 -0.4864
  160SAPE  C31817965   6.466   6.344   8.663  0.3362 -0.3600  1.0603
  160SAPE  H18X17966   6.386   6.417   8.641  1.5036  0.3832 -0.9714
  160SAPE  H18Y17967   6.548   6.394   8.719 -1.1082  1.0313  1.9506
  160SAPE  H18Z17968   6.427   6.259   8.723 -0.0251 -0.7691  0.2577
  161SOPE     N17969   4.749   0.806  10.481  0.5652  0.5953 -0.0020
  161SOPE   HN117970   4.676   0.761  10.422  2.2413 -1.5197 -0.5435
  161SOPE   HN217971   4.801   0.869  10.417  1.4139 -2.2203 -2.1670
  161SOPE   HN317972   4.819   0.734  10.507 -1.6103 -1.4877  0.2230
  161SOPE   C1217973   4.695   0.880  10.602 -0.5254  0.9786 -0.0808
  161SOPE  H12A17974   4.631   0.963  10.565 -0.1396  0.0697 -2.8728
  161SOPE  H12B17975   4.784   0.915  10.658  0.6488  0.4660 -1.6013
  161SOPE   C1117976   4.602   0.782  10.680  0.0958  0.5796 -0.3233
  161SOPE  H11A17977   4.579   0.839  10.772  1.1645  0.5482 -0.0382
  161SOPE  H11B17978   4.667   0.695  10.704 -0.3957  0.3504  0.2039
  161SOPE     P17979   4.355   0.706  10.679 -0.1469 -0.1958 -0.2019
  161SOPE   O1317980   4.318   0.824  10.767  0.5493  0.2151  0.2437
  161SOPE   O1417981   4.389   0.579  10.742  0.0064  0.6416  0.5070
  161SOPE   O1217982   4.486   0.748  10.610 -0.2005  0.1422  0.0650
  161SOPE   O1117983   4.254   0.680  10.562  0.2021  0.0048 -0.3935
  161SOPE    C117984   4.200   0.782  10.472 -0.8152 -0.1223 -0.3404
  161SOPE    HA17985   4.214   0.886  10.507 -0.6233 -0.9249  2.0320
  161SOPE    HB17986   4.093   0.759  10.449 -0.9428 -0.2594  0.3950
  161SOPE    C217987   4.263   0.784  10.326 -0.3462  0.1937 -0.8795
  161SOPE    HS17988   4.182   0.828  10.264 -1.0950 -0.3336 -0.2823
  161SOPE   O2117989   4.296   0.653  10.281  0.7520 -0.2098 -0.3573
  161SOPE   C2117990   4.195   0.567  10.272 -0.0179  0.1363  0.4408
  161SOPE   O2217991   4.082   0.592  10.303 -0.0426 -1.0136 -0.0580
  161SOPE   C2217992   4.234   0.433  10.221  0.1983  0.1250  0.3136
  161SOPE   H2R17993   4.233   0.371  10.314  0.5661  0.0076  0.2411
  161SOPE   H2S17994   4.339   0.426  10.184  0.2151  0.7596  0.2361
  161SOPE    C317995   4.387   0.889  10.319  1.1836  0.4629  0.4820
  161SOPE    HX17996   4.462   0.867  10.398 -0.5955 -2.7500  1.3725
  161SOPE    HY17997   4.348   0.988  10.350 -0.6777 -0.4736  1.1967
  161SOPE   O3117998   4.447   0.909  10.188 -0.0077 -0.2564  0.1340
  161SOPE   C3117999   4.566   0.962  10.182  0.2613  0.4041 -0.4285
  161SOPE   O3218000   4.635   0.999  10.273 -0.5869 -0.0418 -0.4248
  161SOPE   C3218001   4.615   0.967  10.040  0.4386  0.1992 -1.1877
  161SOPE   H2X18002   4.668   1.064  10.025  1.5167 -0.2135 -0.1112
  161SOPE   H2Y18003   4.525   0.966   9.975  0.8496  2.7656 -1.8693
  161SOPE   C2318004   4.141   0.388  10.106  0.2868 -0.2526 -0.0077
  161SOPE   H3R18005   4.036   0.419  10.124  0.3768  2.7210 -3.9531
  161SOPE   H3S18006   4.133   0.278  10.093 -0.0656 -0.2205 -0.0585
  161SOPE   C2418007   4.174   0.457   9.974 -0.0295  0.0884  0.4034
  161SOPE   H4R18008   4.103   0.422   9.896  0.0252 -0.4267  0.5820
  161SOPE   H4S18009   4.161   0.567   9.983 -0.0289  0.0478  0.9026
  161SOPE   C2518010   4.314   0.421   9.931  1.0323  0.6432 -0.1372
  161SOPE   H5R18011   4.398   0.463   9.990 -0.0522  1.2811  0.9828
  161SOPE   H5S18012   4.335   0.313   9.945  0.7063  0.5713 -0.1935
  161SOPE   C2618013   4.330   0.447   9.786 -0.2438 -0.2357 -0.0972
  161SOPE   H6R18014   4.408   0.372   9.759 -0.7584 -0.4913 -0.8843
  161SOPE   H6S18015   4.237   0.422   9.730  0.3062  0.4184 -1.3381
  161SOPE   C2718016   4.379   0.588   9.750 -0.0107 -0.5559  0.2029
  161SOPE   H7R18017   4.310   0.666   9.790  0.3432 -1.8287  3.3726
  161SOPE   H7S18018   4.472   0.600   9.809 -0.9212  1.0587  1.3523
  161SOPE   C2818019   4.410   0.608   9.603 -0.1178 -0.3783 -0.4409
  161SOPE   H8R18020   4.475   0.531   9.555  2.6342  0.4252  1.8352
  161SOPE   H8S18021   4.318   0.608   9.541 -1.0374  2.4432  0.8241
  161SOPE   C2918022   4.473   0.742   9.593 -0.7201  0.5045  0.6141
  161SOPE   H9118023   4.477   0.801   9.686 -1.5282 -0.6715  1.4005
  161SOPE  C21018024   4.511   0.798   9.472  0.0009  0.3859 -0.2106
  161SOPE  H10118025   4.555   0.899   9.471 -2.8168  1.6685 -1.2442
  161SOPE  C21118026   4.491   0.725   9.343 -0.0819 -0.4827 -0.4140
  161SOPE  H11R18027   4.420   0.781   9.279 -1.0774  2.8881  3.4552
  161SOPE  H11S18028   4.462   0.620   9.367 -0.4667 -0.0084  1.2104
  161SOPE  C21218029   4.625   0.728   9.271 -0.1217 -0.3263  0.2710
  161SOPE  H12R18030   4.696   0.659   9.322 -0.6886  0.1089  1.6629
  161SOPE  H12S18031   4.660   0.833   9.263 -2.0462  0.3281  0.0574
  161SOPE  C21318032   4.610   0.696   9.124  0.9881  0.0162  0.6918
  161SOPE  H13R18033   4.710   0.711   9.078  0.9992  1.4257  1.1758
  161SOPE  H13S18034   4.537   0.762   9.074 -0.6115 -1.1436  1.4797
  161SOPE  C21418035   4.563   0.555   9.090 -0.2225 -0.3471  0.2017
  161SOPE  H14R18036   4.466   0.524   9.135  0.3812  2.6722  3.8758
  161SOPE  H14S18037   4.630   0.480   9.137 -0.2727  0.7058  2.0437
  161SOPE  C21518038   4.545   0.536   8.941 -0.0362  0.0750  0.5073
  161SOPE  H15R18039   4.597   0.444   8.907 -1.3273 -1.4040  2.4602
  161SOPE  H15S18040   4.595   0.619   8.886 -0.9195  0.2798  0.0037
  161SOPE  C21618041   4.399   0.518   8.901  0.2514  0.3566  0.1117
  161SOPE  H16R18042   4.334   0.606   8.921  0.2503  0.1765  0.9099
  161SOPE  H16S18043   4.360   0.437   8.966  1.0734  0.8197  1.1951
  161SOPE  C21718044   4.382   0.469   8.752  0.5163  0.0787 -0.5421
  161SOPE  H17R18045   4.459   0.392   8.731  1.3329  0.8321 -0.3370
  161SOPE  H17S18046   4.402   0.547   8.676 -3.9024  0.7739 -1.1623
  161SOPE  C21818047   4.252   0.395   8.722  0.0322  0.1536 -0.0437
  161SOPE  H18R18048   4.245   0.300   8.778 -1.2211  0.1859 -0.1294
  161SOPE  H18S18049   4.250   0.373   8.613 -0.1318  1.0527 -0.2243
  161SOPE  H18T18050   4.163   0.456   8.749  0.3049 -0.2426  1.8244
  161SOPE   C3318051   4.708   0.844  10.028  0.3249  0.1103  0.3022
  161SOPE   H3X18052   4.666   0.757  10.085 -0.1170 -1.1459 -1.8752
  161SOPE   H3Y18053   4.799   0.880  10.079 -0.8561  1.6182  1.3825
  161SOPE   C3418054   4.745   0.819   9.878  1.1064  0.1007  0.2404
  161SOPE   H4X18055   4.648   0.800   9.828  0.2021  1.2236  1.5194
  161SOPE   H4Y18056   4.796   0.720   9.874 -2.2452 -1.6409 -0.8416
  161SOPE   C3518057   4.831   0.928   9.812  0.2649  0.5963 -0.0041
  161SOPE   H5X18058   4.909   0.946   9.890  0.5636  1.8067 -0.5703
  161SOPE   H5Y18059   4.784   1.027   9.795  1.1536  1.3694  1.8697
  161SOPE   C3618060   4.907   0.898   9.685  0.0980 -0.3481  0.4062
  161SOPE   H6X18061   4.831   0.877   9.606  1.7586 -0.4522 -1.1975
  161SOPE   H6Y18062   4.965   0.806   9.703  2.8162  1.1559 -0.3226
  161SOPE   C3718063   4.985   1.018   9.647 -0.4362  0.1903  0.4863
  161SOPE   H7X18064   5.077   1.009   9.709  0.8972 -1.4821 -1.6253
  161SOPE   H7Y18065   4.927   1.112   9.661 -0.4905 -0.0046  1.6419
  161SOPE   C3818066   5.034   1.005   9.502  0.1937  0.0947  0.7021
  161SOPE   H8X18067   5.096   0.913   9.494  0.6824  0.1903  2.9220
  161SOPE   H8Y18068   5.104   1.090   9.492 -0.9770  1.1718  1.4769
  161SOPE   C3918069   4.926   1.000   9.398  0.0938  0.1800  0.1158
  161SOPE   H9X18070   4.841   1.061   9.435 -2.2370 -1.7261 -1.8971
  161SOPE   H9Y18071   4.885   0.897   9.394  1.9757 -0.6625  1.8350
  161SOPE  C31018072   4.966   1.048   9.256  1.3344  0.3216  0.1744
  161SOPE  H10X18073   5.063   1.102   9.264  0.8242  0.9786  2.3809
  161SOPE  H10Y18074   4.885   1.107   9.209 -2.0298 -2.4292  2.2565
  161SOPE  C31118075   4.985   0.917   9.168 -0.1626 -0.4796  0.2333
  161SOPE  H11X18076   4.894   0.854   9.176 -1.3690  1.1976  0.0822
  161SOPE  H11Y18077   5.070   0.859   9.210  2.0613  2.7816  0.4027
  161SOPE  C31218078   5.010   0.953   9.020  0.6832  0.2834 -0.6634
  161SOPE  H12X18079   5.094   1.024   9.006 -0.7386  1.9435 -0.9716
  161SOPE  H12Y18080   4.921   1.008   8.983  0.7858  0.7797 -0.1802
  161SOPE  C31318081   5.030   0.827   8.941 -0.1407  0.0980 -0.1899
  161SOPE  H13X18082   4.938   0.768   8.957  1.5524 -2.7850 -0.8027
  161SOPE  H13Y18083   5.123   0.777   8.976  0.5401  0.6136 -1.2070
  161SOPE  C31418084   5.043   0.866   8.798 -0.3003 -0.0955  0.1100
  161SOPE  H14X18085   5.141   0.917   8.789 -0.0584 -0.9475 -2.3670
  161SOPE  H14Y18086   4.958   0.929   8.763  0.7102  0.7870 -0.8015
  161SOPE  C31518087   5.046   0.755   8.695 -0.1729 -0.1797  0.5161
  161SOPE  H15X18088   5.122   0.679   8.721  0.5006  1.3257  3.0988
  161SOPE  H15Y18089   5.085   0.803   8.603  1.2481 -0.0762  1.1553
  161SOPE  C31618090   4.911   0.695   8.654  0.2648 -0.0900  0.0067
  161SOPE  H16X18091   4.902   0.694   8.543 -0.5244 -2.2629  0.0644
  161SOPE  H16Y18092   4.824   0.756   8.687 -1.3508 -0.8400 -2.7015
  161SOPE  C31718093   4.897   0.551   8.707 -0.3142 -0.4334 -0.3439
  161SOPE  H17X18094   4.886   0.548   8.817 -0.7584 -1.0138 -0.4025
  161SOPE  H17Y18095   4.993   0.497   8.689 -2.3590 -4.2322 -0.2408
  161SOPE  C31818096   4.783   0.476   8.630 -0.1604 -0.0481 -0.2426
  161SOPE  H18X18097   4.812   0.369   8.623 -0.2901 -0.1870  1.1458
  161SOPE  H18Y18098   4.754   0.508   8.528 -1.5417  0.2571  0.2377
  161SOPE  H18Z18099   4.695   0.481   8.698 -0.1971 -0.6789 -0.2379
  162SOPE     N18100   3.847   0.548  10.842  0.3050  0.0916  0.5342
  162SOPE   HN118101   3.824   0.518  10.745 -0.0631  0.0843  0.6240
  162SOPE   HN218102   3.924   0.496  10.889  0.5651  0.7977  0.8973
  162SOPE   HN318103   3.772   0.546  10.914  0.7944 -0.9103  1.0333
  162SOPE   C1218104   3.902   0.689  10.818  0.2585  0.8943  0.2191
  162SOPE  H12A18105   3.994   0.662  10.762 -1.8104 -0.8244 -2.4925
  162SOPE  H12B18106   3.917   0.718  10.924 -1.4334 -0.2637  0.7930
  162SOPE   C1118107   3.799   0.781  10.753 -0.0283  0.4081 -0.5711
  162SOPE  H11A18108   3.763   0.749  10.653  0.6338 -0.1573 -0.6343
  162SOPE  H11B18109   3.854   0.877  10.745  0.4422  0.5052  3.0917
  162SOPE     P18110   3.586   0.910  10.847 -0.1405 -0.2119  0.0088
  162SOPE   O1318111   3.658   1.036  10.820  0.1305 -0.0785  0.0336
  162SOPE   O1418112   3.514   0.908  10.974 -0.4085  0.7883 -0.0429
  162SOPE   O1218113   3.686   0.789  10.836  0.5234  0.5689 -0.4381
  162SOPE   O1118114   3.470   0.884  10.733 -0.2900 -0.1800  0.1323
  162SOPE    C118115   3.385   0.765  10.748  0.8321 -0.3672 -0.3694
  162SOPE    HA18116   3.355   0.751  10.854  0.9422  1.2673 -0.1140
  162SOPE    HB18117   3.439   0.668  10.738  0.1094 -0.8985  0.7536
  162SOPE    C218118   3.264   0.755  10.651 -0.2996  0.7185 -0.5997
  162SOPE    HS18119   3.238   0.648  10.658  0.1895  0.6985  1.0806
  162SOPE   O2118120   3.301   0.801  10.516  0.5268 -0.0798 -0.2287
  162SOPE   C2118121   3.394   0.737  10.452 -0.3862  0.5322 -0.4594
  162SOPE   O2218122   3.459   0.639  10.485 -0.0726 -0.2326  0.1545
  162SOPE   C2218123   3.422   0.799  10.313  0.0918 -0.5426  1.1061
  162SOPE   H2R18124   3.343   0.757  10.247 -0.3583  1.5353  0.2593
  162SOPE   H2S18125   3.526   0.767  10.289 -0.0323 -0.4824  0.4723
  162SOPE    C318126   3.147   0.849  10.697  0.1495 -0.6595 -0.2961
  162SOPE    HX18127   3.181   0.954  10.700 -1.4150 -0.0478 -2.5112
  162SOPE    HY18128   3.122   0.825  10.803  4.1322  3.2535  1.6737
  162SOPE   O3118129   3.037   0.820  10.612 -0.3646  0.4878  0.1757
  162SOPE   C3118130   2.968   0.711  10.635  0.2094 -0.4641 -0.2082
  162SOPE   O3218131   2.986   0.630  10.728 -0.4811  0.4179 -0.4903
  162SOPE   C3218132   2.865   0.686  10.523  0.6793  1.3200  0.0806
  162SOPE   H2X18133   2.797   0.774  10.524 -2.4088 -0.9750  0.6620
  162SOPE   H2Y18134   2.815   0.586  10.531  2.1259  0.7338  2.4611
  162SOPE   C2318135   3.401   0.955  10.298  1.0009  0.1958  0.6909
  162SOPE   H3R18136   3.459   1.003  10.380  0.5730 -0.6945  1.5216
  162SOPE   H3S18137   3.294   0.985  10.295  1.4423  1.6767 -1.2960
  162SOPE   C2418138   3.464   1.003  10.171 -0.4554  0.1230  0.7635
  162SOPE   H4R18139   3.475   1.112  10.188 -2.3074  0.1192  2.1396
  162SOPE   H4S18140   3.563   0.955  10.156 -0.5257  0.4840 -0.8982
  162SOPE   C2518141   3.389   0.956  10.046 -0.3468 -0.6996  0.5498
  162SOPE   H5R18142   3.367   0.847  10.054  1.5933 -0.9963  2.5096
  162SOPE   H5S18143   3.293   1.011  10.056  0.5439  1.1759 -0.9022
  162SOPE   C2618144   3.452   1.003   9.915 -0.2639  0.6467  0.0721
  162SOPE   H6R18145   3.440   1.113   9.915 -2.1093  0.4507  0.7621
  162SOPE   H6S18146   3.559   0.972   9.917 -0.6041 -0.4668  2.2924
  162SOPE   C2718147   3.383   0.945   9.794 -0.2190 -0.0568  0.1752
  162SOPE   H7R18148   3.366   0.840   9.825  1.0895 -0.3639 -0.1116
  162SOPE   H7S18149   3.285   0.998   9.790 -0.2054 -0.0377  0.0987
  162SOPE   C2818150   3.455   0.988   9.660 -0.0261 -0.7112 -0.3492
  162SOPE   H8R18151   3.456   1.099   9.651  0.6053 -0.8037 -1.4803
  162SOPE   H8S18152   3.561   0.959   9.674  0.2160  0.1368 -0.3487
  162SOPE   C2918153   3.392   0.917   9.537 -0.3316 -0.2007 -0.4744
  162SOPE   H9118154   3.286   0.889   9.549  0.0179 -0.9955  0.8170
  162SOPE  C21018155   3.461   0.884   9.429  0.1625  0.1714 -0.2687
  162SOPE  H10118156   3.410   0.829   9.348 -0.6460 -0.0600  0.3803
  162SOPE  C21118157   3.602   0.929   9.402  0.3341  0.0277  0.7529
  162SOPE  H11R18158   3.676   0.856   9.439  1.7269  0.9542 -0.1498
  162SOPE  H11S18159   3.630   1.022   9.456 -1.6208  1.2032 -0.1680
  162SOPE  C21218160   3.635   0.958   9.254  0.8728 -0.7021 -0.7284
  162SOPE  H12R18161   3.746   0.966   9.251  0.6754  2.0487 -2.8130
  162SOPE  H12S18162   3.589   1.051   9.215  0.9783 -0.7893 -1.0554
  162SOPE  C21318163   3.583   0.859   9.153 -0.3887  0.2938  0.5459
  162SOPE  H13R18164   3.477   0.876   9.124 -0.6046 -1.7365  0.0286
  162SOPE  H13S18165   3.592   0.753   9.186 -0.3948 -0.0960 -0.6700
  162SOPE  C21418166   3.665   0.874   9.026 -0.3404 -0.0203  0.0315
  162SOPE  H14R18167   3.753   0.807   9.024 -0.3352 -0.0994  2.2718
  162SOPE  H14S18168   3.711   0.975   9.016 -0.2183  0.1874  2.4197
  162SOPE  C21518169   3.566   0.848   8.914 -0.4943  0.8010  1.1543
  162SOPE  H15R18170   3.625   0.862   8.821 -0.4547 -1.0915  0.8793
  162SOPE  H15S18171   3.489   0.928   8.915  0.3358  1.5987  2.0988
  162SOPE  C21618172   3.496   0.711   8.908  0.3520  0.5609  0.0293
  162SOPE  H16R18173   3.441   0.695   9.003  2.1954  2.0565  1.4085
  162SOPE  H16S18174   3.574   0.632   8.910  0.6630  0.8739  0.9788
  162SOPE  C21718175   3.385   0.691   8.811  0.1650  0.2311  0.0903
  162SOPE  H17R18176   3.293   0.746   8.839 -0.2069 -0.3225 -0.0338
  162SOPE  H17S18177   3.361   0.583   8.814  1.2250  0.0108  1.2351
  162SOPE  C21818178   3.428   0.716   8.660  0.3254 -0.1696  0.5753
  162SOPE  H18R18179   3.469   0.816   8.638 -0.4751  0.2708  1.0551
  162SOPE  H18S18180   3.333   0.699   8.605  0.4433 -0.0159  0.3260
  162SOPE  H18T18181   3.500   0.635   8.637  0.5769  0.1618  0.1949
  162SOPE   C3318182   2.927   0.699  10.378  0.1294  0.1659  0.7117
  162SOPE   H3X18183   2.883   0.631  10.301  0.8141  1.1329 -0.5544
  162SOPE   H3Y18184   3.034   0.677  10.396  0.0893  0.0353  0.7940
  162SOPE   C3418185   2.914   0.844  10.328 -0.3472 -0.7947  0.2307
  162SOPE   H4X18186   2.942   0.915  10.409  1.4495  0.0335 -1.0763
  162SOPE   H4Y18187   2.805   0.861  10.310 -0.1590 -1.5582 -1.7647
  162SOPE   C3518188   2.994   0.876  10.206 -0.0334  0.1139  0.7039
  162SOPE   H5X18189   3.088   0.817  10.214  0.3573  0.8419  1.5144
  162SOPE   H5Y18190   3.030   0.981  10.211 -1.0211  0.4008  1.9969
  162SOPE   C3618191   2.925   0.849  10.072  0.1413 -0.2156  0.2302
  162SOPE   H6X18192   2.837   0.913  10.054 -1.5609 -2.1307  1.5948
  162SOPE   H6Y18193   2.889   0.745  10.087 -1.7323  0.9414  4.2917
  162SOPE   C3718194   3.020   0.839   9.953 -0.3617  0.8375 -0.2589
  162SOPE   H7X18195   3.112   0.799  10.002 -1.5335  0.1678  1.4395
  162SOPE   H7Y18196   3.031   0.943   9.916  0.0974  1.5884  1.9644
  162SOPE   C3818197   2.978   0.746   9.847  0.3039 -0.0121 -0.1117
  162SOPE   H8X18198   2.889   0.786   9.795 -0.2884 -0.1900  0.7476
  162SOPE   H8Y18199   2.956   0.645   9.888  1.0397  0.1987  0.8325
  162SOPE   C3918200   3.086   0.736   9.741 -0.0122  0.8214  0.0363
  162SOPE   H9X18201   3.173   0.685   9.789 -1.1706 -1.7501 -0.5100
  162SOPE   H9Y18202   3.135   0.822   9.691  1.3415 -0.0942 -0.2475
  162SOPE  C31018203   3.052   0.632   9.629  0.1360  0.2525  0.1354
  162SOPE  H10X18204   2.948   0.652   9.596 -0.4349 -1.5207  0.7970
  162SOPE  H10Y18205   3.066   0.528   9.665 -0.7683 -0.1209 -0.5645
  162SOPE  C31118206   3.142   0.654   9.503 -0.2441 -0.0232 -0.1809
  162SOPE  H11X18207   3.250   0.654   9.528 -0.2196  1.1775 -0.2602
  162SOPE  H11Y18208   3.132   0.763   9.484  1.0793  0.9002  3.8335
  162SOPE  C31218209   3.103   0.570   9.378  0.3689  0.0040  0.5678
  162SOPE  H12X18210   3.090   0.461   9.395  1.6915 -0.0213  1.5668
  162SOPE  H12Y18211   3.197   0.585   9.321  0.8872 -1.2928  1.0788
  162SOPE  C31318212   2.992   0.619   9.281  0.1080 -0.1034 -0.2253
  162SOPE  H13X18213   2.898   0.612   9.338  0.9737  1.2574  1.3996
  162SOPE  H13Y18214   2.977   0.559   9.188 -0.3818 -1.7361  0.8728
  162SOPE  C31418215   3.008   0.758   9.227  0.7751  0.0378  1.0220
  162SOPE  H14X18216   3.004   0.832   9.309  0.7396 -0.6389  1.6361
  162SOPE  H14Y18217   2.922   0.785   9.162  1.9942 -1.1160 -1.1618
  162SOPE  C31518218   3.140   0.781   9.146  0.1291 -0.6427 -0.4770
  162SOPE  H15X18219   3.150   0.699   9.072  1.3264 -1.7880  0.9019
  162SOPE  H15Y18220   3.230   0.764   9.209  1.7179 -1.3926 -2.8892
  162SOPE  C31618221   3.135   0.918   9.079  0.0103  0.4104  0.1849
  162SOPE  H16X18222   3.230   0.969   9.052  0.5165 -1.5106 -1.7412
  162SOPE  H16Y18223   3.102   0.984   9.162 -1.5817 -0.7964  0.5204
  162SOPE  C31718224   3.052   0.908   8.945 -0.4971  0.3328 -0.2296
  162SOPE  H17X18225   2.957   0.856   8.969  1.6018 -3.4232  0.4174
  162SOPE  H17Y18226   3.113   0.856   8.868  2.0291  2.0364  0.5459
  162SOPE  C31818227   3.032   1.050   8.887 -0.0129 -0.5844 -0.0104
  162SOPE  H18X18228   3.120   1.118   8.881  0.6155 -1.5128 -1.5389
  162SOPE  H18Y18229   2.960   1.107   8.950 -2.1511 -2.3931 -0.7653
  162SOPE  H18Z18230   2.982   1.036   8.789  0.5226 -1.0767 -0.2120
  163SOPE     N18231   4.071   5.315  10.847 -0.4071 -0.1607  0.3184
  163SOPE   HN118232   4.053   5.322  10.950 -0.9003 -0.1431  0.2298
  163SOPE   HN218233   4.092   5.213  10.839 -0.0991 -0.1820  1.2442
  163SOPE   HN318234   4.158   5.362  10.815 -0.7615  0.7140  0.6237
  163SOPE   C1218235   3.949   5.369  10.767 -0.9234 -0.2511  0.6638
  163SOPE  H12A18236   3.975   5.400  10.664 -2.4673  1.1697  0.6884
  163SOPE  H12B18237   3.917   5.465  10.812 -1.0597  0.3638 -0.7239
  163SOPE   C1118238   3.832   5.264  10.773  0.4264  0.5224 -0.2297
  163SOPE  H11A18239   3.869   5.159  10.771  0.9259  0.7174 -1.4096
  163SOPE  H11B18240   3.775   5.290  10.682 -2.4137 -1.8044  0.8162
  163SOPE     P18241   3.603   5.345  10.869  0.0613  0.3889  0.2621
  163SOPE   O1318242   3.607   5.481  10.813 -0.0950  0.1435  0.3494
  163SOPE   O1418243   3.528   5.332  10.993 -0.1271  0.0959  0.0797
  163SOPE   O1218244   3.756   5.289  10.893 -0.2443 -0.2756  0.1847
  163SOPE   O1118245   3.550   5.247  10.760  0.1665 -0.4034 -0.8134
  163SOPE    C118246   3.551   5.105  10.762 -0.4945  1.1082  0.4839
  163SOPE    HA18247   3.447   5.068  10.772  0.2078 -0.7390  1.2656
  163SOPE    HB18248   3.611   5.061  10.846 -0.7704 -0.0813  0.0641
  163SOPE    C218249   3.620   5.036  10.639 -0.1124 -0.5996 -0.2300
  163SOPE    HS18250   3.724   5.070  10.657 -0.4146 -0.1132  0.6343
  163SOPE   O2118251   3.562   5.090  10.517  0.1743 -0.2830 -0.4686
  163SOPE   C2118252   3.649   5.105  10.420  0.0576  0.4355  0.0359
  163SOPE   O2218253   3.768   5.075  10.430 -0.1562  0.1541  0.1664
  163SOPE   C2218254   3.573   5.149  10.294  0.0057 -0.2126 -0.0014
  163SOPE   H2R18255   3.559   5.259  10.299 -0.0970 -0.2930  1.8374
  163SOPE   H2S18256   3.474   5.099  10.297  0.7940 -1.7263  1.8982
  163SOPE    C318257   3.609   4.885  10.643 -0.2551  0.1572 -0.6330
  163SOPE    HX18258   3.504   4.848  10.645 -0.7808  1.5965 -1.2936
  163SOPE    HY18259   3.670   4.849  10.728 -0.2673 -1.6237 -1.3530
  163SOPE   O3118260   3.667   4.820  10.529  0.0860  0.1350  0.5548
  163SOPE   C3118261   3.798   4.812  10.530 -0.6777  0.4744 -0.1947
  163SOPE   O3218262   3.880   4.849  10.609 -0.3046 -0.0589  0.3641
  163SOPE   C3218263   3.831   4.759  10.391 -0.1335  0.1462  0.1128
  163SOPE   H2X18264   3.766   4.799  10.311  0.9080 -2.3577 -2.0847
  163SOPE   H2Y18265   3.809   4.650  10.387 -1.0568  0.2739  1.2477
  163SOPE   C2318266   3.657   5.127  10.165  0.0442 -0.7492 -0.0313
  163SOPE   H3R18267   3.692   5.022  10.156  6.2500  0.9168  1.7742
  163SOPE   H3S18268   3.757   5.176  10.174  0.4904 -1.7289  0.3957
  163SOPE   C2418269   3.584   5.167  10.040  0.1157  0.6310  0.9376
  163SOPE   H4R18270   3.488   5.111  10.031  0.0289  1.0491 -1.0039
  163SOPE   H4S18271   3.576   5.277  10.035  1.1506  0.7780  2.3957
  163SOPE   C2518272   3.651   5.124   9.906  0.0784 -0.3358 -0.0917
  163SOPE   H5R18273   3.755   5.161   9.899 -0.2714  0.4999 -1.0071
  163SOPE   H5S18274   3.662   5.013   9.907 -0.9129 -0.4324  0.5780
  163SOPE   C2618275   3.582   5.164   9.772  0.1238 -0.4958 -0.0065
  163SOPE   H6R18276   3.493   5.097   9.769  1.6572 -2.5722 -0.7825
  163SOPE   H6S18277   3.549   5.269   9.766  1.2235 -0.1702 -0.4646
  163SOPE   C2718278   3.671   5.134   9.648  0.2010  0.5973 -0.3303
  163SOPE   H7R18279   3.745   5.215   9.630  0.1750  0.9682  1.1280
  163SOPE   H7S18280   3.730   5.042   9.668  0.1805  0.8150  0.7718
  163SOPE   C2818281   3.590   5.127   9.520 -0.0799  0.1170  0.3834
  163SOPE   H8R18282   3.492   5.075   9.528 -0.3782  0.8990  1.9338
  163SOPE   H8S18283   3.576   5.237   9.511 -1.0295  0.1209  1.7164
  163SOPE   C2918284   3.669   5.051   9.422  0.0587 -0.1112 -0.0814
  163SOPE   H9118285   3.703   4.954   9.462 -1.0992 -1.1795 -1.6050
  163SOPE  C21018286   3.727   5.088   9.308  0.1411  0.5295  1.3246
  163SOPE  H10118287   3.787   5.017   9.249 -1.2054  1.1131 -0.7933
  163SOPE  C21118288   3.722   5.224   9.241 -0.2379 -1.6461  0.9601
  163SOPE  H11R18289   3.828   5.254   9.229 -0.8942  0.4833  0.1115
  163SOPE  H11S18290   3.664   5.298   9.301 -0.6686 -2.0141  1.0036
  163SOPE  C21218291   3.638   5.229   9.108 -0.6813  0.3788 -0.7071
  163SOPE  H12R18292   3.632   5.337   9.084 -1.4610  0.3123 -0.8414
  163SOPE  H12S18293   3.532   5.198   9.127  0.0925 -2.4710 -0.8547
  163SOPE  C21318294   3.695   5.137   9.000 -0.0309  0.2984 -1.2370
  163SOPE  H13R18295   3.625   5.136   8.914 -1.9256  1.7636  0.2283
  163SOPE  H13S18296   3.693   5.034   9.044 -1.9713  0.5415 -0.7051
  163SOPE  C21418297   3.839   5.167   8.962  0.5110  0.4411  0.2685
  163SOPE  H14R18298   3.872   5.101   8.879 -1.2746  0.6624 -0.6373
  163SOPE  H14S18299   3.908   5.172   9.049  0.3936  3.1150  0.2364
  163SOPE  C21518300   3.848   5.307   8.893 -0.3102 -0.2903 -0.2565
  163SOPE  H15R18301   3.950   5.349   8.879 -0.6494  0.8523  0.6840
  163SOPE  H15S18302   3.803   5.391   8.949 -1.7724 -1.1831 -0.0768
  163SOPE  C21618303   3.800   5.317   8.747  0.2407 -0.1888 -0.0344
  163SOPE  H16R18304   3.696   5.280   8.760 -0.8095  2.5188 -0.4719
  163SOPE  H16S18305   3.854   5.248   8.679  2.2212  2.0351 -0.7788
  163SOPE  C21718306   3.814   5.453   8.685 -0.5871  0.1004  0.7183
  163SOPE  H17R18307   3.760   5.445   8.588  0.8306  0.6894 -0.1417
  163SOPE  H17S18308   3.921   5.471   8.660 -0.8335  0.7111  0.1071
  163SOPE  C21818309   3.750   5.567   8.759  0.5758 -0.1296  0.1560
  163SOPE  H18R18310   3.761   5.666   8.710  1.8273  0.1850  1.0392
  163SOPE  H18S18311   3.790   5.587   8.861  0.0543 -0.2798  0.3952
  163SOPE  H18T18312   3.641   5.546   8.766  0.6550 -0.3166  0.8619
  163SOPE   C3318313   3.980   4.770  10.333  0.1796 -0.2760 -0.1592
  163SOPE   H3X18314   4.032   4.674  10.354 -0.7807 -0.4173  1.6888
  163SOPE   H3Y18315   4.032   4.842  10.400  0.5989  0.3202 -1.1181
  163SOPE   C3418316   3.985   4.819  10.188  0.1878 -0.4158  0.2563
  163SOPE   H4X18317   4.088   4.853  10.163  0.5083 -1.3243  0.2921
  163SOPE   H4Y18318   3.906   4.897  10.185 -1.0473 -1.6697 -2.0029
  163SOPE   C3518319   3.942   4.707  10.085  0.4054  0.0064 -0.3007
  163SOPE   H5X18320   3.840   4.671  10.112 -0.5764  2.6310 -0.3569
  163SOPE   H5Y18321   4.012   4.623  10.103 -0.4960 -0.5024  0.9330
  163SOPE   C3618322   3.973   4.750   9.944  0.6930  0.5929 -0.1667
  163SOPE   H6X18323   4.065   4.697   9.911 -0.7107 -2.1788  0.1779
  163SOPE   H6Y18324   3.996   4.858   9.954 -1.4906  1.0020  0.6892
  163SOPE   C3718325   3.846   4.737   9.851  0.2519  0.3213  0.4520
  163SOPE   H7X18326   3.768   4.803   9.895  0.3425  0.3858  0.5153
  163SOPE   H7Y18327   3.809   4.632   9.846 -1.3753  0.8658  0.5880
  163SOPE   C3818328   3.867   4.799   9.716  0.4114  0.1108  0.0616
  163SOPE   H8X18329   3.908   4.900   9.734 -2.0884  1.2122 -0.3021
  163SOPE   H8Y18330   3.764   4.818   9.680  0.3180  0.3683  0.4678
  163SOPE   C3918331   3.942   4.709   9.620  0.4783  0.5238  0.7585
  163SOPE   H9X18332   3.878   4.620   9.606  0.8105  0.2404  1.0456
  163SOPE   H9Y18333   4.041   4.679   9.660  0.4583 -0.2942  0.1995
  163SOPE  C31018334   3.967   4.772   9.483  0.3691 -0.0560 -0.1654
  163SOPE  H10X18335   4.047   4.848   9.496 -0.8321  0.8974  1.8152
  163SOPE  H10Y18336   3.874   4.828   9.462  0.5844  0.5324  0.4228
  163SOPE  C31118337   4.016   4.672   9.378 -0.3580  0.4279 -0.9741
  163SOPE  H11X18338   3.963   4.577   9.400  0.9796 -0.3904 -1.1859
  163SOPE  H11Y18339   4.127   4.665   9.385 -0.1902  1.9794 -1.9266
  163SOPE  C31218340   3.988   4.717   9.236  0.4296  0.4411 -0.0299
  163SOPE  H12X18341   4.066   4.785   9.195  0.5938 -0.5887 -1.4796
  163SOPE  H12Y18342   3.891   4.772   9.233  0.4682  0.4717 -0.7946
  163SOPE  C31318343   3.983   4.608   9.126  0.5265 -0.1725  0.1508
  163SOPE  H13X18344   3.939   4.646   9.031 -2.9110 -2.3419  0.8072
  163SOPE  H13Y18345   3.910   4.532   9.161 -0.6890 -0.4639 -2.8774
  163SOPE  C31418346   4.127   4.545   9.113 -0.4790  0.3942  0.1617
  163SOPE  H14X18347   4.150   4.503   9.213  1.4814 -2.6880 -1.5203
  163SOPE  H14Y18348   4.197   4.627   9.084 -2.3803  1.2461 -2.2798
  163SOPE  C31518349   4.128   4.433   9.013  0.0861  0.1933  0.9630
  163SOPE  H15X18350   4.051   4.354   9.020  0.9798 -0.7592  0.1738
  163SOPE  H15Y18351   4.226   4.380   9.016  0.0178 -0.1725 -2.0047
  163SOPE  C31618352   4.124   4.480   8.864  0.1682 -0.2114  0.1199
  163SOPE  H16X18353   4.226   4.516   8.837 -0.0649  2.0046  1.9621
  163SOPE  H16Y18354   4.059   4.570   8.861  0.7809  0.3088  2.0157
  163SOPE  C31718355   4.085   4.374   8.755 -0.4715 -0.5266 -0.3146
  163SOPE  H17X18356   3.981   4.339   8.775 -0.0411 -0.6630  1.8082
  163SOPE  H17Y18357   4.159   4.291   8.758 -1.3761 -1.4730 -2.4048
  163SOPE  C31818358   4.073   4.429   8.606  0.0791 -0.5506  0.4321
  163SOPE  H18X18359   4.074   4.347   8.532  1.5922  1.0340 -1.3624
  163SOPE  H18Y18360   4.166   4.489   8.593 -0.6789  0.4076 -0.7060
  163SOPE  H18Z18361   3.986   4.499   8.606 -0.0903 -0.7622  0.2668
  164SOPE     N18362   5.819   3.269  10.551 -1.0707  0.3364  0.0456
  164SOPE   HN118363   5.855   3.172  10.560 -0.0169  0.6963 -0.1561
  164SOPE   HN218364   5.716   3.263  10.566 -1.3734  0.0691 -2.0634
  164SOPE   HN318365   5.836   3.303  10.454  1.8555  1.6762  0.9602
  164SOPE   C1218366   5.869   3.350  10.666  0.2942 -0.3657  0.2445
  164SOPE  H12A18367   5.802   3.434  10.695 -1.3539 -1.4210 -0.4205
  164SOPE  H12B18368   5.964   3.396  10.630  0.3840  0.2256  1.2425
  164SOPE   C1118369   5.894   3.257  10.783 -0.5074 -0.8280  0.1838
  164SOPE  H11A18370   5.811   3.184  10.797 -2.1060  0.6270 -1.4588
  164SOPE  H11B18371   5.911   3.317  10.875 -0.3411 -0.0239 -0.3697
  164SOPE     P18372   6.154   3.226  10.791 -0.2164  0.1823 -0.2032
  164SOPE   O1318373   6.207   3.128  10.891 -0.3761 -0.1460  0.4570
  164SOPE   O1418374   6.159   3.370  10.833  0.1734  0.4421  0.0126
  164SOPE   O1218375   6.009   3.181  10.752  0.3563  0.4164 -0.2641
  164SOPE   O1118376   6.239   3.207  10.651  0.3066 -0.7082  0.2095
  164SOPE    C118377   6.208   3.079  10.583 -1.1999 -0.3387 -0.8322
  164SOPE    HA18378   6.129   3.103  10.509 -0.4243  1.2621 -1.1418
  164SOPE    HB18379   6.181   2.994  10.649  1.4070  0.3617  1.1965
  164SOPE    C218380   6.322   3.036  10.477  0.0635  0.6795 -0.0441
  164SOPE    HS18381   6.279   2.943  10.433 -2.7954 -0.0180  3.9448
  164SOPE   O2118382   6.447   3.015  10.541 -0.4594  0.8290 -0.1349
  164SOPE   C2118383   6.531   2.944  10.469  0.8868  1.4113 -0.4689
  164SOPE   O2218384   6.496   2.872  10.375  0.1761  0.3862  0.6631
  164SOPE   C2218385   6.675   2.934  10.516  0.2917  1.1788  0.3794
  164SOPE   H2R18386   6.720   2.855  10.453 -1.2878  0.3545  0.2473
  164SOPE   H2S18387   6.674   2.903  10.622 -1.6890  1.2699  0.4129
  164SOPE    C318388   6.324   3.150  10.367 -0.5484 -0.3650  0.0268
  164SOPE    HX18389   6.382   3.234  10.411  0.3695 -0.5142 -0.8907
  164SOPE    HY18390   6.222   3.179  10.333  0.1997 -0.7607 -2.6612
  164SOPE   O3118391   6.402   3.102  10.254  0.2374  0.6446 -0.1010
  164SOPE   C3118392   6.388   3.173  10.147  0.5914 -0.1829 -0.0039
  164SOPE   O3218393   6.326   3.276  10.139  0.1995  0.8577  0.3103
  164SOPE   C3218394   6.462   3.110  10.038 -0.0858  0.4039  0.9557
  164SOPE   H2X18395   6.402   3.025  10.000  2.3652 -0.9859  0.0537
  164SOPE   H2Y18396   6.560   3.078  10.081  0.6304 -1.4813 -1.9478
  164SOPE   C2318397   6.759   3.062  10.480  0.0567  0.9788  0.3330
  164SOPE   H3R18398   6.868   3.050  10.501 -0.1126 -0.9883  0.1911
  164SOPE   H3S18399   6.731   3.150  10.540  0.9884 -0.1161  2.4260
  164SOPE   C2418400   6.743   3.113  10.331  0.1020 -0.6858 -0.7747
  164SOPE   H4R18401   6.752   3.023  10.265 -2.6951  0.1643 -2.4031
  164SOPE   H4S18402   6.640   3.153  10.318  0.2731  0.0612  0.1379
  164SOPE   C2518403   6.859   3.198  10.279 -0.4773 -0.7381  0.1522
  164SOPE   H5R18404   6.855   3.299  10.324  0.6860  0.1560 -1.7171
  164SOPE   H5S18405   6.964   3.164  10.298  0.1286  0.8281 -0.3807
  164SOPE   C2618406   6.845   3.217  10.125 -0.2678  0.5283 -0.0684
  164SOPE   H6R18407   6.849   3.113  10.087  0.5890 -0.3888  2.4044
  164SOPE   H6S18408   6.747   3.262  10.099 -0.2802  0.3359 -0.3561
  164SOPE   C2718409   6.960   3.297  10.072 -0.2525 -0.0326  0.0149
  164SOPE   H7R18410   6.960   3.397  10.121  0.8105 -0.4233  0.8269
  164SOPE   H7S18411   7.060   3.264  10.110 -0.6932 -0.0426  1.1821
  164SOPE   C2818412   6.970   3.332   9.918 -0.2415  0.6405 -0.1649
  164SOPE   H8R18413   6.899   3.414   9.893 -0.7532 -0.0100 -0.8814
  164SOPE   H8S18414   7.071   3.374   9.898  0.5683 -1.0513  0.2447
  164SOPE   C2918415   6.946   3.212   9.831 -0.2802 -0.0871  0.3454
  164SOPE   H9118416   6.892   3.122   9.866 -0.0349 -0.4251 -0.1421
  164SOPE  C21018417   6.993   3.198   9.707 -0.1349  0.2997  0.7803
  164SOPE  H10118418   6.963   3.106   9.656 -2.2489  0.9343  0.8004
  164SOPE  C21118419   7.078   3.299   9.634  0.7344  0.1799  0.1848
  164SOPE  H11R18420   7.182   3.306   9.671 -0.3747  2.4246  3.0663
  164SOPE  H11S18421   7.042   3.404   9.636 -0.1511 -0.1315  1.1020
  164SOPE  C21218422   7.080   3.277   9.478 -0.4299  1.1242 -1.0052
  164SOPE  H12R18423   6.980   3.248   9.440 -0.6941  1.8429 -0.8716
  164SOPE  H12S18424   7.145   3.188   9.463  1.1773  1.8966  1.0490
  164SOPE  C21318425   7.129   3.390   9.393  0.5081 -0.3585  0.0822
  164SOPE  H13R18426   7.207   3.447   9.447  2.1269  0.1731 -2.6904
  164SOPE  H13S18427   7.044   3.461   9.385 -0.0546 -0.9064  1.0489
  164SOPE  C21418428   7.194   3.343   9.265  0.4151 -0.4379  0.3450
  164SOPE  H14R18429   7.137   3.262   9.215 -1.1437 -0.1238  1.5424
  164SOPE  H14S18430   7.284   3.284   9.292  1.9733  1.0721 -1.4838
  164SOPE  C21518431   7.233   3.458   9.170  0.0170 -0.1717 -0.1344
  164SOPE  H15R18432   7.326   3.511   9.199  0.3066 -1.0447  0.5246
  164SOPE  H15S18433   7.155   3.537   9.162 -0.2978 -0.1358  2.8193
  164SOPE  C21618434   7.275   3.403   9.028 -0.2602  0.7755 -0.2355
  164SOPE  H16R18435   7.335   3.312   9.050  0.8434  1.3532 -0.7934
  164SOPE  H16S18436   7.349   3.476   8.987 -1.0587  1.1864 -0.9449
  164SOPE  C21718437   7.153   3.375   8.933  0.4645  0.3711 -0.4234
  164SOPE  H17R18438   7.117   3.475   8.901  1.1900  1.0440  0.8085
  164SOPE  H17S18439   7.075   3.320   8.989 -0.9738  0.3884 -2.3800
  164SOPE  C21818440   7.199   3.297   8.811  0.3774 -0.2781  0.0619
  164SOPE  H18R18441   7.122   3.279   8.734 -0.0644  0.1807  0.3897
  164SOPE  H18S18442   7.232   3.195   8.842 -0.4014 -0.9424 -1.2799
  164SOPE  H18T18443   7.287   3.343   8.761  1.7835 -0.5946  2.1627
  164SOPE   C3318444   6.497   3.213   9.924 -0.0146 -0.0587  0.1903
  164SOPE   H3X18445   6.567   3.292   9.957 -1.3308  0.7751  1.0510
  164SOPE   H3Y18446   6.395   3.253   9.905 -0.7800 -0.3161  3.4010
  164SOPE   C3418447   6.552   3.154   9.789 -0.7169  0.4274  0.1416
  164SOPE   H4X18448   6.483   3.070   9.764 -0.7687  0.8309 -1.1213
  164SOPE   H4Y18449   6.656   3.115   9.800 -1.2023 -0.5750  1.2426
  164SOPE   C3518450   6.565   3.277   9.697 -0.3047  0.1043  1.2245
  164SOPE   H5X18451   6.640   3.351   9.734  1.0971 -0.0993 -1.0821
  164SOPE   H5Y18452   6.465   3.325   9.697 -1.4754 -2.2798  1.0613
  164SOPE   C3618453   6.614   3.251   9.550  0.0012  0.0762  0.2533
  164SOPE   H6X18454   6.564   3.153   9.530  0.7807 -0.2139 -0.2762
  164SOPE   H6Y18455   6.722   3.233   9.531  0.0959  0.7199  0.1604
  164SOPE   C3718456   6.573   3.359   9.447  1.1126 -0.8929 -0.4199
  164SOPE   H7X18457   6.626   3.456   9.460  0.0997 -0.2519 -0.9509
  164SOPE   H7Y18458   6.463   3.376   9.449  1.1799 -0.3460 -0.8672
  164SOPE   C3818459   6.601   3.318   9.306  0.2153 -0.3422  0.5066
  164SOPE   H8X18460   6.554   3.218   9.294  0.4730 -0.4901  0.7120
  164SOPE   H8Y18461   6.711   3.305   9.306  0.2519 -0.0003 -0.0208
  164SOPE   C3918462   6.552   3.422   9.207 -1.0376 -0.3230 -0.4791
  164SOPE   H9X18463   6.598   3.517   9.242  0.5055 -0.4971 -1.9345
  164SOPE   H9Y18464   6.442   3.427   9.218 -0.9604  0.5661 -0.0655
  164SOPE  C31018465   6.581   3.387   9.054  0.8793 -0.0786 -0.2077
  164SOPE  H10X18466   6.533   3.293   9.020 -0.5912  0.7237 -0.4146
  164SOPE  H10Y18467   6.688   3.363   9.035  1.1432  0.1501  0.9486
  164SOPE  C31118468   6.552   3.505   8.957 -0.0199 -0.5158  0.3274
  164SOPE  H11X18469   6.585   3.476   8.855 -0.0507 -0.7956  0.3962
  164SOPE  H11Y18470   6.600   3.592   9.006 -0.8486  0.6264 -0.8703
  164SOPE  C31218471   6.408   3.552   8.944  0.3179 -0.3430  0.1776
  164SOPE  H12X18472   6.404   3.642   8.879  0.6469 -1.0423 -0.8171
  164SOPE  H12Y18473   6.374   3.582   9.046 -0.2552 -1.0998  0.2084
  164SOPE  C31318474   6.308   3.448   8.884 -0.1827 -0.2991  0.1433
  164SOPE  H13X18475   6.298   3.364   8.956  1.0404  0.9108  1.7588
  164SOPE  H13Y18476   6.370   3.413   8.799 -0.3526  0.5646 -0.3448
  164SOPE  C31418477   6.174   3.506   8.837 -0.1990 -0.2744  0.1169
  164SOPE  H14X18478   6.123   3.563   8.918  4.0079 -0.3029  2.9511
  164SOPE  H14Y18479   6.102   3.425   8.812  1.4985 -1.6157 -0.5360
  164SOPE  C31518480   6.180   3.601   8.713  0.4345  0.0713 -0.1998
  164SOPE  H15X18481   6.198   3.540   8.622  0.4303  0.4497 -0.4538
  164SOPE  H15Y18482   6.252   3.682   8.740 -0.9900  0.8356  1.4054
  164SOPE  C31618483   6.051   3.680   8.685  0.2780 -0.1307  0.2744
  164SOPE  H16X18484   6.011   3.722   8.780 -0.8076  0.4064 -0.4001
  164SOPE  H16Y18485   5.963   3.621   8.649 -0.3713  0.7377  0.4347
  164SOPE  C31718486   6.079   3.789   8.580  0.8118 -0.0927 -0.5552
  164SOPE  H17X18487   6.100   3.755   8.476  0.9664 -1.2389 -0.1620
  164SOPE  H17Y18488   6.177   3.831   8.612 -0.1741  1.6017  0.2739
  164SOPE  C31818489   5.976   3.899   8.585  0.2002 -0.5642 -0.5170
  164SOPE  H18X18490   5.869   3.868   8.577 -0.7476  2.9071 -2.2891
  164SOPE  H18Y18491   5.997   3.965   8.498  1.4098 -2.4739 -1.6959
  164SOPE  H18Z18492   6.001   3.960   8.674  0.8808 -1.5722 -0.0223
  165SOPE     N18493   4.958   4.408  11.236 -0.0546  0.8345  0.6225
  165SOPE   HN118494   5.058   4.414  11.262  0.2044 -0.7937  0.0667
  165SOPE   HN218495   4.931   4.508  11.243 -1.4062  0.4117  1.5782
  165SOPE   HN318496   4.914   4.339  11.300 -0.1482 -1.0420 -1.3921
  165SOPE   C1218497   4.943   4.375  11.089 -0.3817  0.3846 -0.5346
  165SOPE  H12A18498   4.982   4.274  11.066  0.4579  0.7573 -0.7581
  165SOPE  H12B18499   4.998   4.455  11.035  1.4019  0.1091  0.8401
  165SOPE   C1118500   4.794   4.377  11.053 -0.2658 -0.3669  0.8694
  165SOPE  H11A18501   4.733   4.457  11.101  0.7379  0.3717  0.9176
  165SOPE  H11B18502   4.741   4.291  11.098  1.1926 -1.6163  0.2449
  165SOPE     P18503   4.742   4.504  10.834  0.0930  0.4352 -0.0806
  165SOPE   O1318504   4.865   4.586  10.834 -0.4462  0.4986 -0.0669
  165SOPE   O1418505   4.620   4.571  10.887  0.0086  0.7088  0.8622
  165SOPE   O1218506   4.770   4.374  10.911 -0.3997  0.4452 -0.3765
  165SOPE   O1118507   4.718   4.451  10.687 -0.6617 -0.6771 -0.0671
  165SOPE    C118508   4.803   4.360  10.623 -0.2314 -0.1332  0.2361
  165SOPE    HA18509   4.744   4.268  10.599  0.6990 -0.1785 -2.0394
  165SOPE    HB18510   4.877   4.321  10.696  1.0080 -1.0727 -1.4627
  165SOPE    C218511   4.867   4.411  10.494  0.1351  0.6999 -0.6932
  165SOPE    HS18512   4.907   4.512  10.517 -0.0188  0.4369  0.7291
  165SOPE   O2118513   4.768   4.411  10.385  0.0835 -0.5487  0.2541
  165SOPE   C2118514   4.771   4.521  10.307 -0.1287 -0.1573  0.3104
  165SOPE   O2218515   4.827   4.625  10.331  0.0505 -0.7553 -0.0039
  165SOPE   C2218516   4.685   4.505  10.187  0.3552 -0.6020  0.7386
  165SOPE   H2R18517   4.621   4.594  10.176  0.4472 -0.6553 -0.2259
  165SOPE   H2S18518   4.620   4.415  10.197 -1.0505  0.3371  0.0523
  165SOPE    C318519   4.984   4.321  10.457 -0.3461 -0.4955 -0.1670
  165SOPE    HX18520   4.963   4.212  10.449 -0.9987 -0.2344 -2.6068
  165SOPE    HY18521   5.051   4.331  10.544 -0.3878  0.8407 -0.2860
  165SOPE   O3118522   5.054   4.366  10.337 -0.6893 -0.7297 -0.0516
  165SOPE   C3118523   5.185   4.346  10.333 -0.5187  0.5597 -0.6472
  165SOPE   O3218524   5.245   4.288  10.422  0.3354 -0.4235 -0.3909
  165SOPE   C3218525   5.226   4.399  10.194 -0.1133  0.3465 -0.0379
  165SOPE   H2X18526   5.336   4.406  10.193 -0.0916  0.5222  1.6840
  165SOPE   H2Y18527   5.176   4.496  10.170 -1.3342 -0.0772  0.7274
  165SOPE   C2318528   4.778   4.492  10.062  0.3082  0.1071 -0.0903
  165SOPE   H3R18529   4.822   4.391  10.047 -2.1547 -0.9446 -0.4776
  165SOPE   H3S18530   4.863   4.562  10.068 -0.4289  1.0334 -0.3595
  165SOPE   C2418531   4.709   4.539   9.931 -0.1586 -0.4068 -0.0174
  165SOPE   H4R18532   4.612   4.485   9.927  0.3597 -1.3210 -0.4995
  165SOPE   H4S18533   4.695   4.648   9.942  1.5473 -0.0162 -1.5814
  165SOPE   C2518534   4.787   4.512   9.802  0.0715  0.2352  0.7163
  165SOPE   H5R18535   4.854   4.600   9.798 -1.5540  1.4597 -0.2455
  165SOPE   H5S18536   4.859   4.428   9.811  1.1198  1.2846  2.3407
  165SOPE   C2618537   4.699   4.518   9.672  0.6030  1.2425  0.1692
  165SOPE   H6R18538   4.631   4.431   9.660 -0.0903  2.0775 -2.1870
  165SOPE   H6S18539   4.644   4.614   9.669  0.2737  1.1023  1.4317
  165SOPE   C2718540   4.796   4.519   9.544 -0.2106  0.2984 -0.0312
  165SOPE   H7R18541   4.855   4.611   9.563  1.1587 -0.4401 -0.6418
  165SOPE   H7S18542   4.865   4.433   9.539 -0.0317  0.1605  3.4065
  165SOPE   C2818543   4.723   4.525   9.409 -0.5283  0.5143  0.2171
  165SOPE   H8R18544   4.673   4.426   9.408  0.2956  0.0438 -2.9693
  165SOPE   H8S18545   4.644   4.601   9.425  0.0187  0.9653  0.7726
  165SOPE   C2918546   4.801   4.573   9.290  0.0273  0.1915  0.0100
  165SOPE   H9118547   4.849   4.671   9.308  0.4919 -0.2425  1.2095
  165SOPE  C21018548   4.823   4.514   9.172  0.4938 -0.0193 -0.9293
  165SOPE  H10118549   4.878   4.579   9.101  0.6041  2.1437  1.0893
  165SOPE  C21118550   4.776   4.374   9.123 -0.1409 -0.5934 -1.1240
  165SOPE  H11R18551   4.752   4.314   9.213 -1.0779 -0.5892 -1.3715
  165SOPE  H11S18552   4.858   4.325   9.065 -0.0929 -0.6998 -0.9676
  165SOPE  C21218553   4.647   4.380   9.043 -0.0186 -0.0124  0.3515
  165SOPE  H12R18554   4.656   4.452   8.959  0.2069 -0.3021  0.1278
  165SOPE  H12S18555   4.563   4.424   9.102  0.9176  3.1100 -0.5125
  165SOPE  C21318556   4.612   4.237   9.000 -0.3334  0.4196  0.1863
  165SOPE  H13R18557   4.590   4.173   9.088 -1.1560 -0.0376 -0.3472
  165SOPE  H13S18558   4.708   4.191   8.966  0.4350  0.4014  2.2787
  165SOPE  C21418559   4.509   4.237   8.885  0.0513 -0.2527 -1.0368
  165SOPE  H14R18560   4.433   4.313   8.912  0.7545 -0.3646  1.4365
  165SOPE  H14S18561   4.461   4.137   8.872 -1.2395  0.2628 -0.3287
  165SOPE  C21518562   4.573   4.277   8.756  0.1247  0.2745 -0.0830
  165SOPE  H15R18563   4.635   4.189   8.729  1.6754  0.2616  3.2113
  165SOPE  H15S18564   4.647   4.360   8.764 -0.2035  0.5974 -0.4046
  165SOPE  C21618565   4.466   4.318   8.650 -0.1424  0.4171 -0.3185
  165SOPE  H16R18566   4.419   4.408   8.694 -0.6101 -1.3243  2.8501
  165SOPE  H16S18567   4.385   4.241   8.643 -2.2352  2.6467 -1.5504
  165SOPE  C21718568   4.534   4.336   8.511  0.1006  0.0548  0.7477
  165SOPE  H17R18569   4.598   4.245   8.505  0.5596  0.3328  1.3473
  165SOPE  H17S18570   4.600   4.425   8.518 -0.2646  0.4921 -1.1254
  165SOPE  C21818571   4.445   4.344   8.388 -0.7438  0.0716 -0.8760
  165SOPE  H18R18572   4.499   4.309   8.297  0.6859 -0.8661  0.3092
  165SOPE  H18S18573   4.430   4.452   8.366  1.5011  0.5107 -0.3240
  165SOPE  H18T18574   4.352   4.283   8.398  1.8272 -3.3854  4.0727
  165SOPE   C3318575   5.199   4.288  10.091 -0.1328 -0.0354 -0.0795
  165SOPE   H3X18576   5.098   4.242  10.105  0.2718 -1.4609 -1.6053
  165SOPE   H3Y18577   5.268   4.203  10.109 -1.9400 -1.3835  0.6520
  165SOPE   C3418578   5.196   4.341   9.949  0.3850  0.5328 -0.4581
  165SOPE   H4X18579   5.295   4.380   9.918  0.2183  1.0914 -0.2818
  165SOPE   H4Y18580   5.138   4.435   9.952  2.1919  1.7075 -1.5955
  165SOPE   C3518581   5.141   4.238   9.845 -0.3885 -0.3970  0.1299
  165SOPE   H5X18582   5.039   4.208   9.880 -1.0435  3.7493  2.0719
  165SOPE   H5Y18583   5.214   4.155   9.848  0.3723  0.2877  0.7101
  165SOPE   C3618584   5.138   4.283   9.701 -0.3926  0.1256 -0.0204
  165SOPE   H6X18585   5.239   4.311   9.665 -0.8186  2.7394  0.6998
  165SOPE   H6Y18586   5.082   4.379   9.692 -1.2445 -0.4469 -0.8809
  165SOPE   C3718587   5.082   4.191   9.598 -0.1812  0.7014 -0.0976
  165SOPE   H7X18588   4.972   4.183   9.606 -0.0508  0.2352  1.2999
  165SOPE   H7Y18589   5.135   4.094   9.598 -1.2118  0.1179  2.0439
  165SOPE   C3818590   5.110   4.247   9.453  0.7700  0.5822 -0.7762
  165SOPE   H8X18591   5.212   4.277   9.422  2.0343  0.5851  3.0982
  165SOPE   H8Y18592   5.048   4.338   9.440 -1.8176 -1.0464 -0.3636
  165SOPE   C3918593   5.054   4.147   9.352  0.5793  0.2032 -0.0773
  165SOPE   H9X18594   4.944   4.145   9.364  0.5049 -0.1246 -0.7872
  165SOPE   H9Y18595   5.092   4.047   9.383 -2.6314 -0.3971  2.0931
  165SOPE  C31018596   5.086   4.183   9.202 -0.1632 -0.9872 -0.6281
  165SOPE  H10X18597   5.195   4.196   9.185 -0.3688  0.7550 -0.7335
  165SOPE  H10Y18598   5.040   4.282   9.181  0.1679 -0.3758  1.3953
  165SOPE  C31118599   5.017   4.089   9.098  0.2820 -0.6530 -0.3015
  165SOPE  H11X18600   4.909   4.077   9.118  0.5655 -1.4026  0.8269
  165SOPE  H11Y18601   5.058   3.986   9.103 -1.2878 -1.3771 -1.8736
  165SOPE  C31218602   5.039   4.128   8.947  0.3497  0.3165  0.2627
  165SOPE  H12X18603   5.146   4.139   8.920  0.9530 -2.3048  1.4510
  165SOPE  H12Y18604   4.984   4.224   8.937 -0.1222  0.2803  2.2392
  165SOPE  C31318605   4.969   4.029   8.851 -0.6979  0.4705 -0.2951
  165SOPE  H13X18606   4.861   4.044   8.872 -0.3788  1.5711  0.6248
  165SOPE  H13Y18607   4.992   3.924   8.875  1.8582  1.3503  1.2865
  165SOPE  C31418608   4.994   4.057   8.708  0.0401 -0.4427  0.0186
  165SOPE  H14X18609   5.102   4.036   8.691  0.1185 -0.5533  0.6544
  165SOPE  H14Y18610   4.973   4.165   8.693 -3.2294 -1.1384 -0.6933
  165SOPE  C31518611   4.914   3.974   8.603  0.1886 -0.1513 -1.0598
  165SOPE  H15X18612   4.806   3.996   8.617  0.1896 -1.5382  1.3421
  165SOPE  H15Y18613   4.919   3.865   8.625 -0.3706  0.1485  0.6219
  165SOPE  C31618614   4.965   3.995   8.460  0.1883 -0.6844  0.0718
  165SOPE  H16X18615   4.984   4.102   8.438  0.1919 -1.0458 -1.7027
  165SOPE  H16Y18616   4.884   3.969   8.389 -0.4082 -1.4699  1.0218
  165SOPE  C31718617   5.087   3.913   8.438 -0.3560 -0.1884  0.1554
  165SOPE  H17X18618   5.070   3.804   8.429  2.0138 -0.4996 -1.0227
  165SOPE  H17Y18619   5.162   3.930   8.519  4.0121  1.2726 -3.9455
  165SOPE  C31818620   5.170   3.960   8.313 -0.2646  0.5061 -0.0331
  165SOPE  H18X18621   5.111   3.939   8.221  2.2273 -1.0954 -1.3289
  165SOPE  H18Y18622   5.261   3.899   8.294 -0.6582 -0.3390  0.7832
  165SOPE  H18Z18623   5.186   4.070   8.319 -0.1574  0.6127 -1.8834
  166SOPE     N18624   1.917   4.278  10.990  0.4303  0.2387  0.0749
  166SOPE   HN118625   1.894   4.192  10.937 -0.2361  0.9190 -0.7646
  166SOPE   HN218626   2.018   4.284  11.014  0.0033 -0.1282  2.0898
  166SOPE   HN318627   1.864   4.283  11.080 -1.0988 -0.0183 -0.7950
  166SOPE   C1218628   1.888   4.397  10.908  0.3703  0.2548  0.2725
  166SOPE  H12A18629   1.920   4.373  10.804  0.3317 -0.5667  0.4519
  166SOPE  H12B18630   1.958   4.478  10.940  1.7453 -0.3739 -1.0853
  166SOPE   C1118631   1.743   4.432  10.921 -0.1024  0.1579  0.0844
  166SOPE  H11A18632   1.730   4.533  10.876  1.3016 -0.1396 -1.0001
  166SOPE  H11B18633   1.724   4.439  11.030  0.3755 -0.8265  0.2314
  166SOPE     P18634   1.509   4.324  10.854  0.0270  0.0967  0.4357
  166SOPE   O1318635   1.450   4.452  10.891 -0.1726 -0.0412  0.4120
  166SOPE   O1418636   1.471   4.214  10.941  0.2816 -0.1013  0.0900
  166SOPE   O1218637   1.670   4.328  10.853 -0.2120  0.6015  0.3024
  166SOPE   O1118638   1.469   4.283  10.703 -0.4884 -0.2219 -0.5705
  166SOPE    C118639   1.544   4.187  10.634  0.0697 -0.0999 -0.7181
  166SOPE    HA18640   1.505   4.084  10.651  1.6147 -0.7628 -1.0267
  166SOPE    HB18641   1.651   4.184  10.665 -0.2689 -3.2217  0.3570
  166SOPE    C218642   1.537   4.212  10.475 -0.3334  0.0841  0.0143
  166SOPE    HS18643   1.582   4.135  10.410 -3.0107 -2.8104  1.4543
  166SOPE   O2118644   1.578   4.342  10.442  0.0686 -0.2891 -0.3965
  166SOPE   C2118645   1.708   4.363  10.451  0.3836  0.0624  0.3259
  166SOPE   O2218646   1.791   4.277  10.476 -0.1597 -0.6061 -0.2499
  166SOPE   C2218647   1.733   4.504  10.403  0.8401  0.2287  0.0890
  166SOPE   H2R18648   1.721   4.567  10.494  1.1683 -0.6943  0.7834
  166SOPE   H2S18649   1.651   4.527  10.331  0.6500 -0.7352 -0.0099
  166SOPE    C318650   1.384   4.200  10.429  0.2892  0.0741 -0.1750
  166SOPE    HX18651   1.334   4.271  10.498  1.8265 -1.0920  2.2297
  166SOPE    HY18652   1.350   4.098  10.458 -1.8524  0.6407 -0.6827
  166SOPE   O3118653   1.369   4.221  10.293  0.0496  0.3273 -0.2658
  166SOPE   C3118654   1.346   4.348  10.254 -0.2749 -0.6458 -0.3099
  166SOPE   O3218655   1.308   4.439  10.327 -0.6877  0.5374  0.8720
  166SOPE   C3218656   1.365   4.365  10.102 -0.6571 -1.0314 -0.3975
  166SOPE   H2X18657   1.291   4.440  10.068  1.4226  1.5122  0.4928
  166SOPE   H2Y18658   1.342   4.271  10.048  0.7900 -0.9981 -1.1060
  166SOPE   C2318659   1.866   4.535  10.339 -0.2193 -0.0294  0.1140
  166SOPE   H3R18660   1.958   4.513  10.398 -0.4916 -1.0853  0.1503
  166SOPE   H3S18661   1.876   4.645  10.329 -0.5416  0.4434  4.1305
  166SOPE   C2418662   1.883   4.474  10.199  0.3016  0.1137 -0.4583
  166SOPE   H4R18663   1.870   4.365  10.215 -1.6088  0.6173  1.5104
  166SOPE   H4S18664   1.806   4.514  10.130  0.9987 -0.6514 -1.7063
  166SOPE   C2518665   2.022   4.498  10.141  0.4627  1.0009  0.0002
  166SOPE   H5R18666   2.039   4.608  10.136 -1.3626  1.2635 -0.6802
  166SOPE   H5S18667   2.103   4.462  10.209  0.2616 -1.2295 -0.9025
  166SOPE   C2618668   2.046   4.434  10.003 -0.9500 -0.4994 -0.0399
  166SOPE   H6R18669   2.043   4.323   9.996 -0.7742 -0.3543 -3.0191
  166SOPE   H6S18670   1.982   4.484   9.927 -0.4763  0.0163 -0.1029
  166SOPE   C2718671   2.196   4.461   9.968 -0.6586  0.0688  0.0713
  166SOPE   H7R18672   2.221   4.565   9.937  0.3635 -0.4267 -0.8174
  166SOPE   H7S18673   2.250   4.447  10.063  1.0149 -1.7571 -1.1055
  166SOPE   C2818674   2.261   4.368   9.864 -0.0255 -0.0085 -0.6940
  166SOPE   H8R18675   2.234   4.262   9.882  0.5586 -0.3979 -2.0695
  166SOPE   H8S18676   2.219   4.400   9.766 -0.4930 -0.2679 -0.5766
  166SOPE   C2918677   2.413   4.393   9.866  0.4669  0.1935 -0.5656
  166SOPE   H9118678   2.464   4.349   9.952  2.1094  1.1250 -1.0286
  166SOPE  C21018679   2.488   4.449   9.768 -1.3726 -0.1829  0.2063
  166SOPE  H10118680   2.596   4.471   9.775 -0.8801 -2.5829  0.5366
  166SOPE  C21118681   2.441   4.511   9.642  0.2022  0.3459 -0.1950
  166SOPE  H11R18682   2.410   4.618   9.647 -0.7754  0.0336  0.5721
  166SOPE  H11S18683   2.344   4.467   9.608 -1.4039  0.9328  3.4383
  166SOPE  C21218684   2.538   4.491   9.525 -0.8143 -0.4013 -0.2790
  166SOPE  H12R18685   2.584   4.390   9.532 -0.3878 -0.1375  0.7446
  166SOPE  H12S18686   2.625   4.561   9.524 -0.4126 -0.8929 -2.6646
  166SOPE  C21318687   2.477   4.506   9.383  0.1834 -0.6756  0.6256
  166SOPE  H13R18688   2.419   4.601   9.379  0.2452 -0.6774 -0.5825
  166SOPE  H13S18689   2.391   4.437   9.372 -1.0327  0.9346 -0.1356
  166SOPE  C21418690   2.596   4.502   9.279  0.1567 -0.6302 -0.7282
  166SOPE  H14R18691   2.645   4.404   9.298  1.0986 -0.4827 -2.2901
  166SOPE  H14S18692   2.662   4.587   9.305 -0.2466  0.2467 -2.4816
  166SOPE  C21518693   2.552   4.514   9.134  0.3814  0.0969  0.3010
  166SOPE  H15R18694   2.476   4.595   9.141 -0.8321 -1.0307  0.4585
  166SOPE  H15S18695   2.512   4.419   9.093 -0.3812 -0.2180  1.7830
  166SOPE  C21618696   2.662   4.561   9.036  0.1097 -0.0702 -0.1923
  166SOPE  H16R18697   2.739   4.480   9.037  0.1172 -0.0874  2.6795
  166SOPE  H16S18698   2.704   4.658   9.071 -0.8134  0.0366  0.6579
  166SOPE  C21718699   2.625   4.574   8.882 -0.3323  0.1680  0.0387
  166SOPE  H17R18700   2.559   4.661   8.863 -1.5059 -0.3720  1.5123
  166SOPE  H17S18701   2.565   4.482   8.862  0.8325 -0.2918 -1.3786
  166SOPE  C21818702   2.749   4.575   8.785 -0.2972  0.1115  0.2009
  166SOPE  H18R18703   2.830   4.635   8.831 -0.8559  0.8453  0.2341
  166SOPE  H18S18704   2.724   4.616   8.685 -0.3335  1.2344  0.6679
  166SOPE  H18T18705   2.789   4.472   8.774 -2.1952 -0.6345  0.0982
  166SOPE   C3318706   1.517   4.392  10.053 -0.8530  0.4692 -0.0421
  166SOPE   H3X18707   1.564   4.421  10.150  1.6611  0.6776 -1.2707
  166SOPE   H3Y18708   1.512   4.477   9.983 -0.1363  1.2631  0.8530
  166SOPE   C3418709   1.570   4.266   9.986 -0.2437  0.2403  0.0392
  166SOPE   H4X18710   1.498   4.232   9.909  0.2447 -2.5849  0.7841
  166SOPE   H4Y18711   1.568   4.194  10.070 -0.5509  0.9487  0.6426
  166SOPE   C3518712   1.710   4.285   9.926  0.3448  0.6544 -0.1296
  166SOPE   H5X18713   1.792   4.285  10.001  0.1117  2.0239  0.1415
  166SOPE   H5Y18714   1.715   4.383   9.873 -0.6689 -0.3566 -2.1426
  166SOPE   C3618715   1.745   4.184   9.826 -0.4678  0.0620  0.3759
  166SOPE   H6X18716   1.674   4.185   9.741  0.2987 -2.2245 -0.3482
  166SOPE   H6Y18717   1.742   4.084   9.875  1.2843 -0.3057 -0.2289
  166SOPE   C3718718   1.880   4.213   9.764 -0.0133  0.0544 -0.5649
  166SOPE   H7X18719   1.958   4.217   9.843 -0.0218  3.2808 -0.6505
  166SOPE   H7Y18720   1.872   4.311   9.712  0.3651 -0.0466 -0.8121
  166SOPE   C3818721   1.911   4.102   9.671  0.0105  0.2403  0.3109
  166SOPE   H8X18722   1.827   4.109   9.599  1.6127 -3.0655 -2.0480
  166SOPE   H8Y18723   1.905   4.005   9.725 -1.0058  0.9488  1.4879
  166SOPE   C3918724   2.055   4.112   9.614 -0.8564  0.4478 -1.1153
  166SOPE   H9X18725   2.120   4.126   9.702 -0.5285  0.1760 -1.3097
  166SOPE   H9Y18726   2.070   4.204   9.554  0.7096  0.5573 -0.5545
  166SOPE  C31018727   2.119   3.992   9.544  0.2416  0.4353  0.0135
  166SOPE  H10X18728   2.087   3.901   9.599  2.7631  0.5758  1.8054
  166SOPE  H10Y18729   2.230   4.005   9.550  0.0465  2.2626 -0.0048
  166SOPE  C31118730   2.079   3.992   9.402  0.5841 -0.2019 -0.0026
  166SOPE  H11X18731   2.098   4.095   9.364  0.9937  0.1732  1.1920
  166SOPE  H11Y18732   1.968   3.986   9.403  0.5190  1.0048  1.0328
  166SOPE  C31218733   2.117   3.871   9.315  0.6048 -0.2077  1.0742
  166SOPE  H12X18734   2.100   3.776   9.369 -1.0665  0.9933  2.7227
  166SOPE  H12Y18735   2.225   3.855   9.293  0.3332 -0.0247 -0.4582
  166SOPE  C31318736   2.045   3.881   9.178 -0.3027  0.6562  0.1015
  166SOPE  H13X18737   2.082   3.978   9.139 -0.2865  0.4590 -0.3835
  166SOPE  H13Y18738   1.934   3.869   9.182 -0.3665  0.8692 -0.9499
  166SOPE  C31418739   2.096   3.759   9.093  0.2000 -0.3682 -0.6480
  166SOPE  H14X18740   2.022   3.737   9.013 -2.3487 -1.1939  1.8777
  166SOPE  H14Y18741   2.107   3.662   9.146 -0.1535 -2.5352 -4.3892
  166SOPE  C31518742   2.236   3.778   9.026 -0.4841 -0.0289  0.1551
  166SOPE  H15X18743   2.315   3.780   9.105 -0.2042  0.6581 -0.1436
  166SOPE  H15Y18744   2.234   3.869   8.963 -0.2261  0.1414  0.3891
  166SOPE  C31618745   2.288   3.664   8.934  0.2434 -0.2611 -0.0817
  166SOPE  H16X18746   2.225   3.660   8.843  0.1043  0.0446  0.0008
  166SOPE  H16Y18747   2.296   3.566   8.985 -2.0681 -0.3624  0.1428
  166SOPE  C31718748   2.433   3.686   8.891 -0.2044  0.0563 -0.0276
  166SOPE  H17X18749   2.500   3.681   8.979  0.2071  3.7258 -0.0837
  166SOPE  H17Y18750   2.434   3.793   8.864 -2.0394 -0.0270 -0.4393
  166SOPE  C31818751   2.478   3.588   8.772 -0.0121  0.0755 -0.0803
  166SOPE  H18X18752   2.436   3.624   8.676 -1.3094  0.9444  0.7807
  166SOPE  H18Y18753   2.451   3.481   8.786 -0.6369  0.0363 -1.5205
  166SOPE  H18Z18754   2.589   3.593   8.765  0.3947 -4.6096  1.2910
  167SOPE     N18755   2.647   2.850   6.158  0.7731 -0.5001 -0.3684
  167SOPE   HN118756   2.572   2.907   6.202  1.3422  0.8068 -1.0654
  167SOPE   HN218757   2.668   2.899   6.069  1.2732  0.7306  0.4154
  167SOPE   HN318758   2.602   2.758   6.139  2.5397 -1.1703 -1.4244
  167SOPE   C1218759   2.768   2.855   6.243 -0.8516 -0.7002 -0.6738
  167SOPE  H12A18760   2.842   2.794   6.188  1.3036 -0.0206  1.3842
  167SOPE  H12B18761   2.732   2.813   6.340 -0.5383  1.3693  0.3651
  167SOPE   C1118762   2.811   2.992   6.257 -1.1510  0.4662 -0.3093
  167SOPE  H11A18763   2.887   2.993   6.337 -1.0461 -2.9618 -0.3220
  167SOPE  H11B18764   2.733   3.065   6.289 -1.3122  0.4473 -0.6509
  167SOPE     P18765   3.014   3.123   6.136 -0.1645  0.0039  0.1269
  167SOPE   O1318766   2.977   3.265   6.096 -0.3924 -0.0870 -0.3967
  167SOPE   O1418767   3.110   3.048   6.047  0.2404  0.7413 -0.7840
  167SOPE   O1218768   2.875   3.048   6.135  0.7542 -0.5514 -0.1454
  167SOPE   O1118769   3.059   3.124   6.279 -0.6597  0.4710 -1.0928
  167SOPE    C118770   3.197   3.107   6.315  0.2178 -0.4793 -0.7612
  167SOPE    HA18771   3.188   3.132   6.423  0.4874 -1.3773 -0.5244
  167SOPE    HB18772   3.259   3.183   6.263 -1.1811 -1.6515 -4.2253
  167SOPE    C218773   3.258   2.966   6.302  0.2698 -0.7657 -0.7906
  167SOPE    HS18774   3.267   2.946   6.193  0.1258 -1.1760 -0.7275
  167SOPE   O2118775   3.167   2.868   6.357  0.7860  0.1542  0.1262
  167SOPE   C2118776   3.204   2.745   6.325 -0.4826  0.2567  0.4353
  167SOPE   O2218777   3.284   2.708   6.234  0.2197 -0.3077 -0.1217
  167SOPE   C2218778   3.131   2.637   6.408 -0.5827  0.1702 -0.0627
  167SOPE   H2R18779   3.184   2.540   6.403 -1.1183 -0.1208 -0.1870
  167SOPE   H2S18780   3.031   2.632   6.359 -1.6777 -0.3990  2.1847
  167SOPE    C318781   3.402   2.969   6.360  0.2049  0.3093  0.0488
  167SOPE    HX18782   3.455   3.051   6.307 -0.2633  0.5811  0.0024
  167SOPE    HY18783   3.460   2.882   6.324 -0.7438  0.3738 -1.6726
  167SOPE   O3118784   3.409   2.978   6.506 -0.1259  0.1267 -0.6885
  167SOPE   C3118785   3.446   3.094   6.556  0.2394  0.0572  0.1255
  167SOPE   O3218786   3.468   3.197   6.488  0.6026 -0.3355  0.0964
  167SOPE   C3218787   3.447   3.100   6.714 -0.7917  0.3507  0.8870
  167SOPE   H2X18788   3.363   3.170   6.739 -2.3817 -1.3219  0.3201
  167SOPE   H2Y18789   3.543   3.145   6.746 -0.0055 -0.1351 -0.7867
  167SOPE   C2318790   3.112   2.665   6.562 -0.0668 -0.0634 -0.3363
  167SOPE   H3R18791   3.055   2.759   6.577 -0.3026  0.1210 -2.2522
  167SOPE   H3S18792   3.217   2.673   6.598 -0.3526 -0.3766  0.5845
  167SOPE   C2418793   3.049   2.562   6.657 -0.4231  0.3718 -0.1784
  167SOPE   H4R18794   2.956   2.533   6.604 -2.5988  3.1577  1.9331
  167SOPE   H4S18795   3.113   2.472   6.663  0.1037  0.8482  1.9558
  167SOPE   C2518796   3.029   2.613   6.803 -0.1961 -0.5800 -0.0669
  167SOPE   H5R18797   2.976   2.530   6.854 -0.3542  1.3123  2.9855
  167SOPE   H5S18798   3.128   2.619   6.852 -0.2985  2.7959 -0.1079
  167SOPE   C2618799   2.951   2.746   6.829  0.2279  0.4236  0.0995
  167SOPE   H6R18800   3.007   2.815   6.763  1.8760 -0.5827  0.4255
  167SOPE   H6S18801   2.842   2.731   6.812  0.1309 -0.0427  1.1172
  167SOPE   C2718802   2.968   2.796   6.980 -0.3236 -0.3875  0.3145
  167SOPE   H7R18803   2.917   2.715   7.037 -0.4524 -0.2563  0.3871
  167SOPE   H7S18804   3.076   2.798   7.006 -0.2988 -0.5872  0.2216
  167SOPE   C2818805   2.910   2.931   7.018 -0.4008  0.2055  0.3519
  167SOPE   H8R18806   2.800   2.927   7.000 -0.2855  1.1371 -0.6335
  167SOPE   H8S18807   2.926   2.963   7.123 -1.8130  0.9453  0.3503
  167SOPE   C2918808   2.969   3.039   6.924  0.5832  0.7826 -0.0546
  167SOPE   H9118809   2.975   3.015   6.817  0.0240  0.5337 -0.0315
  167SOPE  C21018810   3.018   3.158   6.963  0.5300  0.0848 -0.0929
  167SOPE  H10118811   3.052   3.226   6.884 -0.1278 -1.5877 -1.8495
  167SOPE  C21118812   3.013   3.215   7.099 -0.0402  0.6299  0.2049
  167SOPE  H11R18813   2.946   3.169   7.174  0.6055 -0.8498 -0.1109
  167SOPE  H11S18814   2.994   3.324   7.088  0.7626  0.5764 -2.0043
  167SOPE  C21218815   3.145   3.198   7.174 -0.6077  0.0115  0.3503
  167SOPE  H12R18816   3.226   3.246   7.115 -0.5810 -2.5166 -1.7135
  167SOPE  H12S18817   3.179   3.093   7.179 -0.5389 -0.1247 -2.1675
  167SOPE  C21318818   3.151   3.253   7.322  0.0097 -0.2360  0.4611
  167SOPE  H13R18819   3.090   3.199   7.398  0.8132 -0.9299  0.6211
  167SOPE  H13S18820   3.121   3.360   7.321  1.7403  0.2784  1.4966
  167SOPE  C21418821   3.290   3.258   7.389  1.0655 -0.3024  0.7604
  167SOPE  H14R18822   3.359   3.315   7.324  0.1892  0.3801  0.4059
  167SOPE  H14S18823   3.338   3.158   7.378  1.0929 -0.3356  1.1840
  167SOPE  C21518824   3.293   3.304   7.537  0.4840  0.5082  0.6999
  167SOPE  H15R18825   3.202   3.284   7.597  0.3360 -0.8250  0.0558
  167SOPE  H15S18826   3.313   3.413   7.534 -1.5271  0.8616 -2.9074
  167SOPE  C21618827   3.396   3.229   7.613 -0.8457 -1.0061 -0.5981
  167SOPE  H16R18828   3.495   3.237   7.562  0.0720 -2.7400  0.8528
  167SOPE  H16S18829   3.358   3.125   7.606 -0.4595 -1.3050  1.3861
  167SOPE  C21718830   3.413   3.273   7.764 -0.0788  0.0676  0.6078
  167SOPE  H17R18831   3.448   3.180   7.814 -1.8700  0.0358  1.8480
  167SOPE  H17S18832   3.312   3.288   7.809 -0.6216 -0.0933 -0.5288
  167SOPE  C21818833   3.505   3.392   7.796 -0.2220 -0.0761 -0.2581
  167SOPE  H18R18834   3.596   3.365   7.738  0.7636  2.2927  0.1182
  167SOPE  H18S18835   3.532   3.421   7.900  0.8755  1.9708 -1.0919
  167SOPE  H18T18836   3.453   3.481   7.756  2.2416  1.5862  0.0896
  167SOPE   C3318837   3.412   2.968   6.786  0.0926 -0.0334 -0.3932
  167SOPE   H3X18838   3.482   2.885   6.766 -3.4705 -3.6430  1.3197
  167SOPE   H3Y18839   3.315   2.930   6.748  1.5578 -2.9559 -1.3604
  167SOPE   C3418840   3.405   2.983   6.940  0.0496 -0.1473  0.3950
  167SOPE   H4X18841   3.380   2.884   6.982 -0.1380 -0.7077 -1.0197
  167SOPE   H4Y18842   3.311   3.042   6.947  0.6169  0.7168  0.9134
  167SOPE   C3518843   3.523   3.039   7.015  0.0116 -0.1227 -0.9951
  167SOPE   H5X18844   3.540   3.144   6.984 -0.2194 -0.0181 -0.7715
  167SOPE   H5Y18845   3.616   2.990   6.981  0.6200  0.7427 -0.5759
  167SOPE   C3618846   3.529   3.000   7.162 -0.1513  0.5171 -0.7924
  167SOPE   H6X18847   3.567   2.896   7.161 -1.3659  0.0421  0.9872
  167SOPE   H6Y18848   3.430   2.998   7.211  1.0355  2.1485  1.7661
  167SOPE   C3718849   3.621   3.101   7.239  0.0466  0.0156  0.1412
  167SOPE   H7X18850   3.565   3.196   7.259  0.2134 -0.0314  0.8454
  167SOPE   H7Y18851   3.707   3.133   7.178  0.7550  1.7373  1.9561
  167SOPE   C3818852   3.671   3.045   7.371 -0.1266  0.0355  0.0792
  167SOPE   H8X18853   3.715   2.945   7.351 -0.0676  0.3552 -1.4350
  167SOPE   H8Y18854   3.581   3.023   7.433 -0.5879  0.7325 -0.3277
  167SOPE   C3918855   3.776   3.138   7.428 -0.0337  0.9487 -0.9235
  167SOPE   H9X18856   3.736   3.237   7.459  0.6531  1.2442 -0.9721
  167SOPE   H9Y18857   3.856   3.169   7.358 -0.5159  1.4526 -1.2620
  167SOPE  C31018858   3.846   3.066   7.550 -0.8896  0.6657 -0.6276
  167SOPE  H10X18859   3.944   3.116   7.567 -0.3203 -0.5841 -0.1070
  167SOPE  H10Y18860   3.872   2.961   7.523  0.9414  0.3214  2.2545
  167SOPE  C31118861   3.754   3.056   7.673 -0.0828  0.1080 -0.4321
  167SOPE  H11X18862   3.654   3.011   7.653 -1.1552  1.1980  2.2850
  167SOPE  H11Y18863   3.708   3.152   7.702  1.2688  0.3517  0.9626
  167SOPE  C31218864   3.821   2.978   7.790 -0.0687  0.0329  0.1370
  167SOPE  H12X18865   3.862   2.886   7.744  0.3033 -1.0472  2.5732
  167SOPE  H12Y18866   3.729   2.946   7.843  0.1259  1.5558  1.4258
  167SOPE  C31318867   3.912   3.053   7.881 -0.5317 -0.0187 -0.1906
  167SOPE  H13X18868   4.009   3.058   7.827  0.8828  1.7403  2.4271
  167SOPE  H13Y18869   3.940   2.990   7.968  0.5867  1.1637  0.3258
  167SOPE  C31418870   3.866   3.191   7.919  0.2362 -0.8135  0.4853
  167SOPE  H14X18871   3.878   3.259   7.832  3.7433 -0.0024  1.5230
  167SOPE  H14Y18872   3.936   3.234   7.994 -1.5772  1.9435  0.6739
  167SOPE  C31518873   3.726   3.188   7.983 -0.1752 -0.9262  0.1839
  167SOPE  H15X18874   3.641   3.174   7.913  0.0784  1.3769 -0.6611
  167SOPE  H15Y18875   3.726   3.289   8.030 -1.2742 -0.8511  0.0355
  167SOPE  C31618876   3.708   3.099   8.106 -0.3396 -0.2319  1.0742
  167SOPE  H16X18877   3.798   3.109   8.170 -1.2221 -0.8939  2.4285
  167SOPE  H16Y18878   3.708   2.991   8.083  0.9765 -0.0685  0.2862
  167SOPE  C31718879   3.577   3.144   8.187 -0.0036 -0.0729  0.4463
  167SOPE  H17X18880   3.496   3.143   8.111  1.0241 -1.6629 -0.6718
  167SOPE  H17Y18881   3.584   3.250   8.219  1.3586  0.4496 -1.5710
  167SOPE  C31818882   3.547   3.048   8.311 -0.2762 -0.1858  0.1396
  167SOPE  H18X18883   3.642   3.032   8.367  1.9748  0.7015 -3.3029
  167SOPE  H18Y18884   3.516   2.952   8.263  0.5722 -0.1710 -0.4530
  167SOPE  H18Z18885   3.472   3.090   8.381  1.6267 -1.2596  2.9529
  168SOPE     N18886   2.750   6.019   6.515 -0.3452  0.3561  0.7899
  168SOPE   HN118887   2.704   5.937   6.561 -0.6000 -0.3502 -0.6784
  168SOPE   HN218888   2.832   5.985   6.461 -2.3228  0.2526 -2.2922
  168SOPE   HN318889   2.777   6.079   6.596  1.2854 -2.2838  2.2998
  168SOPE   C1218890   2.649   6.093   6.434 -0.1881 -0.0729  0.6224
  168SOPE  H12A18891   2.556   6.104   6.493 -0.2977  0.3788  0.3689
  168SOPE  H12B18892   2.627   6.041   6.338  0.0708  0.4804  0.2551
  168SOPE   C1118893   2.715   6.222   6.390  0.3010 -0.4568 -0.0784
  168SOPE  H11A18894   2.636   6.268   6.326  0.5273 -1.4752 -1.1192
  168SOPE  H11B18895   2.788   6.197   6.310 -3.3641 -1.7312 -3.2134
  168SOPE     P18896   2.781   6.459   6.466 -0.5705 -0.3656  0.3560
  168SOPE   O1318897   2.654   6.530   6.462 -0.1119 -0.1009 -0.5844
  168SOPE   O1418898   2.868   6.468   6.348  0.5256 -0.0476  0.0505
  168SOPE   O1218899   2.758   6.305   6.494 -0.6404  0.0739 -0.4296
  168SOPE   O1118900   2.873   6.506   6.590 -0.8007 -0.5977 -0.3382
  168SOPE    C118901   2.812   6.584   6.691 -0.6857 -0.1998 -0.5206
  168SOPE    HA18902   2.752   6.522   6.761 -1.2800 -0.2095 -1.0379
  168SOPE    HB18903   2.739   6.653   6.644  1.6540  2.0734 -0.9425
  168SOPE    C218904   2.910   6.669   6.771 -0.1999 -0.2584  0.8514
  168SOPE    HS18905   2.970   6.733   6.702  0.5034 -3.2672 -1.3871
  168SOPE   O2118906   2.991   6.577   6.842 -0.0310 -0.0838 -0.2462
  168SOPE   C2118907   3.104   6.624   6.877  0.0131 -0.0472  0.1544
  168SOPE   O2218908   3.152   6.736   6.857 -0.6612  0.7432  0.4275
  168SOPE   C2218909   3.178   6.522   6.958 -0.2302  0.6474  0.1935
  168SOPE   H2R18910   3.266   6.572   7.003 -1.0557 -1.0228  3.8373
  168SOPE   H2S18911   3.216   6.442   6.891  1.5968 -0.9816  3.1056
  168SOPE    C318912   2.829   6.773   6.861 -0.2628  0.1505 -0.1917
  168SOPE    HX18913   2.760   6.704   6.915 -0.7918 -1.0753 -2.3578
  168SOPE    HY18914   2.762   6.830   6.793  0.0511  0.3810 -0.3085
  168SOPE   O3118915   2.904   6.842   6.966 -0.3451 -0.2256  0.1270
  168SOPE   C3118916   2.965   6.953   6.913  0.0015 -0.6698  0.0658
  168SOPE   O3218917   2.956   6.996   6.793  0.1562  0.2141  0.2360
  168SOPE   C3218918   3.060   7.007   7.006  0.1771  0.5236  0.1163
  168SOPE   H2X18919   3.152   7.030   6.948  0.4845  1.3546  0.9048
  168SOPE   H2Y18920   3.092   6.933   7.082 -2.4306 -0.0423  0.7016
  168SOPE   C2318921   3.097   6.459   7.076  0.1097 -0.7298 -0.6331
  168SOPE   H3R18922   3.153   6.371   7.114  0.4762 -0.8556 -1.4672
  168SOPE   H3S18923   3.005   6.419   7.028  0.1151 -3.1279  1.2634
  168SOPE   C2418924   3.086   6.553   7.206  0.7488  0.0830  0.4574
  168SOPE   H4R18925   3.187   6.595   7.224  1.0713  1.1164 -3.2379
  168SOPE   H4S18926   3.018   6.641   7.197  1.7120  1.2597  3.8486
  168SOPE   C2518927   3.038   6.486   7.330  1.0320 -0.1439  0.4389
  168SOPE   H5R18928   2.929   6.470   7.313  1.0385 -1.0192  1.1730
  168SOPE   H5S18929   3.075   6.381   7.333  0.7103 -0.2419  1.3324
  168SOPE   C2618930   3.066   6.565   7.461 -0.0639 -0.2803 -0.5085
  168SOPE   H6R18931   3.171   6.590   7.487 -0.2102 -0.1036 -0.0739
  168SOPE   H6S18932   3.015   6.663   7.450 -0.9904 -0.2790  2.9896
  168SOPE   C2718933   3.007   6.489   7.588 -0.0315  0.0334  0.1953
  168SOPE   H7R18934   2.921   6.430   7.551 -0.0563  0.9297 -1.2222
  168SOPE   H7S18935   3.083   6.413   7.617  2.4102  2.2141 -0.3416
  168SOPE   C2818936   2.964   6.568   7.709 -0.1473 -0.3264  0.5977
  168SOPE   H8R18937   2.900   6.652   7.674  0.3352 -0.3254 -0.3127
  168SOPE   H8S18938   2.910   6.495   7.772  0.2322 -0.4420  0.7927
  168SOPE   C2918939   3.078   6.633   7.798 -0.3353 -0.2077 -0.1762
  168SOPE   H9118940   3.133   6.715   7.748 -1.0555  0.1465 -0.4047
  168SOPE  C21018941   3.108   6.608   7.927  0.5758  0.5231 -0.4706
  168SOPE  H10118942   3.201   6.645   7.972 -0.3627 -1.5877  3.4247
  168SOPE  C21118943   3.040   6.505   8.017  0.0322  0.1399  0.6531
  168SOPE  H11R18944   3.039   6.404   7.969 -2.1566  1.3770 -2.0930
  168SOPE  H11S18945   2.935   6.539   8.029 -0.3224  0.6749 -3.1882
  168SOPE  C21218946   3.082   6.486   8.169 -0.3752  0.1026  0.3364
  168SOPE  H12R18947   3.110   6.590   8.198  2.0694 -0.5397  0.3358
  168SOPE  H12S18948   3.175   6.431   8.195  1.6471  2.1790 -2.0939
  168SOPE  C21318949   2.960   6.459   8.266 -0.3885  1.1371 -0.1710
  168SOPE  H13R18950   2.930   6.357   8.237 -2.5073  1.4690  0.7758
  168SOPE  H13S18951   2.871   6.520   8.238 -1.0378  0.3891  0.2650
  168SOPE  C21418952   2.994   6.452   8.418 -0.2804  0.3363 -0.2242
  168SOPE  H14R18953   3.080   6.384   8.439  1.1231  2.2951  0.5399
  168SOPE  H14S18954   2.915   6.408   8.483  2.5625  0.1472  3.3063
  168SOPE  C21518955   3.012   6.593   8.494 -0.0270 -0.2051  0.0729
  168SOPE  H15R18956   2.963   6.669   8.431 -1.1812  1.5789  3.0000
  168SOPE  H15S18957   3.121   6.612   8.487 -0.2294  1.8777  1.9092
  168SOPE  C21618958   2.974   6.600   8.641  0.1581 -0.0773  0.3022
  168SOPE  H16R18959   3.039   6.530   8.698  1.0040 -0.1904 -0.7995
  168SOPE  H16S18960   2.867   6.578   8.662  0.2564 -0.2681  0.6023
  168SOPE  C21718961   3.020   6.733   8.696 -0.0509  0.4588 -0.1252
  168SOPE  H17R18962   2.982   6.815   8.631 -1.5019 -0.3000 -0.2434
  168SOPE  H17S18963   3.131   6.729   8.695 -0.0317  0.4653  1.1969
  168SOPE  C21818964   2.980   6.758   8.839 -0.2211 -0.1436  1.0103
  168SOPE  H18R18965   3.049   6.822   8.899 -0.8091  0.8688  0.6247
  168SOPE  H18S18966   2.964   6.663   8.895 -1.1104 -0.2350  0.6038
  168SOPE  H18T18967   2.880   6.805   8.844  0.3041  1.0900  0.1803
  168SOPE   C3318968   3.007   7.133   7.078 -0.9594  0.5479  0.7703
  168SOPE   H3X18969   2.915   7.112   7.137 -0.2912 -1.1556  1.2382
  168SOPE   H3Y18970   2.974   7.208   7.003 -3.3249  0.8478  2.0647
  168SOPE   C3418971   3.115   7.208   7.161  0.0782 -0.5435  0.2443
  168SOPE   H4X18972   3.087   7.314   7.177  1.6526  0.0207 -0.7182
  168SOPE   H4Y18973   3.214   7.218   7.113  0.1392 -1.4072  0.1816
  168SOPE   C3518974   3.147   7.143   7.299  0.2852 -0.3995  0.0225
  168SOPE   H5X18975   3.232   7.203   7.337  0.1491  0.4686 -1.0076
  168SOPE   H5Y18976   3.177   7.036   7.288  0.1977 -0.6485  2.0961
  168SOPE   C3618977   3.036   7.154   7.402  0.6554 -0.2732 -0.5445
  168SOPE   H6X18978   2.952   7.083   7.385 -0.2034  0.4405  0.6713
  168SOPE   H6Y18979   2.998   7.259   7.404 -1.4936 -1.0195 -1.1604
  168SOPE   C3718980   3.090   7.122   7.541 -0.0623  0.2063 -0.1457
  168SOPE   H7X18981   3.173   7.182   7.583  0.3170  1.2562 -2.3186
  168SOPE   H7Y18982   3.151   7.030   7.531  0.9645  1.1004 -2.3649
  168SOPE   C3818983   2.988   7.110   7.644 -0.2451 -0.2181  0.5953
  168SOPE   H8X18984   2.912   7.034   7.615 -2.2408  1.9895 -0.1418
  168SOPE   H8Y18985   2.931   7.204   7.658  1.0287  0.4664  1.2694
  168SOPE   C3918986   3.047   7.081   7.780  0.1200 -0.5769 -0.5177
  168SOPE   H9X18987   3.115   7.162   7.813  0.5324 -1.4840  0.8994
  168SOPE   H9Y18988   3.108   6.988   7.774  1.0572  0.0689 -1.1256
  168SOPE  C31018989   2.945   7.068   7.892  0.2637 -0.5074 -0.5816
  168SOPE  H10X18990   2.848   7.027   7.855 -2.0296  1.1446  3.3158
  168SOPE  H10Y18991   2.916   7.164   7.940  3.1504  0.4965 -0.7604
  168SOPE  C31118992   3.001   6.985   8.004 -0.0494 -0.1711 -0.6917
  168SOPE  H11X18993   3.044   6.895   7.954 -1.4505 -1.3431  0.1416
  168SOPE  H11Y18994   2.927   6.936   8.071 -0.6614  1.6167 -0.0530
  168SOPE  C31218995   3.096   7.054   8.100  0.1826 -0.1402 -0.2355
  168SOPE  H12X18996   3.026   7.119   8.158 -1.7856 -1.1613 -1.4557
  168SOPE  H12Y18997   3.174   7.112   8.045 -1.3742  0.5683 -1.7045
  168SOPE  C31318998   3.176   6.961   8.187  0.2318 -0.5861 -0.1582
  168SOPE  H13X18999   3.244   6.894   8.130 -0.7456 -2.5367  0.8993
  168SOPE  H13Y19000   3.102   6.894   8.237 -0.2885  0.5810  0.6417
  168SOPE  C31419001   3.273   7.031   8.284 -0.2546  0.2553 -0.1593
  168SOPE  H14X19002   3.205   7.077   8.359 -0.2836 -0.3109  0.1673
  168SOPE  H14Y19003   3.329   7.112   8.234  1.9324 -0.1427  1.5459
  168SOPE  C31519004   3.345   6.914   8.364 -1.0286  0.8681 -0.5098
  168SOPE  H15X19005   3.273   6.831   8.382 -0.5637  0.2211 -1.6325
  168SOPE  H15Y19006   3.378   6.963   8.458 -1.2474 -0.2930  0.1793
  168SOPE  C31619007   3.480   6.863   8.303  1.1690  0.3286 -0.8031
  168SOPE  H16X19008   3.540   6.956   8.287  1.1780  0.2344 -1.3333
  168SOPE  H16Y19009   3.476   6.801   8.211 -1.0187 -1.6462  0.5861
  168SOPE  C31719010   3.568   6.776   8.397  0.9117  0.4311 -0.2214
  168SOPE  H17X19011   3.657   6.733   8.346  0.0749 -0.5474 -0.8567
  168SOPE  H17Y19012   3.502   6.694   8.433 -0.5255  2.4275  1.8281
  168SOPE  C31819013   3.628   6.856   8.510  0.2097  0.9987  0.1731
  168SOPE  H18X19014   3.551   6.886   8.584  1.3386  1.3426  1.2493
  168SOPE  H18Y19015   3.668   6.955   8.477  1.9576  0.1624 -0.2868
  168SOPE  H18Z19016   3.707   6.812   8.575 -0.0335  2.1240  1.2603
  169SOPE     N19017   5.728   1.594   6.386  0.1757 -0.2424 -0.6807
  169SOPE   HN119018   5.650   1.594   6.316  0.4892  1.8581 -1.0599
  169SOPE   HN219019   5.780   1.683   6.380  0.7741 -0.6685 -2.1204
  169SOPE   HN319020   5.786   1.510   6.366  3.1628  2.1916 -2.5844
  169SOPE   C1219021   5.679   1.571   6.529  0.2933 -0.2658  0.1708
  169SOPE  H12A19022   5.769   1.585   6.593 -0.1007 -0.3276  0.7434
  169SOPE  H12B19023   5.634   1.471   6.541 -1.2922  0.3452 -0.6027
  169SOPE   C1119024   5.572   1.672   6.580  0.8163 -0.2033  0.2146
  169SOPE  H11A19025   5.626   1.767   6.601  0.8225 -0.8690  3.5736
  169SOPE  H11B19026   5.544   1.643   6.684  2.7512  0.4888  0.9521
  169SOPE     P19027   5.459   1.811   6.393 -0.0918  0.1659 -0.2455
  169SOPE   O1319028   5.346   1.787   6.304 -0.1083 -0.6931 -0.3496
  169SOPE   O1419029   5.590   1.837   6.335  0.5464  0.5257  0.3391
  169SOPE   O1219030   5.458   1.695   6.497  0.0522  0.2915  0.2482
  169SOPE   O1119031   5.426   1.945   6.464  0.6699  0.6551  0.3177
  169SOPE    C119032   5.307   1.968   6.545 -0.4372 -0.9152  0.1251
  169SOPE    HA19033   5.224   1.896   6.528 -0.5456 -1.5840  3.1604
  169SOPE    HB19034   5.259   2.063   6.514  0.5506  0.1903  1.8622
  169SOPE    C219035   5.347   1.983   6.694  0.0808 -0.0366  0.5538
  169SOPE    HS19036   5.374   1.883   6.734  0.6941  0.8973  2.5182
  169SOPE   O2119037   5.231   2.036   6.765 -0.4004  0.4581 -0.0499
  169SOPE   C2119038   5.129   1.950   6.771  0.5701  0.5528  0.6371
  169SOPE   O2219039   5.144   1.827   6.754  0.2738 -0.9226 -0.8873
  169SOPE   C2219040   5.002   2.012   6.820 -0.6924  0.1397  0.2669
  169SOPE   H2R19041   4.929   1.985   6.740 -0.7936  0.6982  0.1675
  169SOPE   H2S19042   5.015   2.122   6.812  0.0635 -0.0560 -1.4279
  169SOPE    C319043   5.477   2.068   6.727 -0.6249  0.6227 -0.2374
  169SOPE    HX19044   5.460   2.177   6.717 -0.6700  0.9812  3.0325
  169SOPE    HY19045   5.547   2.022   6.654 -0.4648 -1.4251  1.1751
  169SOPE   O3119046   5.510   2.055   6.867  0.6083  0.1339  0.3213
  169SOPE   C3119047   5.613   1.979   6.901 -0.1880 -0.0507 -0.4570
  169SOPE   O3219048   5.682   1.913   6.827  0.3429  0.3682  0.1233
  169SOPE   C3219049   5.622   1.973   7.047 -0.0115 -0.6316  0.5608
  169SOPE   H2X19050   5.703   2.036   7.089  2.0176 -2.2698 -0.8125
  169SOPE   H2Y19051   5.646   1.867   7.069  1.8348 -0.2977  0.2027
  169SOPE   C2319052   4.971   1.947   6.958  0.2148  0.2164 -0.8576
  169SOPE   H3R19053   4.969   1.836   6.960 -1.8496  0.2395  0.9404
  169SOPE   H3S19054   4.863   1.968   6.977  0.7379  0.8813  1.5320
  169SOPE   C2419055   5.049   2.012   7.074 -0.1116  0.9789 -0.0644
  169SOPE   H4R19056   5.156   2.006   7.043  0.4716 -0.1474  2.0324
  169SOPE   H4S19057   5.020   2.118   7.088  0.0456  0.7667  1.9618
  169SOPE   C2519058   5.013   1.939   7.206 -0.6347  0.1807  0.3882
  169SOPE   H5R19059   4.909   1.972   7.230 -0.9933  0.7137 -1.7933
  169SOPE   H5S19060   5.011   1.828   7.204 -3.4072  0.2132 -1.0235
  169SOPE   C2619061   5.101   1.981   7.323 -0.0170  0.1097 -0.3991
  169SOPE   H6R19062   5.205   1.957   7.292  0.9236  2.7125  0.5618
  169SOPE   H6S19063   5.103   2.090   7.343 -1.0862  0.1011 -0.2146
  169SOPE   C2719064   5.065   1.900   7.451  0.1126 -0.2917 -0.3793
  169SOPE   H7R19065   4.959   1.904   7.483 -0.2421 -1.8174 -1.2947
  169SOPE   H7S19066   5.091   1.795   7.424 -2.1622 -1.1513  0.6176
  169SOPE   C2819067   5.151   1.947   7.567  0.5184  0.4622 -0.5929
  169SOPE   H8R19068   5.254   1.963   7.529  0.7519 -0.7519 -0.5111
  169SOPE   H8S19069   5.123   2.050   7.599  2.4557  0.0322  2.6820
  169SOPE   C2919070   5.155   1.861   7.695  0.2173  0.2125  0.0029
  169SOPE   H9119071   5.139   1.754   7.675 -0.6756  0.3177  0.1681
  169SOPE  C21019072   5.203   1.906   7.813 -0.0557  0.0286  0.2300
  169SOPE  H10119073   5.211   1.843   7.903 -2.9823 -0.3455  0.3027
  169SOPE  C21119074   5.251   2.044   7.849 -0.0702 -0.2506 -0.1680
  169SOPE  H11R19075   5.206   2.124   7.787  0.0498  0.8279  1.1087
  169SOPE  H11S19076   5.360   2.055   7.828 -0.0207  0.6325  0.5379
  169SOPE  C21219077   5.224   2.088   7.996 -0.0353 -0.1416  0.2970
  169SOPE  H12R19078   5.116   2.080   8.019 -0.3569  3.0261  0.1519
  169SOPE  H12S19079   5.253   2.195   8.009  0.5832 -0.0785 -1.4853
  169SOPE  C21319080   5.300   2.006   8.108 -0.0290  0.5916 -0.4113
  169SOPE  H13R19081   5.265   1.903   8.129 -1.7821  1.0082 -1.2362
  169SOPE  H13S19082   5.278   2.067   8.199  1.7293  0.8990 -0.1751
  169SOPE  C21419083   5.449   2.005   8.099  0.4329  1.4014 -0.6811
  169SOPE  H14R19084   5.485   2.051   8.194 -0.4135  0.9846 -0.1476
  169SOPE  H14S19085   5.481   2.065   8.011 -2.0524  1.0881 -1.8289
  169SOPE  C21519086   5.519   1.862   8.098 -0.1132  0.6667 -0.5811
  169SOPE  H15R19087   5.511   1.808   8.002 -0.4120  2.1989 -1.4362
  169SOPE  H15S19088   5.456   1.808   8.172  0.4237  0.7601 -0.0436
  169SOPE  C21619089   5.668   1.876   8.140 -0.3221  0.5141 -0.1550
  169SOPE  H16R19090   5.681   1.911   8.245  1.0127  0.9145 -0.4517
  169SOPE  H16S19091   5.723   1.953   8.081 -1.4618  0.7485 -0.9254
  169SOPE  C21719092   5.750   1.745   8.134  0.3321  0.5162  0.0066
  169SOPE  H17R19093   5.704   1.674   8.206  1.4466  1.5494  1.7720
  169SOPE  H17S19094   5.858   1.759   8.159  0.8660 -1.4721 -0.9835
  169SOPE  C21819095   5.739   1.663   8.007  0.3253  0.6013 -0.4001
  169SOPE  H18R19096   5.634   1.640   7.979  0.0455  0.9998  0.2957
  169SOPE  H18S19097   5.790   1.565   8.016  2.3739  1.7269  0.8148
  169SOPE  H18T19098   5.784   1.712   7.918  3.3740 -1.3908 -0.0233
  169SOPE   C3319099   5.498   2.012   7.119  0.1891 -0.2445  0.0413
  169SOPE   H3X19100   5.404   1.958   7.095 -0.8850  2.0653 -1.0614
  169SOPE   H3Y19101   5.476   2.120   7.106 -0.0615 -0.1673  1.0383
  169SOPE   C3419102   5.523   1.963   7.262 -0.2485 -0.4648  0.9390
  169SOPE   H4X19103   5.442   2.012   7.321 -1.3031 -1.7896  0.6199
  169SOPE   H4Y19104   5.622   1.995   7.301 -0.5077  0.7719  0.5984
  169SOPE   C3519105   5.518   1.814   7.275 -0.1374 -0.2360 -0.5385
  169SOPE   H5X19106   5.621   1.775   7.289  0.1908  0.7321 -0.2148
  169SOPE   H5Y19107   5.473   1.772   7.183 -1.1346  1.0824 -0.6734
  169SOPE   C3619108   5.448   1.777   7.409 -0.0661  0.9262  0.2867
  169SOPE   H6X19109   5.342   1.809   7.402 -0.2123  0.2676 -0.6901
  169SOPE   H6Y19110   5.510   1.820   7.490 -0.1080  2.1916 -0.3379
  169SOPE   C3719111   5.448   1.624   7.426  0.4512 -0.0021 -0.0188
  169SOPE   H7X19112   5.549   1.586   7.453  1.1517  1.3227 -0.6918
  169SOPE   H7Y19113   5.418   1.583   7.327 -3.4467  2.6926 -0.0284
  169SOPE   C3819114   5.353   1.573   7.534 -0.3120  0.8032 -0.7301
  169SOPE   H8X19115   5.246   1.601   7.518 -1.0845 -1.3156  0.5332
  169SOPE   H8Y19116   5.340   1.463   7.529  2.5387  0.5016 -2.0390
  169SOPE   C3919117   5.390   1.609   7.682  0.1469  0.0948  0.3060
  169SOPE   H9X19118   5.357   1.712   7.710  0.7697 -0.1835  2.1116
  169SOPE   H9Y19119   5.499   1.592   7.685  0.1535  0.2523  1.3730
  169SOPE  C31019120   5.330   1.509   7.782  0.1329  0.0130 -0.8530
  169SOPE  H10X19121   5.353   1.406   7.747  0.7111 -0.1053 -0.1237
  169SOPE  H10Y19122   5.221   1.520   7.799  0.1175 -1.6943  0.1405
  169SOPE  C31119123   5.397   1.519   7.923  0.7465  0.2152 -0.0371
  169SOPE  H11X19124   5.401   1.629   7.944  0.0528 -0.6550  5.6495
  169SOPE  H11Y19125   5.501   1.480   7.927  0.2335 -1.3311 -1.4148
  169SOPE  C31219126   5.311   1.451   8.037 -0.1425  0.6052  0.1298
  169SOPE  H12X19127   5.314   1.342   8.016  0.5361  0.4326  1.0696
  169SOPE  H12Y19128   5.203   1.468   8.023  0.3090  1.7066 -2.1678
  169SOPE  C31319129   5.358   1.477   8.177 -0.3232 -0.0896 -0.0783
  169SOPE  H13X19130   5.390   1.583   8.174 -0.7198 -0.0032 -2.2822
  169SOPE  H13Y19131   5.439   1.410   8.213 -0.1087  0.4940  0.5202
  169SOPE  C31419132   5.237   1.466   8.274  0.3852 -0.4488 -0.8095
  169SOPE  H14X19133   5.209   1.360   8.294 -0.0683 -0.8626 -3.5109
  169SOPE  H14Y19134   5.154   1.522   8.226  1.4548  0.8427 -1.1850
  169SOPE  C31519135   5.261   1.533   8.415 -0.1602 -0.1039  0.6609
  169SOPE  H15X19136   5.319   1.626   8.399 -2.2571  1.1106 -0.0610
  169SOPE  H15Y19137   5.340   1.483   8.474 -1.1863  1.5527  3.5478
  169SOPE  C31619138   5.138   1.567   8.500  0.4756  0.1997 -0.1074
  169SOPE  H16X19139   5.167   1.639   8.580  3.4149 -1.8950  0.8242
  169SOPE  H16Y19140   5.102   1.476   8.551 -1.1832  0.7490 -0.2808
  169SOPE  C31719141   5.031   1.640   8.413  0.0157 -0.3490 -0.0715
  169SOPE  H17X19142   4.946   1.664   8.481  1.3851  0.7934  1.2521
  169SOPE  H17Y19143   5.002   1.589   8.319  0.6267  0.3448 -0.6327
  169SOPE  C31819144   5.071   1.788   8.381 -0.3613  0.0854  0.4991
  169SOPE  H18X19145   5.179   1.793   8.353 -0.7676 -0.8746 -1.3382
  169SOPE  H18Y19146   5.047   1.846   8.472  2.2271 -0.1668  1.3933
  169SOPE  H18Z19147   4.999   1.827   8.307  0.1448 -0.0409 -0.0693
  170SOPE     N19148   5.348   0.540   6.568  0.1481  0.0862 -0.1971
  170SOPE   HN119149   5.410   0.555   6.486  2.2417 -3.1084  0.6857
  170SOPE   HN219150   5.250   0.527   6.534  0.4491 -1.0861 -0.6688
  170SOPE   HN319151   5.360   0.618   6.635  3.1940 -1.2067  0.8627
  170SOPE   C1219152   5.392   0.414   6.642  0.5475 -0.3567 -0.0539
  170SOPE  H12A19153   5.327   0.403   6.731 -0.7349  1.1995 -0.7856
  170SOPE  H12B19154   5.495   0.425   6.682 -0.0085  0.0852  1.2715
  170SOPE   C1119155   5.398   0.287   6.552 -0.1298 -0.5427 -0.9231
  170SOPE  H11A19156   5.297   0.260   6.513  0.5146 -1.4195 -2.0069
  170SOPE  H11B19157   5.431   0.201   6.613 -0.9261 -2.2617 -2.8588
  170SOPE     P19158   5.618   0.228   6.419  0.1066  0.5197  0.1887
  170SOPE   O1319159   5.706   0.309   6.334 -0.5019 -0.3848 -0.1429
  170SOPE   O1419160   5.584   0.091   6.372  0.0710  0.5310 -0.3391
  170SOPE   O1219161   5.483   0.310   6.441  0.3297  0.1797  0.1211
  170SOPE   O1119162   5.677   0.225   6.569  0.6857 -0.0936  0.1876
  170SOPE    C119163   5.796   0.147   6.599 -0.9891 -0.5466  0.5260
  170SOPE    HA19164   5.887   0.192   6.554 -1.8658  1.1295  0.4052
  170SOPE    HB19165   5.787   0.046   6.553 -1.4705 -0.7111  0.9717
  170SOPE    C219166   5.806   0.109   6.755 -0.2547  0.1876 -0.1664
  170SOPE    HS19167   5.830   0.202   6.812 -1.6590  1.0829 -0.9914
  170SOPE   O2119168   5.910   0.014   6.792  0.4306 -0.9574  0.4533
  170SOPE   C2119169   6.032   0.066   6.765  0.2990  0.6666 -0.3755
  170SOPE   O2219170   6.045   0.184   6.749 -0.3474 -0.3625  0.3836
  170SOPE   C2219171   6.136  -0.051   6.779 -0.1771 -0.5297 -0.7043
  170SOPE   H2R19172   6.151  -0.100   6.681  1.0607 -0.2795 -0.6390
  170SOPE   H2S19173   6.096  -0.130   6.846  1.5754 -0.7190  0.1368
  170SOPE    C319174   5.665   0.067   6.791 -0.0950 -0.2745 -0.0993
  170SOPE    HX19175   5.642  -0.027   6.738 -0.4612  0.3179 -1.0120
  170SOPE    HY19176   5.589   0.130   6.738 -0.5689 -0.2106  0.6454
  170SOPE   O3119177   5.644   0.055   6.932  0.0434  0.5501  0.7231
  170SOPE   C3119178   5.584   0.163   6.987 -0.7429  0.0647  0.8420
  170SOPE   O3219179   5.530   0.255   6.932  0.1354 -0.0259 -0.3518
  170SOPE   C3219180   5.580   0.139   7.144 -0.3932 -0.1360  0.0392
  170SOPE   H2X19181   5.673   0.083   7.166  0.9018  0.8786 -2.5661
  170SOPE   H2Y19182   5.495   0.069   7.160  0.6468 -1.4130  0.1106
  170SOPE   C2319183   6.268  -0.009   6.842  0.5449  0.3285  0.3593
  170SOPE   H3R19184   6.296   0.091   6.804 -3.2468  1.2374 -0.2584
  170SOPE   H3S19185   6.349  -0.077   6.808  0.1922 -0.2142  0.6091
  170SOPE   C2419186   6.268  -0.034   6.994  0.0338 -0.1211 -0.3048
  170SOPE   H4R19187   6.235  -0.138   7.014 -1.6263  0.5042  0.2705
  170SOPE   H4S19188   6.363  -0.027   7.051  1.8121 -3.0113 -2.7608
  170SOPE   C2519189   6.177   0.068   7.072 -0.5771  0.0625 -0.7968
  170SOPE   H5R19190   6.217   0.166   7.039  2.6293 -0.8004  0.4272
  170SOPE   H5S19191   6.074   0.055   7.030 -0.3113 -0.4614 -1.2867
  170SOPE   C2619192   6.177   0.051   7.221 -0.1024  0.6735 -0.0347
  170SOPE   H6R19193   6.125  -0.047   7.218 -0.1805  0.7589 -1.7221
  170SOPE   H6S19194   6.278   0.031   7.264  0.0340  1.0124 -0.2032
  170SOPE   C2719195   6.114   0.155   7.313  0.5349 -0.0309 -0.6846
  170SOPE   H7R19196   6.150   0.257   7.287 -1.7512  0.4166 -2.2615
  170SOPE   H7S19197   6.004   0.164   7.297  0.0489  0.9864  2.8561
  170SOPE   C2819198   6.134   0.118   7.464 -0.0034 -0.1033 -0.6230
  170SOPE   H8R19199   6.068   0.172   7.535  0.0128 -1.4650  0.4531
  170SOPE   H8S19200   6.113   0.009   7.460  2.7309 -0.6290 -2.0765
  170SOPE   C2919201   6.280   0.127   7.495 -0.8036  0.4446  0.3273
  170SOPE   H9119202   6.337   0.201   7.437  0.3534 -0.5487  0.1757
  170SOPE  C21019203   6.343   0.061   7.595  0.0757  0.8787 -0.0166
  170SOPE  H10119204   6.452   0.069   7.600 -0.0374  0.9518  2.8465
  170SOPE  C21119205   6.283  -0.031   7.697  0.3749 -0.3267 -0.3851
  170SOPE  H11R19206   6.356  -0.083   7.762  0.1965  1.4675  1.2892
  170SOPE  H11S19207   6.232  -0.114   7.644  1.4815 -1.4090  0.2215
  170SOPE  C21219208   6.195   0.037   7.798  0.0820 -0.4889  0.4621
  170SOPE  H12R19209   6.097   0.064   7.752  1.2470  1.1503 -1.1479
  170SOPE  H12S19210   6.242   0.132   7.831  2.6220 -1.7994  0.7375
  170SOPE  C21319211   6.176  -0.067   7.907 -0.2508  0.0800  0.2037
  170SOPE  H13R19212   6.266  -0.082   7.972  0.2543 -0.2619 -0.5667
  170SOPE  H13S19213   6.143  -0.165   7.866  0.1104 -0.2807  0.7605
  170SOPE  C21419214   6.057  -0.043   8.013  0.9071  0.0876 -0.0587
  170SOPE  H14R19215   5.962  -0.050   7.956 -0.5940  4.5028  1.7296
  170SOPE  H14S19216   6.074   0.056   8.060 -1.0189  0.1037  0.6489
  170SOPE  C21519217   6.072  -0.148   8.130  0.3111 -0.3738  0.9619
  170SOPE  H15R19218   6.158  -0.132   8.198  1.4296 -2.5230  0.1258
  170SOPE  H15S19219   6.080  -0.249   8.083  0.2687  0.4634 -0.8793
  170SOPE  C21619220   5.947  -0.159   8.228  0.2684 -0.2476  0.4208
  170SOPE  H16R19221   5.857  -0.198   8.175 -0.9060  2.6572  0.1310
  170SOPE  H16S19222   5.918  -0.058   8.265  0.6068  0.4684 -1.2078
  170SOPE  C21719223   5.972  -0.263   8.336  0.7818  0.5246  0.6783
  170SOPE  H17R19224   6.059  -0.230   8.397  0.4023  2.1668  0.3639
  170SOPE  H17S19225   6.002  -0.350   8.274  0.0281 -0.0135  1.0547
  170SOPE  C21819226   5.853  -0.300   8.425 -0.8211  0.1116 -0.7507
  170SOPE  H18R19227   5.829  -0.210   8.484 -1.5952 -0.7389  0.2463
  170SOPE  H18S19228   5.871  -0.387   8.492  0.5844  1.9648  1.3261
  170SOPE  H18T19229   5.765  -0.323   8.361 -1.7214  1.5398 -0.0319
  170SOPE   C3319230   5.567   0.269   7.228 -0.7231  0.4639  0.0682
  170SOPE   H3X19231   5.538   0.242   7.331 -0.7641  1.9475  0.4620
  170SOPE   H3Y19232   5.478   0.312   7.178 -0.9139 -0.2892 -0.2486
  170SOPE   C3419233   5.700   0.350   7.228  0.5337 -1.1215 -0.0022
  170SOPE   H4X19234   5.730   0.359   7.121 -1.3687  2.1076 -0.3430
  170SOPE   H4Y19235   5.783   0.311   7.290 -1.0911  0.3959  3.2578
  170SOPE   C3519236   5.676   0.494   7.282 -0.5279 -0.1501  0.2563
  170SOPE   H5X19237   5.610   0.491   7.370 -2.4114 -0.3996 -1.1438
  170SOPE   H5Y19238   5.609   0.537   7.204 -0.4243  0.5343  0.5414
  170SOPE   C3619239   5.800   0.569   7.325  0.5556  0.0898  0.2561
  170SOPE   H6X19240   5.849   0.615   7.237 -0.9019  0.3005 -0.4524
  170SOPE   H6Y19241   5.864   0.498   7.381  1.0792 -0.7948 -1.4343
  170SOPE   C3719242   5.769   0.688   7.417  1.1068  0.4040  0.6361
  170SOPE   H7X19243   5.712   0.643   7.501 -0.7647  0.6232 -0.4887
  170SOPE   H7Y19244   5.699   0.765   7.378  0.0769 -0.8321  0.0021
  170SOPE   C3819245   5.883   0.763   7.482  0.2623  0.4949 -0.4785
  170SOPE   H8X19246   5.923   0.828   7.402 -1.1948  0.3533 -1.3454
  170SOPE   H8Y19247   5.955   0.689   7.523 -1.1351 -0.5502  0.1546
  170SOPE   C3919248   5.843   0.847   7.605  0.1971 -0.4850 -0.2342
  170SOPE   H9X19249   5.751   0.902   7.574  2.3209  3.8458  0.8469
  170SOPE   H9Y19250   5.920   0.921   7.632  2.3810 -2.3057 -1.3349
  170SOPE  C31019251   5.822   0.762   7.735 -0.2851  0.6897  1.0352
  170SOPE  H10X19252   5.917   0.730   7.782 -0.3434 -0.7149  0.1980
  170SOPE  H10Y19253   5.773   0.663   7.729 -0.7400  0.9288  0.7426
  170SOPE  C31119254   5.749   0.841   7.841  0.0860 -0.0986 -0.0463
  170SOPE  H11X19255   5.640   0.837   7.821 -0.0059  0.6710  0.2850
  170SOPE  H11Y19256   5.776   0.949   7.831 -2.4214  0.6525  0.9050
  170SOPE  C31219257   5.776   0.787   7.982  0.4356  0.3052 -0.2958
  170SOPE  H12X19258   5.874   0.821   8.022  0.3127 -0.1103  0.3700
  170SOPE  H12Y19259   5.791   0.678   7.971 -0.3805 -0.0381  1.8246
  170SOPE  C31319260   5.666   0.830   8.085 -0.2960 -0.2955 -0.4665
  170SOPE  H13X19261   5.606   0.740   8.107  1.5267 -0.7822  2.7530
  170SOPE  H13Y19262   5.598   0.907   8.041 -0.4624 -0.5828 -0.7108
  170SOPE  C31419263   5.736   0.892   8.215 -0.4080  0.1558  1.0336
  170SOPE  H14X19264   5.658   0.947   8.272 -0.8164  2.3937 -1.6031
  170SOPE  H14Y19265   5.807   0.970   8.182  0.0046 -0.1120  1.2942
  170SOPE  C31519266   5.814   0.790   8.302  0.4618  0.5055 -0.2750
  170SOPE  H15X19267   5.883   0.848   8.367 -0.5907  2.1850 -0.6303
  170SOPE  H15Y19268   5.875   0.726   8.234  1.0637 -0.0597  0.7781
  170SOPE  C31619269   5.732   0.698   8.396 -0.1178 -0.0908 -0.0834
  170SOPE  H16X19270   5.802   0.637   8.456 -0.0878  0.2383  0.2173
  170SOPE  H16Y19271   5.682   0.626   8.328 -2.2026 -2.2861  3.6324
  170SOPE  C31719272   5.636   0.770   8.486  0.2141 -0.5794  0.0945
  170SOPE  H17X19273   5.574   0.848   8.436  0.9445  0.2412  0.4617
  170SOPE  H17Y19274   5.696   0.823   8.563  1.3796  0.8618 -1.7683
  170SOPE  C31819275   5.533   0.668   8.548 -0.1533  0.3337  0.5010
  170SOPE  H18X19276   5.461   0.725   8.610  0.5111 -0.8617  2.3791
  170SOPE  H18Y19277   5.594   0.604   8.615  0.6713 -0.9030 -1.3961
  170SOPE  H18Z19278   5.482   0.624   8.460  1.6899  0.3811 -0.6266
  171SOPE     N19279   6.494   3.562   6.255 -0.0002 -0.0706  0.0428
  171SOPE   HN119280   6.478   3.473   6.202  0.3669 -1.0919  1.6203
  171SOPE   HN219281   6.586   3.570   6.302 -0.3566 -0.7797  0.8681
  171SOPE   HN319282   6.429   3.564   6.336  1.0556 -1.9805  0.9841
  171SOPE   C1219283   6.459   3.672   6.164  0.4734 -0.1260  0.2630
  171SOPE  H12A19284   6.352   3.658   6.137  0.8423  1.5474 -2.2170
  171SOPE  H12B19285   6.518   3.670   6.070  1.1865  1.5158  0.6451
  171SOPE   C1119286   6.465   3.799   6.242  0.1198 -0.0521 -0.1189
  171SOPE  H11A19287   6.451   3.877   6.164 -1.8585 -2.2766 -2.0865
  171SOPE  H11B19288   6.559   3.834   6.290 -0.9559  1.9498  0.5934
  171SOPE     P19289   6.259   3.919   6.357 -0.0011  0.0850 -0.0570
  171SOPE   O1319290   6.150   3.915   6.254  0.4293  0.6935 -0.1291
  171SOPE   O1419291   6.327   4.047   6.362 -0.1201 -0.3557  0.1011
  171SOPE   O1219292   6.364   3.798   6.341 -0.8342 -1.2555  0.3560
  171SOPE   O1119293   6.194   3.902   6.502 -0.1406 -0.0199 -0.2321
  171SOPE    C119294   6.198   3.765   6.554 -0.1769  0.3777  0.7256
  171SOPE    HA19295   6.301   3.724   6.561 -0.4531 -0.3797  0.4139
  171SOPE    HB19296   6.135   3.704   6.485 -0.0200  1.5269 -0.4510
  171SOPE    C219297   6.124   3.746   6.697  0.3580 -0.2847  0.2403
  171SOPE    HS19298   6.027   3.801   6.695  0.8989  0.7042  0.6476
  171SOPE   O2119299   6.218   3.800   6.792 -0.0377 -0.6473 -0.8909
  171SOPE   C2119300   6.214   3.922   6.818 -0.0040  0.5967 -0.0939
  171SOPE   O2219301   6.140   4.006   6.765  0.2882  0.5198 -1.0693
  171SOPE   C2219302   6.319   3.963   6.927  0.3143  0.0364 -0.3431
  171SOPE   H2R19303   6.414   3.912   6.900  2.0183  0.5372  4.1628
  171SOPE   H2S19304   6.271   3.927   7.021 -1.8273  1.7630 -0.7453
  171SOPE    C319305   6.087   3.600   6.731  0.4449 -0.1164 -0.4360
  171SOPE    HX19306   6.166   3.535   6.689  0.1571 -0.7334 -0.0309
  171SOPE    HY19307   5.992   3.576   6.681  1.1747 -0.7974 -1.5075
  171SOPE   O3119308   6.075   3.589   6.878  0.3466 -0.0108  0.0211
  171SOPE   C3119309   6.187   3.547   6.933 -0.2262 -0.4547  0.9340
  171SOPE   O3219310   6.286   3.497   6.885 -0.0057  0.0505 -0.1378
  171SOPE   C3219311   6.180   3.569   7.081 -0.0512  0.2716 -0.1219
  171SOPE   H2X19312   6.085   3.521   7.113 -1.1640  1.4592 -1.5940
  171SOPE   H2Y19313   6.166   3.678   7.100  0.3123  0.0513  1.4553
  171SOPE   C2319314   6.342   4.113   6.942 -0.9044 -0.6340 -0.3731
  171SOPE   H3R19315   6.250   4.174   6.951 -0.9670 -0.5315 -1.6613
  171SOPE   H3S19316   6.396   4.141   6.850  1.6682 -1.7080  0.7524
  171SOPE   C2419317   6.425   4.143   7.068 -0.3869 -0.0387 -0.0973
  171SOPE   H4R19318   6.522   4.089   7.071  0.2571  1.1094  0.1430
  171SOPE   H4S19319   6.458   4.249   7.064 -1.0975  0.2622  1.5559
  171SOPE   C2519320   6.333   4.129   7.191 -0.2765  0.1921 -0.1493
  171SOPE   H5R19321   6.236   4.179   7.170 -1.2568 -1.5178  0.2254
  171SOPE   H5S19322   6.320   4.021   7.212  1.7692  0.0567  0.5493
  171SOPE   C2619323   6.386   4.192   7.319  0.8032  0.0717 -1.0342
  171SOPE   H6R19324   6.495   4.182   7.338  0.8193  2.3413  0.3297
  171SOPE   H6S19325   6.377   4.303   7.309  0.5383  0.2600  1.0813
  171SOPE   C2719326   6.315   4.160   7.452  0.0507 -0.0520 -0.3716
  171SOPE   H7R19327   6.364   4.229   7.523 -1.5443  2.0221 -1.2348
  171SOPE   H7S19328   6.207   4.183   7.439 -0.2154  0.2292  2.1176
  171SOPE   C2819329   6.341   4.018   7.508 -0.4095  0.1414 -0.3149
  171SOPE   H8R19330   6.297   3.949   7.433  0.1136  0.9578 -1.3856
  171SOPE   H8S19331   6.448   3.990   7.517 -1.0505 -2.0768  0.9315
  171SOPE   C2919332   6.266   4.010   7.640  0.5605  0.3342 -0.9330
  171SOPE   H9119333   6.158   4.019   7.624  0.7240  0.3701 -2.0797
  171SOPE  C21019334   6.307   3.980   7.758  0.2506 -0.0065 -0.2831
  171SOPE  H10119335   6.237   3.974   7.843  1.0162 -1.1387  0.2763
  171SOPE  C21119336   6.450   3.941   7.798  0.3363  0.1592 -0.0862
  171SOPE  H11R19337   6.520   3.983   7.723 -0.4939 -1.5286 -1.8160
  171SOPE  H11S19338   6.461   3.831   7.798  1.2334  0.2252 -2.8408
  171SOPE  C21219339   6.504   3.996   7.935  0.5760 -0.3192 -0.5921
  171SOPE  H12R19340   6.482   4.103   7.950  1.6288  0.0412 -1.5608
  171SOPE  H12S19341   6.615   3.997   7.934  0.5860 -1.0833 -1.4496
  171SOPE  C21319342   6.448   3.911   8.053  0.1019 -0.1858 -0.3495
  171SOPE  H13R19343   6.491   3.809   8.063  1.0305  0.3354  1.2164
  171SOPE  H13S19344   6.339   3.896   8.038 -0.1300  2.4328 -1.6528
  171SOPE  C21419345   6.469   3.984   8.176  0.0350  0.0389  0.0814
  171SOPE  H14R19346   6.406   4.075   8.167 -0.6809 -0.5481 -0.9543
  171SOPE  H14S19347   6.573   4.021   8.184 -0.1464  0.4917  0.3462
  171SOPE  C21519348   6.436   3.902   8.306 -0.4057 -0.4720 -0.1291
  171SOPE  H15R19349   6.512   3.821   8.309 -0.7346 -0.7907 -0.2668
  171SOPE  H15S19350   6.333   3.860   8.304 -1.1595  1.2126  1.3300
  171SOPE  C21619351   6.466   3.986   8.435  0.2353 -0.0486 -0.3329
  171SOPE  H16R19352   6.573   4.015   8.438  0.5690 -1.2708  0.1571
  171SOPE  H16S19353   6.450   3.907   8.511 -0.4698  0.7947  0.3972
  171SOPE  C21719354   6.371   4.102   8.455  0.6553  0.6318  0.2343
  171SOPE  H17R19355   6.345   4.090   8.563  0.1847  1.2735  0.1975
  171SOPE  H17S19356   6.283   4.086   8.388 -1.0748  3.4858  1.6941
  171SOPE  C21819357   6.431   4.239   8.432  0.4171  0.5830  0.2464
  171SOPE  H18R19358   6.345   4.307   8.417 -0.6876 -1.3614 -2.6667
  171SOPE  H18S19359   6.499   4.242   8.344 -0.3485  0.5329 -0.3511
  171SOPE  H18T19360   6.487   4.265   8.524  1.6193  0.2841 -0.3841
  171SOPE   C3319361   6.304   3.513   7.159 -0.4707  0.0523  0.2257
  171SOPE   H3X19362   6.379   3.594   7.147  0.9564 -1.3497 -0.4847
  171SOPE   H3Y19363   6.357   3.426   7.114 -0.0400 -0.7958  2.3117
  171SOPE   C3419364   6.276   3.470   7.304  0.2862  0.1625  0.3805
  171SOPE   H4X19365   6.361   3.404   7.334  0.1493  0.1372  0.7165
  171SOPE   H4Y19366   6.181   3.412   7.313 -0.6845  0.6275 -4.8952
  171SOPE   C3519367   6.261   3.584   7.405 -0.2290  0.0846  0.1950
  171SOPE   H5X19368   6.178   3.652   7.374 -0.7387 -0.6959 -0.1915
  171SOPE   H5Y19369   6.351   3.648   7.401  0.2356 -0.5990 -0.5799
  171SOPE   C3619370   6.225   3.536   7.543 -0.2134  0.3102 -0.6844
  171SOPE   H6X19371   6.316   3.486   7.583 -2.2975 -2.0742  1.2399
  171SOPE   H6Y19372   6.129   3.482   7.553  0.6805 -1.3181 -0.6066
  171SOPE   C3719373   6.212   3.648   7.646  0.3189 -0.8465 -0.2594
  171SOPE   H7X19374   6.126   3.714   7.624  0.1580 -2.1299 -3.9269
  171SOPE   H7Y19375   6.308   3.704   7.642  1.5489 -2.7399  1.5284
  171SOPE   C3819376   6.199   3.585   7.787 -0.3382 -0.3034 -0.3864
  171SOPE   H8X19377   6.277   3.509   7.810 -0.9387 -1.6021 -2.4932
  171SOPE   H8Y19378   6.099   3.537   7.794 -0.0872 -0.8314 -0.4045
  171SOPE   C3919379   6.200   3.683   7.910  0.1958 -0.3141  0.3456
  171SOPE   H9X19380   6.113   3.751   7.899 -0.3286 -0.9212  0.7338
  171SOPE   H9Y19381   6.297   3.738   7.904 -0.2812  0.4787 -0.2393
  171SOPE  C31019382   6.198   3.611   8.053 -0.0971 -1.3395 -0.1065
  171SOPE  H10X19383   6.210   3.699   8.119 -0.4318 -0.7923 -0.7802
  171SOPE  H10Y19384   6.284   3.540   8.060  1.4257  0.0126 -4.1329
  171SOPE  C31119385   6.070   3.528   8.089  0.0936 -0.3461 -0.6989
  171SOPE  H11X19386   6.058   3.431   8.037 -0.9260 -0.6076  0.0117
  171SOPE  H11Y19387   5.984   3.594   8.065 -0.4706 -1.0465 -0.6345
  171SOPE  C31219388   6.063   3.494   8.240  0.2191  0.3511  0.2535
  171SOPE  H12X19389   6.074   3.590   8.295  0.9828 -1.2299  2.9740
  171SOPE  H12Y19390   6.144   3.422   8.264  2.1292  2.9329  1.6660
  171SOPE  C31319391   5.932   3.421   8.273  0.1317 -0.2981 -0.0544
  171SOPE  H13X19392   5.924   3.327   8.215 -1.4232  1.2661 -2.4804
  171SOPE  H13Y19393   5.845   3.478   8.234 -0.4401 -1.6529 -0.7790
  171SOPE  C31419394   5.920   3.399   8.426 -0.1706 -0.1807  0.3304
  171SOPE  H14X19395   5.912   3.498   8.476 -0.0498  0.1118 -0.2366
  171SOPE  H14Y19396   6.015   3.353   8.462  0.3706  0.0113 -0.8250
  171SOPE  C31519397   5.795   3.312   8.458  0.6198 -0.0948  0.4851
  171SOPE  H15X19398   5.822   3.212   8.417  0.5847 -0.1926  0.7007
  171SOPE  H15Y19399   5.706   3.364   8.416  1.3534  1.7476  1.1442
  171SOPE  C31619400   5.772   3.285   8.606  0.1124  0.0626  0.4314
  171SOPE  H16X19401   5.678   3.227   8.606  0.3186 -0.2958 -1.5615
  171SOPE  H16Y19402   5.748   3.381   8.657 -0.5437  0.6282 -0.9210
  171SOPE  C31719403   5.880   3.211   8.683  0.2299  1.3444  0.5711
  171SOPE  H17X19404   5.971   3.272   8.699  2.5884 -1.6442 -1.0159
  171SOPE  H17Y19405   5.909   3.124   8.619 -0.4907  0.5433  1.3177
  171SOPE  C31819406   5.835   3.160   8.820  0.3737  0.2352 -0.7607
  171SOPE  H18X19407   5.734   3.115   8.813 -0.0151  0.6751  1.6919
  171SOPE  H18Y19408   5.841   3.242   8.894 -1.2111  0.6436 -1.0741
  171SOPE  H18Z19409   5.904   3.081   8.858  0.0706  0.3031 -0.0629
  172SOPE     N19410   0.349   5.845   6.412  0.7471 -0.2440  0.0583
  172SOPE   HN119411   0.338   5.948   6.398  0.4205 -0.0941  1.2856
  172SOPE   HN219412   0.404   5.818   6.496  1.1588  2.5601  0.7501
  172SOPE   HN319413   0.402   5.823   6.326 -0.3056  0.0646 -0.6837
  172SOPE   C1219414   0.225   5.775   6.416 -0.6018  0.4596  0.0772
  172SOPE  H12A19415   0.147   5.829   6.358 -0.0525 -1.0051 -2.0760
  172SOPE  H12B19416   0.200   5.761   6.524 -2.2187 -1.8431 -0.5513
  172SOPE   C1119417   0.245   5.635   6.354 -0.1974  0.3230  0.2176
  172SOPE  H11A19418   0.281   5.624   6.249 -0.3822 -1.4962  0.3255
  172SOPE  H11B19419   0.141   5.601   6.338  0.7190 -1.5805 -1.9719
  172SOPE     P19420   0.322   5.390   6.434  0.2062  0.2869 -0.0681
  172SOPE   O1319421   0.429   5.348   6.347 -0.4512 -0.6397  0.9045
  172SOPE   O1419422   0.192   5.338   6.393 -0.1485  0.6215 -0.8067
  172SOPE   O1219423   0.315   5.549   6.440 -0.0366  0.2866 -0.3395
  172SOPE   O1119424   0.348   5.346   6.589 -0.4851  0.4646 -0.0079
  172SOPE    C119425   0.481   5.322   6.635 -0.7874  0.5455  1.1425
  172SOPE    HA19426   0.558   5.329   6.555 -0.2725  3.2256  1.7997
  172SOPE    HB19427   0.498   5.222   6.679  1.6396  0.5585  0.3208
  172SOPE    C219428   0.533   5.422   6.739  0.3518 -0.5187  0.0576
  172SOPE    HS19429   0.642   5.411   6.761  0.7356  0.6414 -1.2444
  172SOPE   O2119430   0.460   5.397   6.857 -0.1574  0.1061  0.4379
  172SOPE   C2119431   0.505   5.309   6.945  0.4593 -0.1117  0.6021
  172SOPE   O2219432   0.607   5.243   6.939  0.1416 -0.0390 -0.6453
  172SOPE   C2219433   0.426   5.329   7.079  0.1659 -0.8486  0.5421
  172SOPE   H2R19434   0.414   5.232   7.130 -2.4396 -1.1451 -0.5553
  172SOPE   H2S19435   0.329   5.374   7.049  1.1802  0.7470 -0.4737
  172SOPE    C319436   0.507   5.567   6.694 -0.0971 -0.0029 -0.0018
  172SOPE    HX19437   0.401   5.588   6.670  0.2826  1.7065 -0.2148
  172SOPE    HY19438   0.560   5.576   6.597 -0.6537 -0.2456 -0.3307
  172SOPE   O3119439   0.547   5.666   6.794  0.3706  0.7098  0.0971
  172SOPE   C3119440   0.498   5.785   6.759 -0.2013  1.2297 -0.1505
  172SOPE   O3219441   0.449   5.811   6.649 -0.6389 -0.5978  0.0630
  172SOPE   C3219442   0.510   5.875   6.882 -0.2505  0.0284 -0.3584
  172SOPE   H2X19443   0.437   5.958   6.869  1.1417  1.6640  1.8991
  172SOPE   H2Y19444   0.616   5.906   6.872 -0.0345 -1.3218 -2.4024
  172SOPE   C2319445   0.505   5.404   7.186  1.2620 -0.0057 -0.2526
  172SOPE   H3R19446   0.520   5.508   7.148 -2.0072  0.8380  0.5300
  172SOPE   H3S19447   0.597   5.352   7.218  0.8892  0.3962  1.5380
  172SOPE   C2419448   0.422   5.425   7.318 -0.3162 -0.4629 -0.0806
  172SOPE   H4R19449   0.339   5.498   7.305  0.3265  0.3292  0.2501
  172SOPE   H4S19450   0.383   5.329   7.359 -1.8561 -0.5563 -1.6989
  172SOPE   C2519451   0.511   5.471   7.423 -0.3842 -0.2865 -0.1019
  172SOPE   H5R19452   0.589   5.392   7.425  1.6246  1.6091 -1.1888
  172SOPE   H5S19453   0.549   5.574   7.404 -1.9941 -0.1682 -2.9379
  172SOPE   C2619454   0.450   5.460   7.562 -0.3816  0.4107 -0.9183
  172SOPE   H6R19455   0.374   5.541   7.567 -0.2323  0.5006  0.2458
  172SOPE   H6S19456   0.402   5.361   7.575  1.3039  0.0365  3.2622
  172SOPE   C2719457   0.558   5.471   7.670 -0.4194 -0.4592 -0.3689
  172SOPE   H7R19458   0.633   5.391   7.654  1.0739  0.6563  0.8654
  172SOPE   H7S19459   0.606   5.571   7.660 -3.0404  1.1100  1.8852
  172SOPE   C2819460   0.497   5.468   7.819 -1.0635  0.0137  0.3579
  172SOPE   H8R19461   0.583   5.455   7.888 -1.8110 -0.4822  1.2041
  172SOPE   H8S19462   0.461   5.570   7.843 -1.0243 -0.2007  1.3585
  172SOPE   C2919463   0.410   5.352   7.854 -0.0675 -0.1574 -0.9530
  172SOPE   H9119464   0.335   5.341   7.775 -0.8642 -0.3988 -0.1704
  172SOPE  C21019465   0.412   5.275   7.959  0.3960 -0.4152 -0.1975
  172SOPE  H10119466   0.337   5.195   7.970  1.9285 -1.8944 -0.2429
  172SOPE  C21119467   0.497   5.292   8.086  0.3666 -0.2662 -0.2240
  172SOPE  H11R19468   0.508   5.399   8.114  0.4353 -0.4245  0.3764
  172SOPE  H11S19469   0.599   5.251   8.070  0.5624  0.1266 -0.0043
  172SOPE  C21219470   0.431   5.212   8.198 -0.1198  0.0350  0.4206
  172SOPE  H12R19471   0.404   5.112   8.159  1.0054 -0.8132  1.8088
  172SOPE  H12S19472   0.343   5.263   8.244  0.0989  0.6643  0.1531
  172SOPE  C21319473   0.529   5.205   8.314  0.9241  0.5574  0.5013
  172SOPE  H13R19474   0.566   5.309   8.326  1.7655  0.1803  1.2997
  172SOPE  H13S19475   0.610   5.136   8.282 -1.3980 -1.6618 -0.7717
  172SOPE  C21419476   0.480   5.148   8.451 -0.5349 -0.0124  0.1319
  172SOPE  H14R19477   0.500   5.039   8.437  0.4335 -0.0930  1.9666
  172SOPE  H14S19478   0.369   5.158   8.452 -0.5186  0.8434 -2.7067
  172SOPE  C21519479   0.552   5.197   8.572 -0.0851  0.2512 -0.0813
  172SOPE  H15R19480   0.659   5.182   8.546 -0.2713 -0.5448 -0.4137
  172SOPE  H15S19481   0.535   5.128   8.658  2.0709  0.1013  0.2520
  172SOPE  C21619482   0.519   5.342   8.615 -0.4049 -0.9462 -0.4979
  172SOPE  H16R19483   0.424   5.376   8.570  0.4816  2.3861  0.0142
  172SOPE  H16S19484   0.589   5.401   8.552 -2.1177 -2.2320 -3.7131
  172SOPE  C21719485   0.527   5.379   8.762  0.3222  0.8756 -1.0343
  172SOPE  H17R19486   0.434   5.338   8.809  1.2811  0.1437  0.2588
  172SOPE  H17S19487   0.520   5.489   8.773  0.8462  0.8663 -0.5542
  172SOPE  C21819488   0.647   5.319   8.832 -0.3376  0.1728  0.7514
  172SOPE  H18R19489   0.621   5.211   8.836  0.3653 -0.0561 -0.7982
  172SOPE  H18S19490   0.653   5.335   8.942 -1.1833  0.3944  0.7709
  172SOPE  H18T19491   0.743   5.339   8.780 -2.2662  0.0836 -2.9560
  172SOPE   C3319492   0.499   5.812   7.023 -0.0276  0.4606 -0.0475
  172SOPE   H3X19493   0.577   5.735   7.040 -0.7835 -0.7845 -2.0758
  172SOPE   H3Y19494   0.401   5.761   7.032  0.3303 -0.5722 -1.7074
  172SOPE   C3419495   0.486   5.921   7.131 -0.2181 -0.8110 -0.1915
  172SOPE   H4X19496   0.484   5.872   7.230 -1.6280 -0.6044 -0.1079
  172SOPE   H4Y19497   0.395   5.983   7.117  0.0573  0.2047  2.3698
  172SOPE   C3519498   0.600   6.017   7.142 -0.1791 -0.8611  0.0803
  172SOPE   H5X19499   0.581   6.096   7.065 -1.1778 -0.8594  0.3165
  172SOPE   H5Y19500   0.698   5.972   7.115 -1.6926 -2.2233 -3.4758
  172SOPE   C3619501   0.599   6.091   7.275  0.0205 -0.2914  0.1066
  172SOPE   H6X19502   0.494   6.091   7.312 -0.6234  2.4045 -1.5394
  172SOPE   H6Y19503   0.626   6.197   7.257  0.9957 -0.9878 -2.9245
  172SOPE   C3719504   0.689   6.031   7.388 -0.7158  0.1211 -0.1110
  172SOPE   H7X19505   0.789   6.010   7.344 -1.0340 -0.3900 -0.5978
  172SOPE   H7Y19506   0.637   5.941   7.427  1.4312 -1.2181 -0.2312
  172SOPE   C3819507   0.715   6.135   7.502  0.5491  0.2095 -0.4906
  172SOPE   H8X19508   0.650   6.223   7.482 -0.6318 -0.6497 -0.5020
  172SOPE   H8Y19509   0.815   6.175   7.475  0.6917  0.3077  0.1869
  172SOPE   C3919510   0.702   6.068   7.646 -0.5100 -0.2056 -0.1127
  172SOPE   H9X19511   0.760   5.974   7.642  2.6762  1.6876 -0.4884
  172SOPE   H9Y19512   0.593   6.051   7.661 -0.6998  0.9708 -0.0511
  172SOPE  C31019513   0.758   6.157   7.753 -0.1547  0.0787  0.6527
  172SOPE  H10X19514   0.755   6.264   7.723  3.8024  0.1341  0.2502
  172SOPE  H10Y19515   0.865   6.134   7.767  0.1146  0.7669 -0.2764
  172SOPE  C31119516   0.683   6.146   7.882  0.0079 -0.5132  0.1088
  172SOPE  H11X19517   0.677   6.038   7.905  0.8581 -0.7930 -0.9378
  172SOPE  H11Y19518   0.579   6.180   7.862 -0.4702 -1.0283  1.6473
  172SOPE  C31219519   0.732   6.226   8.003  0.0488 -0.2992 -0.0198
  172SOPE  H12X19520   0.749   6.334   7.979  1.8571 -0.2183  1.4793
  172SOPE  H12Y19521   0.832   6.186   8.029  1.1496  0.2835 -3.0807
  172SOPE  C31319522   0.654   6.209   8.133 -0.3112 -1.0043 -0.1841
  172SOPE  H13X19523   0.647   6.102   8.162  0.2416 -0.8507  0.5272
  172SOPE  H13Y19524   0.555   6.255   8.114  1.1365  1.8810 -0.9722
  172SOPE  C31419525   0.712   6.288   8.254 -0.0836 -0.2755  0.0910
  172SOPE  H14X19526   0.641   6.308   8.336 -0.4358  2.7207 -0.8892
  172SOPE  H14Y19527   0.748   6.388   8.223 -1.2817  0.8038  2.1027
  172SOPE  C31519528   0.836   6.225   8.318 -0.0666 -0.5297  0.9636
  172SOPE  H15X19529   0.917   6.234   8.243 -1.6071  1.1668 -0.5396
  172SOPE  H15Y19530   0.818   6.116   8.335  3.8861 -1.4108 -0.0113
  172SOPE  C31619531   0.892   6.285   8.453 -0.0417  0.0237 -0.1361
  172SOPE  H16X19532   0.816   6.285   8.534 -1.8586  0.9247 -1.8301
  172SOPE  H16Y19533   0.911   6.392   8.429 -1.3193  0.5455  1.1158
  172SOPE  C31719534   1.020   6.220   8.514 -0.2251  0.2892 -0.8921
  172SOPE  H17X19535   1.106   6.244   8.447  1.2712  0.4694  1.0548
  172SOPE  H17Y19536   1.005   6.110   8.509 -3.3962  0.4337  3.3100
  172SOPE  C31819537   1.058   6.276   8.650  0.0525  0.2870  0.3213
  172SOPE  H18X19538   1.078   6.385   8.647  1.5081  0.0448  0.6375
  172SOPE  H18Y19539   1.140   6.215   8.692  0.3747  0.0935 -0.5673
  172SOPE  H18Z19540   0.975   6.253   8.720  0.3220 -0.7907  0.2929
  173SAPI   C1219541   2.343   2.758  10.724  0.0437  1.1388 -0.3003
  173SAPI    H219542   2.287   2.769  10.628 -3.5930 -1.0851  1.4761
  173SAPI    O219543   2.388   2.618  10.734 -0.1647  0.0745  0.0378
  173SAPI   HO219544   2.305   2.570  10.727 -0.0206 -0.3299  0.9812
  173SAPI   C1319545   2.461   2.851  10.722  0.4362  0.3998 -0.0063
  173SAPI    H319546   2.420   2.954  10.716 -0.3396  0.1138  0.3079
  173SAPI    O319547   2.545   2.835  10.609 -0.3551  0.1880 -0.0457
  173SAPI   HO319548   2.540   2.923  10.571 -3.8750  0.0702 -0.0157
  173SAPI   C1419549   2.540   2.853  10.856  0.3150  0.0407 -0.9911
  173SAPI    H419550   2.573   2.748  10.874  1.9209 -0.0658 -4.2679
  173SAPI    O419551   2.649   2.945  10.845  0.4722  0.3109 -0.4378
  173SAPI   HO419552   2.725   2.891  10.826 -0.0274 -0.7409  0.4661
  173SAPI   C1519553   2.443   2.896  10.968  0.5611 -1.2267 -0.3031
  173SAPI    H519554   2.396   2.995  10.944 -0.4378 -0.9320  2.7075
  173SAPI    O519555   2.518   2.912  11.088  0.7692 -0.5217  0.0182
  173SAPI   HO519556   2.465   2.971  11.142 -0.2230 -0.9505 -0.4696
  173SAPI   C1619557   2.326   2.805  10.977 -0.3082  0.2179 -0.4865
  173SAPI    H619558   2.366   2.705  11.004  0.9434  0.1806 -2.3293
  173SAPI    O619559   2.228   2.844  11.077 -0.6068 -0.6683 -0.2700
  173SAPI   HO619560   2.163   2.774  11.074 -1.7382  0.3191  0.5576
  173SAPI   C1119561   2.255   2.790  10.847 -0.1987  0.2695  0.1044
  173SAPI    H119562   2.208   2.889  10.832 -0.3647  0.1323 -0.2774
  173SAPI     P19563   2.035   2.671  10.748 -0.1279 -0.4278 -0.1721
  173SAPI   O1319564   2.018   2.796  10.668 -0.4925  0.2061  0.2450
  173SAPI   O1419565   1.916   2.622  10.803  0.3237  0.1460 -0.5255
  173SAPI   O1219566   2.145   2.701  10.863  0.9826 -0.2163  0.0670
  173SAPI   O1119567   2.105   2.562  10.659  0.2187  0.1426  0.5139
  173SAPI    C119568   2.049   2.527  10.536  0.5909 -0.4277 -0.3347
  173SAPI    HA19569   2.013   2.422  10.539 -0.9358  0.0940  0.0187
  173SAPI    HB19570   1.956   2.580  10.507  1.8357  1.2729 -1.2695
  173SAPI    C219571   2.160   2.540  10.418 -0.4120  0.3556  0.4309
  173SAPI    HS19572   2.253   2.497  10.460 -0.3596  1.0427  1.0305
  173SAPI   O2119573   2.181   2.683  10.391 -1.1146  0.4047  0.5446
  173SAPI   C2119574   2.304   2.717  10.349 -0.8370 -0.5278 -0.2186
  173SAPI   O2219575   2.402   2.645  10.356 -0.3406 -0.3954  0.1784
  173SAPI   C2219576   2.300   2.864  10.292  0.1171  0.2060 -0.0183
  173SAPI   H2R19577   2.295   2.926  10.384  0.9183 -0.8599  0.7495
  173SAPI   H2S19578   2.401   2.878  10.247  0.2723  0.3726  0.3781
  173SAPI    C319579   2.126   2.462  10.291  0.2280 -0.7358 -0.2091
  173SAPI    HX19580   2.123   2.355  10.320  2.3862 -1.4198 -2.3530
  173SAPI    HY19581   2.217   2.473  10.229  0.2124 -1.0398 -0.2848
  173SAPI   O3119582   2.005   2.524  10.225  0.4808  0.8155  0.1622
  173SAPI   C3119583   1.889   2.468  10.268 -0.0910 -0.1262  0.2957
  173SAPI   O3219584   1.877   2.367  10.337  0.1322 -0.1194 -0.0375
  173SAPI   C3219585   1.771   2.556  10.248  0.9540 -0.4418 -0.2586
  173SAPI   H2X19586   1.798   2.663  10.238  0.3479 -0.2437  0.2133
  173SAPI   H2Y19587   1.710   2.551  10.340 -2.1464 -1.8051 -2.3293
  173SAPI   C2319588   2.183   2.911  10.209  0.0403  0.6627  0.2701
  173SAPI   H3R19589   2.198   3.019  10.188 -1.4214  1.0455  1.1151
  173SAPI   H3S19590   2.087   2.906  10.266  0.6756 -0.4993  1.2631
  173SAPI   C2419591   2.173   2.831  10.068 -0.3476 -0.7061 -0.0877
  173SAPI   H4R19592   2.155   2.722  10.080 -0.9848 -0.8350 -2.1042
  173SAPI   H4S19593   2.266   2.851  10.012  0.2584 -1.7753  0.5080
  173SAPI   C2519594   2.048   2.875   9.988  0.0777 -0.4757  0.2265
  173SAPI   H5R19595   1.953   2.852  10.038  0.1166  0.4749  0.7603
  173SAPI   C2619596   2.050   2.925   9.860 -0.4234  0.3805 -0.5265
  173SAPI   H6R19597   1.955   2.953   9.811 -0.4792  0.1809 -0.5328
  173SAPI   C2719598   2.169   2.954   9.780 -0.2977  0.0242  0.6368
  173SAPI   H7R19599   2.136   3.014   9.692  0.5155 -0.3346  0.0914
  173SAPI   H7S19600   2.210   2.858   9.743 -2.3013 -0.2781 -0.9125
  173SAPI   C2819601   2.285   3.038   9.845  0.9518  0.4834  0.2079
  173SAPI   H8R19602   2.255   3.101   9.930  0.6791  1.5579 -0.6671
  173SAPI   C2919603   2.415   3.038   9.810  0.1521  0.5539  0.0600
  173SAPI   H9R19604   2.485   3.103   9.863  0.3021 -0.1195  0.6949
  173SAPI  C21019605   2.473   2.948   9.694  0.4204 -0.3808 -0.1260
  173SAPI  H10R19606   2.430   2.847   9.712  1.6379 -1.3473 -2.4468
  173SAPI  H10S19607   2.584   2.947   9.704  0.3480  2.9279  1.5691
  173SAPI  C21119608   2.449   3.009   9.556 -0.4108 -0.0922  0.3269
  173SAPI  H11R19609   2.449   3.119   9.553  2.0591 -0.0753  0.1975
  173SAPI  C21219610   2.432   2.946   9.442 -0.6564 -1.0948 -0.9512
  173SAPI  H12R19611   2.403   3.004   9.353 -2.1273 -0.9729 -0.4058
  173SAPI  C21319612   2.432   2.796   9.425  0.7247  0.5614  0.5359
  173SAPI  H13R19613   2.328   2.773   9.392  0.6275  0.5338  0.8623
  173SAPI  H13S19614   2.427   2.742   9.521  0.2939  1.7406  1.1969
  173SAPI  C21419615   2.538   2.742   9.343  0.0188 -0.2743 -0.7367
  173SAPI  H14R19616   2.637   2.785   9.359 -0.9834  2.2838 -1.1335
  173SAPI  C21519617   2.513   2.665   9.231 -0.3582  0.3495 -0.1457
  173SAPI  H15R19618   2.599   2.648   9.165  0.8898 -0.1841  1.5864
  173SAPI  C21619619   2.377   2.618   9.184  0.4693 -0.6024  0.2697
  173SAPI  H16R19620   2.296   2.678   9.231  0.4881  0.4694 -1.0416
  173SAPI  H16S19621   2.359   2.511   9.210  0.9253 -1.0119 -1.0514
  173SAPI  C21719622   2.370   2.638   9.029  0.0143 -0.0711  0.0727
  173SAPI  H17R19623   2.272   2.597   8.997  0.6144 -1.2610 -0.3092
  173SAPI  H17S19624   2.450   2.590   8.967  0.3481  1.8790 -1.0555
  173SAPI  C21819625   2.374   2.783   8.981 -1.0404 -0.3570 -0.2976
  173SAPI  H18R19626   2.480   2.813   8.973 -0.4614 -1.7353  1.6989
  173SAPI  H18S19627   2.327   2.850   9.057 -0.0488 -1.2299  1.1255
  173SAPI  C21919628   2.311   2.793   8.844 -0.4403  0.0731  0.4182
  173SAPI  H19R19629   2.211   2.746   8.853 -0.9086  0.9409 -0.1865
  173SAPI  H19S19630   2.361   2.742   8.760  0.4547  4.1241 -1.6332
  173SAPI  C22019631   2.302   2.946   8.811  0.0864 -0.2486  0.0050
  173SAPI  H20R19632   2.403   2.987   8.788 -0.3739  0.4606 -0.7776
  173SAPI  H20S19633   2.256   3.001   8.895 -0.3981 -0.0485 -0.3930
  173SAPI  H20T19634   2.244   2.971   8.719  0.1485  0.8732  0.2658
  173SAPI   C3319635   1.712   2.518  10.113  0.3483  0.3329  0.3690
  173SAPI   H3X19636   1.627   2.580  10.079  0.4706  0.4289  0.2373
  173SAPI   H3Y19637   1.676   2.413  10.110 -2.0652  1.1116  1.1047
  173SAPI   C3419638   1.811   2.544   9.995 -0.1185  0.0751 -0.4940
  173SAPI   H4X19639   1.904   2.485  10.009 -0.3005 -0.0230  0.2817
  173SAPI   H4Y19640   1.844   2.650  10.002  1.9969 -0.6586  1.0574
  173SAPI   C3519641   1.749   2.516   9.857  0.7720 -0.1631 -0.6505
  173SAPI   H5X19642   1.670   2.591   9.835  0.7308  0.5235  1.6949
  173SAPI   H5Y19643   1.702   2.415   9.850 -2.3706  1.1448  0.4491
  173SAPI   C3619644   1.845   2.526   9.733 -0.0219  0.7547 -0.2792
  173SAPI   H6X19645   1.920   2.444   9.741  0.2153  0.8018 -1.9244
  173SAPI   H6Y19646   1.886   2.629   9.726 -1.3406  1.2411 -0.8785
  173SAPI   C3719647   1.770   2.500   9.604  0.7143 -0.4743 -0.8652
  173SAPI   H7X19648   1.682   2.568   9.606  1.7633  0.9145 -1.9179
  173SAPI   H7Y19649   1.727   2.397   9.613 -2.9303  1.1850  2.6439
  173SAPI   C3819650   1.840   2.524   9.474  0.0540 -0.4127 -0.5233
  173SAPI   H8X19651   1.759   2.506   9.400  1.0785  0.4125 -1.8746
  173SAPI   H8Y19652   1.923   2.458   9.443 -0.2164 -0.2241 -1.6779
  173SAPI   C3919653   1.889   2.672   9.466  0.2544 -0.2775 -0.0684
  173SAPI   H9X19654   1.948   2.696   9.557 -3.4893  1.0721  2.1335
  173SAPI   H9Y19655   1.800   2.738   9.460  1.7364  1.6363 -1.9710
  173SAPI  C31019656   1.981   2.715   9.351  0.5093 -0.2693 -0.4333
  173SAPI  H10X19657   1.931   2.690   9.255  0.2927  0.0516 -0.4043
  173SAPI  H10Y19658   2.069   2.650   9.367  1.6046  1.0921 -0.7938
  173SAPI  C31119659   2.000   2.870   9.343  0.4693  0.1012  0.8641
  173SAPI  H11X19660   2.054   2.907   9.433 -2.9270  0.9288  2.6663
  173SAPI  H11Y19661   1.897   2.911   9.330 -0.6631 -2.6865  0.7575
  173SAPI  C31219662   2.079   2.898   9.213  0.0093 -0.5757 -0.7393
  173SAPI  H12X19663   2.174   2.844   9.195 -0.7203 -2.3167  0.4537
  173SAPI  H12Y19664   2.103   3.006   9.225 -2.5277 -0.2060  1.6716
  173SAPI  C31319665   2.009   2.876   9.077 -0.7938  0.4863  0.0265
  173SAPI  H13X19666   1.993   2.768   9.059 -0.0072  0.3275  0.2448
  173SAPI  H13Y19667   2.077   2.907   8.995 -0.2133  0.0936  0.3537
  173SAPI  C31419668   1.880   2.954   9.046  0.7184 -0.1456 -0.1317
  173SAPI  H14X19669   1.888   3.053   9.096  1.4704  0.3603 -1.2250
  173SAPI  H14Y19670   1.796   2.900   9.094 -1.2731  1.5279 -1.6324
  173SAPI  C31519671   1.850   2.957   8.896 -0.9965 -0.1581  0.3783
  173SAPI  H15X19672   1.944   2.998   8.852 -0.2077 -1.1303  1.1372
  173SAPI  H15Y19673   1.757   3.012   8.870  0.5145  0.8497 -3.2305
  173SAPI  C31619674   1.830   2.816   8.840  0.5206 -0.1135  0.1597
  173SAPI  H16X19675   1.751   2.759   8.892  1.5795 -1.0138  0.8139
  173SAPI  H16Y19676   1.923   2.756   8.854  1.7801  1.2417 -2.1119
  173SAPI  C31719677   1.798   2.802   8.689 -0.0234  0.2398  0.1205
  173SAPI  H17X19678   1.711   2.869   8.669  0.7575  1.1091 -0.4091
  173SAPI  H17Y19679   1.751   2.702   8.679 -1.2345  0.7955  0.1160
  173SAPI  C31819680   1.917   2.826   8.588 -0.2966  0.1455 -0.0464
  173SAPI  H18X19681   1.998   2.754   8.613  0.7535  1.0473 -0.7840
  173SAPI  H18Y19682   1.945   2.933   8.578  2.1979 -0.5975 -1.7383
  173SAPI  H18Z19683   1.878   2.809   8.485 -0.6895  3.2562 -0.4480
  174SAPI   C1219684   5.416   3.868  10.872 -1.0618 -0.7090  0.8632
  174SAPI    H219685   5.462   3.774  10.908 -0.7316 -1.1625 -0.6973
  174SAPI    O219686   5.344   3.916  10.983  0.1153  0.7106  0.0177
  174SAPI   HO219687   5.380   3.873  11.061  2.1842  1.5003 -0.4730
  174SAPI   C1319688   5.539   3.968  10.843  0.6033 -0.2498 -0.7797
  174SAPI    H319689   5.599   3.928  10.759  0.4097 -0.1779 -0.9524
  174SAPI    O319690   5.634   3.981  10.945  0.0298 -0.1692 -0.3235
  174SAPI   HO319691   5.684   3.898  10.946  3.0642  1.5561  2.3327
  174SAPI   C1419692   5.481   4.103  10.798 -0.2971 -0.6621  0.1618
  174SAPI    H419693   5.413   4.150  10.873 -0.4957 -1.8286  0.7358
  174SAPI    O419694   5.587   4.197  10.773 -0.8825  0.3376 -0.1271
  174SAPI   HO419695   5.664   4.143  10.752 -1.6280  0.2592 -2.9194
  174SAPI   C1519696   5.386   4.081  10.679 -0.5089  0.2849  0.2006
  174SAPI    H519697   5.438   4.034  10.593 -1.7060 -3.0792  1.2454
  174SAPI    O519698   5.327   4.206  10.644 -0.4443  0.4539  0.6023
  174SAPI   HO519699   5.297   4.204  10.553  0.1893  0.9857  0.3859
  174SAPI   C1619700   5.274   3.986  10.703 -0.6839  0.0218 -0.6146
  174SAPI    H619701   5.220   4.026  10.791  1.9697 -2.4371  2.2439
  174SAPI    O619702   5.192   3.960  10.593 -0.5590 -0.7243  0.0575
  174SAPI   HO619703   5.099   3.975  10.608 -1.2566 -1.4325 -3.2559
  174SAPI   C1119704   5.326   3.847  10.748  0.1070 -0.1360  0.2724
  174SAPI    H119705   5.387   3.801  10.668 -0.8298 -0.6606 -0.1408
  174SAPI     P19706   5.243   3.593  10.774  0.1717  0.0821  0.4432
  174SAPI   O1319707   5.135   3.525  10.844 -0.7336 -0.3641  0.6683
  174SAPI   O1419708   5.380   3.568  10.825 -0.5373  0.0057 -0.2201
  174SAPI   O1219709   5.220   3.757  10.780  0.3628 -0.0951 -0.6010
  174SAPI   O1119710   5.226   3.561  10.622  0.0486 -0.5187 -0.2653
  174SAPI    C119711   5.137   3.635  10.535 -0.0488 -0.3217 -0.0899
  174SAPI    HA19712   5.063   3.699  10.588  0.3578 -0.3576  0.5273
  174SAPI    HB19713   5.194   3.703  10.469  0.7211 -0.0835  0.8243
  174SAPI    C219714   5.036   3.547  10.460  0.0080  0.0406  0.4469
  174SAPI    HS19715   4.986   3.474  10.527 -0.5377  0.4463  0.4828
  174SAPI   O2119716   5.102   3.484  10.357 -0.2403  0.0067  0.4090
  174SAPI   C2119717   5.050   3.361  10.332 -0.0779 -0.4850  0.3955
  174SAPI   O2219718   4.963   3.300  10.396 -0.1077 -0.4548 -0.4822
  174SAPI   C2219719   5.117   3.296  10.204 -0.2492 -0.3856  0.3562
  174SAPI   H2R19720   5.168   3.387  10.166 -0.6713 -1.3993 -2.8001
  174SAPI   H2S19721   5.193   3.216  10.220  0.8352  0.6869  0.6440
  174SAPI    C319722   4.913   3.629  10.398  0.0351 -0.1087 -0.0355
  174SAPI    HX19723   4.851   3.669  10.480  0.6156  0.7174  0.0059
  174SAPI    HY19724   4.841   3.557  10.353  2.2185  0.0884 -4.0642
  174SAPI   O3119725   4.954   3.729  10.293  0.4077  0.8421 -0.5144
  174SAPI   C3119726   4.962   3.855  10.333  0.1598  0.4561 -0.4131
  174SAPI   O3219727   4.901   3.891  10.436 -0.4844  0.5707  0.2133
  174SAPI   C3219728   5.053   3.952  10.254 -0.1647 -0.2599  0.3880
  174SAPI   H2X19729   5.142   3.975  10.316 -0.7894 -1.1734  1.6509
  174SAPI   H2Y19730   4.998   4.048  10.243  0.9469  0.3252 -0.0343
  174SAPI   C2319731   5.013   3.257  10.096 -0.6943  0.3100  0.2757
  174SAPI   H3R19732   4.943   3.340  10.075  1.9127  2.3640 -0.4376
  174SAPI   H3S19733   4.958   3.169  10.136  0.6707 -0.7525 -0.1395
  174SAPI   C2419734   5.079   3.233   9.960  0.0898  0.2120  0.0019
  174SAPI   H4R19735   5.171   3.171   9.962 -0.6462 -0.8926  3.2840
  174SAPI   H4S19736   5.101   3.332   9.914 -2.6344 -0.2647 -2.4947
  174SAPI   C2519737   4.998   3.152   9.862 -0.0907  0.3210  0.3790
  174SAPI   H5R19738   4.917   3.098   9.913  0.0767 -1.3259 -1.0507
  174SAPI   C2619739   5.012   3.131   9.732  0.2206 -0.6284 -0.6620
  174SAPI   H6R19740   4.933   3.085   9.670 -0.2438 -0.4772 -0.1812
  174SAPI   C2719741   5.124   3.197   9.655 -0.6258 -0.6662  0.6226
  174SAPI   H7R19742   5.176   3.113   9.603  2.5257  1.0169  0.9543
  174SAPI   H7S19743   5.206   3.245   9.711  0.6428 -0.3799 -1.4057
  174SAPI   C2819744   5.065   3.289   9.548  0.5809 -0.3591  0.4601
  174SAPI   H8R19745   5.014   3.370   9.602 -2.2565 -2.0738  0.4577
  174SAPI   C2919746   5.067   3.288   9.411  0.1811  0.2706  0.2856
  174SAPI   H9R19747   5.028   3.376   9.358  3.0150  2.4058  1.6136
  174SAPI  C21019748   5.121   3.193   9.310  0.1609  0.5190 -0.1647
  174SAPI  H10R19749   5.052   3.184   9.224 -0.0684  0.3013  0.0420
  174SAPI  H10S19750   5.118   3.091   9.355 -3.3021  0.8837  0.5755
  174SAPI  C21119751   5.252   3.231   9.247 -0.3713 -0.5097 -0.2352
  174SAPI  H11R19752   5.314   3.308   9.296  1.2192 -1.1655 -1.1951
  174SAPI  C21219753   5.307   3.180   9.138 -0.0288  0.0977 -0.3719
  174SAPI  H12R19754   5.397   3.232   9.100 -1.3246  1.4482 -1.6835
  174SAPI  C21319755   5.247   3.062   9.062  0.0990 -0.0231 -0.2392
  174SAPI  H13R19756   5.170   3.109   8.997 -1.3652 -1.2821  0.5629
  174SAPI  H13S19757   5.188   2.994   9.127 -2.4506  0.4909 -1.9331
  174SAPI  C21419758   5.345   2.981   8.978 -0.3321 -0.1387 -0.4975
  174SAPI  H14R19759   5.381   2.887   9.022 -1.3086 -1.1948 -1.8916
  174SAPI  C21519760   5.404   3.015   8.864  0.4622  0.2761 -0.4147
  174SAPI  H15R19761   5.485   2.947   8.835 -0.9242 -0.9198 -1.5392
  174SAPI  C21619762   5.372   3.145   8.790  0.9276  0.0720  0.1405
  174SAPI  H16R19763   5.460   3.212   8.775  0.0749  0.6947 -2.4357
  174SAPI  H16S19764   5.306   3.205   8.856  0.3476  0.2617 -0.6103
  174SAPI  C21719765   5.296   3.122   8.657 -0.0424 -0.0238 -0.1102
  174SAPI  H17R19766   5.271   3.219   8.611 -1.3514 -0.6580 -0.7361
  174SAPI  H17S19767   5.201   3.083   8.698 -0.8346  1.5322 -0.4419
  174SAPI  C21819768   5.357   3.031   8.549 -1.2517  0.0927  0.0555
  174SAPI  H18R19769   5.365   2.935   8.604 -1.6016 -0.2381 -0.4626
  174SAPI  H18S19770   5.463   3.061   8.531 -0.2407 -1.5056  3.0730
  174SAPI  C21919771   5.275   3.046   8.416 -0.6227  0.4090 -0.1260
  174SAPI  H19R19772   5.331   3.001   8.331 -0.3478 -0.1451  0.3503
  174SAPI  H19S19773   5.273   3.156   8.401  1.2355  0.9833  3.3193
  174SAPI  C22019774   5.135   2.995   8.424  0.2419  0.4664 -0.4802
  174SAPI  H20R19775   5.083   3.014   8.328  0.5840 -1.6521 -1.1113
  174SAPI  H20S19776   5.075   3.052   8.498 -1.5186 -0.1949 -1.3563
  174SAPI  H20T19777   5.136   2.886   8.448  2.1168  0.3038 -1.1869
  174SAPI   C3319778   5.100   3.891  10.122  0.5762  0.1404  0.0779
  174SAPI   H3X19779   5.130   3.963  10.044  0.8386 -0.9170 -0.8089
  174SAPI   H3Y19780   5.035   3.812  10.079 -2.0544  1.5556  1.2852
  174SAPI   C3419781   5.234   3.810  10.142 -0.0062  0.0533 -0.6968
  174SAPI   H4X19782   5.227   3.725  10.213  1.8457 -0.4533 -1.0809
  174SAPI   H4Y19783   5.317   3.864  10.193  0.1501 -1.3267  0.5427
  174SAPI   C3519784   5.294   3.765  10.005  0.1974 -0.1458  1.1334
  174SAPI   H5X19785   5.402   3.750  10.023  0.1084 -0.4401  1.4154
  174SAPI   H5Y19786   5.280   3.853   9.938 -0.1998 -1.7399 -0.9402
  174SAPI   C3619787   5.231   3.641   9.947 -0.1886  0.4217  0.3818
  174SAPI   H6X19788   5.123   3.658   9.928  0.2301  1.9333 -0.6965
  174SAPI   H6Y19789   5.238   3.550  10.010 -1.7295 -0.7686 -1.1354
  174SAPI   C3719790   5.284   3.588   9.810  0.0776 -0.6720 -0.3212
  174SAPI   H7X19791   5.223   3.497   9.790 -1.1864 -0.2427  1.5389
  174SAPI   H7Y19792   5.389   3.555   9.822  0.6420  1.0169 -0.4654
  174SAPI   C3819793   5.267   3.683   9.691 -0.3811 -0.3971 -0.3272
  174SAPI   H8X19794   5.338   3.768   9.698  1.2012 -1.7914  1.1657
  174SAPI   H8Y19795   5.170   3.736   9.702  0.1499  0.7050 -0.9179
  174SAPI   C3919796   5.295   3.617   9.549 -0.4289 -0.9392 -0.1825
  174SAPI   H9X19797   5.248   3.518   9.530 -2.7235 -0.3656  2.0967
  174SAPI   H9Y19798   5.403   3.620   9.526 -0.5660  2.0980 -0.6621
  174SAPI  C31019799   5.233   3.698   9.430  0.4422 -0.0002 -1.1118
  174SAPI  H10X19800   5.285   3.796   9.431 -1.0624  0.8857  2.7866
  174SAPI  H10Y19801   5.126   3.717   9.456  0.4132  1.5423 -2.3413
  174SAPI  C31119802   5.247   3.631   9.296 -0.1845  0.0164 -0.1794
  174SAPI  H11X19803   5.242   3.520   9.299  0.3496 -0.0851 -2.1192
  174SAPI  H11Y19804   5.349   3.662   9.264  0.7577 -1.1073  1.7023
  174SAPI  C31219805   5.140   3.673   9.201 -0.3216 -0.7119 -0.2857
  174SAPI  H12X19806   5.135   3.783   9.189 -0.9269 -0.5902  0.9667
  174SAPI  H12Y19807   5.039   3.646   9.241 -0.4818 -1.0231 -0.8883
  174SAPI  C31319808   5.142   3.586   9.071 -0.0693 -0.1751 -0.1947
  174SAPI  H13X19809   5.047   3.600   9.014 -1.7637 -1.9238  2.0831
  174SAPI  H13Y19810   5.147   3.477   9.092 -1.0232 -0.1889  0.0038
  174SAPI  C31419811   5.261   3.617   8.977  0.9722 -0.2385 -0.1237
  174SAPI  H14X19812   5.353   3.593   9.035  0.5109  0.1225  0.7672
  174SAPI  H14Y19813   5.264   3.725   8.949  3.3757 -0.0227  0.8825
  174SAPI  C31519814   5.252   3.545   8.845 -0.3954  0.2727 -0.0237
  174SAPI  H15X19815   5.152   3.562   8.800 -0.3296 -0.9261 -0.6560
  174SAPI  H15Y19816   5.265   3.435   8.856  0.7568  0.2682 -1.1474
  174SAPI  C31619817   5.373   3.572   8.748 -0.3863 -0.2435  0.5206
  174SAPI  H16X19818   5.458   3.504   8.770  0.4668  0.4722 -0.5220
  174SAPI  H16Y19819   5.403   3.678   8.765 -1.2790  0.2941 -1.1870
  174SAPI  C31719820   5.348   3.543   8.603 -0.0225  0.4426  0.4281
  174SAPI  H17X19821   5.245   3.573   8.575 -0.2858 -0.5647  0.2662
  174SAPI  H17Y19822   5.347   3.433   8.585  0.4572  0.2932  1.2698
  174SAPI  C31819823   5.449   3.609   8.502 -0.6903  0.5660  0.8623
  174SAPI  H18X19824   5.555   3.591   8.533  0.1823  0.8773 -1.8602
  174SAPI  H18Y19825   5.434   3.719   8.505 -2.2016  0.3328  2.4307
  174SAPI  H18Z19826   5.431   3.569   8.400  2.2617  1.3291 -0.0149
  175SAPI   C1219827   0.947   2.057   6.183 -0.2173  0.7918 -0.1736
  175SAPI    H219828   0.941   2.050   6.294 -0.1910  2.2533 -0.0689
  175SAPI    O219829   1.084   2.085   6.161  0.3625 -0.0157 -0.0626
  175SAPI   HO219830   1.093   2.174   6.197 -2.7567 -0.4882  2.1654
  175SAPI   C1319831   0.896   1.928   6.118 -0.5041 -1.0089 -0.3247
  175SAPI    H319832   0.786   1.916   6.133 -1.1016  1.5729 -2.1811
  175SAPI    O319833   0.961   1.808   6.161 -0.2015 -0.0205  0.3425
  175SAPI   HO319834   0.901   1.760   6.220 -0.0626  0.7165  1.0943
  175SAPI   C1419835   0.907   1.945   5.966 -0.0569 -0.0449 -0.0646
  175SAPI    H419836   1.014   1.945   5.936 -0.0649  0.3465 -0.0861
  175SAPI    O419837   0.846   1.835   5.890  0.4520 -0.7391 -0.4179
  175SAPI   HO419838   0.861   1.745   5.921 -1.2902 -0.6433  0.7856
  175SAPI   C1519839   0.841   2.072   5.921  0.2085  0.2733  0.1256
  175SAPI    H519840   0.732   2.055   5.934  0.2544 -0.5738 -0.5198
  175SAPI    O519841   0.857   2.087   5.775 -0.3911  0.0341 -0.1778
  175SAPI   HO519842   0.793   2.151   5.742 -2.0995 -0.9896  1.0242
  175SAPI   C1619843   0.883   2.202   5.992  0.3337 -0.8334 -0.1938
  175SAPI    H619844   0.990   2.222   5.973  0.1253  0.7531  0.2605
  175SAPI    O619845   0.813   2.312   5.947 -0.1190  0.0006  0.2371
  175SAPI   HO619846   0.730   2.316   5.995 -1.0034 -2.1304 -1.0381
  175SAPI   C1119847   0.861   2.177   6.148 -0.7503  0.4549  0.8689
  175SAPI    H119848   0.755   2.147   6.163 -0.3108 -1.7561 -0.3144
  175SAPI     P19849   0.774   2.388   6.276  0.0034 -0.3234  0.0904
  175SAPI   O1319850   0.660   2.387   6.181  0.1940 -0.0073  0.0322
  175SAPI   O1419851   0.839   2.515   6.313  0.1157 -0.0109 -0.2391
  175SAPI   O1219852   0.894   2.284   6.230 -0.1037 -0.7757 -0.3031
  175SAPI   O1119853   0.713   2.333   6.408  0.5087 -0.1815 -0.0775
  175SAPI    C119854   0.782   2.312   6.528 -0.1342 -0.1325  0.2122
  175SAPI    HA19855   0.856   2.393   6.546  2.3340 -2.2996  0.2497
  175SAPI    HB19856   0.708   2.302   6.610 -0.5859  0.5108 -0.1202
  175SAPI    C219857   0.852   2.172   6.528 -0.6649  0.1114  0.2467
  175SAPI    HS19858   0.930   2.174   6.449 -0.9938 -1.2093 -0.1237
  175SAPI   O2119859   0.747   2.071   6.498  0.2187  0.1680  0.0016
  175SAPI   C2119860   0.785   1.945   6.511 -0.4905 -0.5833 -0.0884
  175SAPI   O2219861   0.901   1.902   6.511  0.1433 -0.2389 -0.6221
  175SAPI   C2219862   0.651   1.870   6.522 -0.9271  0.6880  0.3072
  175SAPI   H2R19863   0.628   1.828   6.422  1.8277  1.6600 -0.7700
  175SAPI   H2S19864   0.676   1.776   6.576 -3.5727  1.3759  2.9043
  175SAPI    C319865   0.927   2.150   6.665  0.5752  0.1844 -0.5412
  175SAPI    HX19866   0.998   2.064   6.668 -0.6999 -0.8898 -0.4245
  175SAPI    HY19867   0.848   2.131   6.741 -0.6072  0.8964 -1.5679
  175SAPI   O3119868   0.992   2.269   6.711 -0.1949 -0.3895  0.6039
  175SAPI   C3119869   1.116   2.295   6.668  0.0694 -0.1497  0.7714
  175SAPI   O3219870   1.188   2.212   6.617  0.1671  1.0119  0.1246
  175SAPI   C3219871   1.154   2.439   6.689  0.3854  1.0232 -0.0111
  175SAPI   H2X19872   1.061   2.499   6.693  0.4052  1.0422  0.1645
  175SAPI   H2Y19873   1.204   2.471   6.595 -1.9708  1.9412 -0.9686
  175SAPI   C2319874   0.539   1.954   6.588  0.8495  0.2060  0.3874
  175SAPI   H3R19875   0.444   1.902   6.563 -0.0602  1.8151  0.4467
  175SAPI   H3S19876   0.532   2.054   6.541 -1.0135 -1.3489 -2.7822
  175SAPI   C2419877   0.548   1.969   6.747 -0.3407  0.0666 -0.4798
  175SAPI   H4R19878   0.462   2.025   6.791  0.2010 -0.4363  1.2643
  175SAPI   H4S19879   0.643   2.021   6.771  1.5767 -3.2007 -0.7260
  175SAPI   C2519880   0.555   1.834   6.821 -0.3869 -0.3729  0.3972
  175SAPI   H5R19881   0.581   1.748   6.758  2.8429  0.6560  0.1972
  175SAPI   C2619882   0.552   1.813   6.960 -0.1660  0.4109  1.0754
  175SAPI   H6R19883   0.534   1.711   6.996 -1.1014 -0.0160 -0.5427
  175SAPI   C2719884   0.538   1.910   7.071 -0.6192  0.5109 -0.0991
  175SAPI   H7R19885   0.453   1.894   7.140 -0.6216  3.8006  0.7354
  175SAPI   H7S19886   0.532   2.013   7.028  3.3296  0.8608 -0.0382
  175SAPI   C2819887   0.674   1.917   7.138 -0.1591  0.2357 -0.1269
  175SAPI   H8R19888   0.764   1.861   7.108 -0.2255  0.1722 -0.2058
  175SAPI   C2919889   0.692   1.981   7.256  0.4121 -0.2606 -0.0557
  175SAPI   H9R19890   0.790   1.985   7.305  0.0343 -1.4020  0.8280
  175SAPI  C21019891   0.588   2.047   7.348 -0.4303  0.1601  0.0243
  175SAPI  H10R19892   0.495   2.055   7.288 -0.3321 -1.7532 -0.4079
  175SAPI  H10S19893   0.616   2.151   7.373  0.1523  0.0299 -0.0903
  175SAPI  C21119894   0.573   1.953   7.465 -0.3521  0.3237  0.3966
  175SAPI  H11R19895   0.546   1.848   7.446  1.8601 -0.5368  1.8643
  175SAPI  C21219896   0.587   1.995   7.593  0.1700 -0.4971  0.0140
  175SAPI  H12R19897   0.551   1.931   7.675  0.1796  1.9237  1.9671
  175SAPI  C21319898   0.627   2.138   7.632 -0.1600 -0.2886 -0.1161
  175SAPI  H13R19899   0.539   2.205   7.622 -1.4449 -2.0778 -1.0695
  175SAPI  H13S19900   0.705   2.180   7.565  1.1952 -0.8356  1.0946
  175SAPI  C21419901   0.687   2.153   7.770 -0.1680 -0.1636 -0.6176
  175SAPI  H14R19902   0.796   2.158   7.784 -0.3266 -1.2293  1.3409
  175SAPI  C21519903   0.617   2.172   7.880 -0.2493  0.2129  0.3785
  175SAPI  H15R19904   0.656   2.186   7.981 -0.9890  1.1576  0.5412
  175SAPI  C21619905   0.466   2.161   7.888 -0.2949  0.3751 -0.1322
  175SAPI  H16R19906   0.419   2.174   7.788 -1.4717  0.7845  0.4591
  175SAPI  H16S19907   0.429   2.256   7.932 -4.1691 -0.4659 -1.3965
  175SAPI  C21719908   0.401   2.029   7.954  0.4268  0.6343  0.4720
  175SAPI  H17R19909   0.440   1.943   7.897  0.6699  1.0738 -0.0306
  175SAPI  H17S19910   0.291   2.036   7.942  0.1232  0.5892  2.8974
  175SAPI  C21819911   0.438   2.006   8.101 -0.8203  0.2541 -0.0204
  175SAPI  H18R19912   0.546   1.993   8.123 -1.1504 -0.3576  1.2856
  175SAPI  H18S19913   0.399   1.907   8.131  0.7973  0.1478  1.7701
  175SAPI  C21919914   0.381   2.109   8.199  0.2692 -0.0577 -0.1618
  175SAPI  H19R19915   0.270   2.103   8.193  0.4626 -1.9030 -2.8269
  175SAPI  H19S19916   0.415   2.204   8.152  2.1979 -1.6025 -2.0007
  175SAPI  C22019917   0.434   2.095   8.338  0.5486 -0.2122  0.0976
  175SAPI  H20R19918   0.411   1.992   8.372 -2.3913  0.3434 -0.0934
  175SAPI  H20S19919   0.384   2.163   8.410  1.9721  1.1871 -0.1889
  175SAPI  H20T19920   0.542   2.119   8.345  0.5309 -0.1587  0.1875
  175SAPI   C3319921   1.251   2.462   6.809 -0.2820 -0.3364  0.1476
  175SAPI   H3X19922   1.300   2.561   6.800  0.1686 -0.7461 -2.1250
  175SAPI   H3Y19923   1.337   2.390   6.805 -0.3410 -0.4251  0.4531
  175SAPI   C3419924   1.176   2.453   6.942 -0.3343 -0.5764  0.5385
  175SAPI   H4X19925   1.117   2.361   6.960  0.3352 -1.0183  0.5197
  175SAPI   H4Y19926   1.100   2.534   6.941 -0.7817 -1.0051 -0.0265
  175SAPI   C3519927   1.270   2.477   7.063  0.6397  0.2203  0.2936
  175SAPI   H5X19928   1.341   2.560   7.041  0.0199  0.3719 -1.1369
  175SAPI   H5Y19929   1.341   2.395   7.085  0.1734 -0.2639 -0.0035
  175SAPI   C3619930   1.208   2.517   7.191  0.2825  0.3269 -0.0207
  175SAPI   H6X19931   1.151   2.425   7.213  0.7110  0.5672  2.2489
  175SAPI   H6Y19932   1.145   2.609   7.182 -0.0733 -0.0157 -1.0685
  175SAPI   C3719933   1.314   2.548   7.300 -0.0247 -0.0092 -0.6214
  175SAPI   H7X19934   1.369   2.641   7.275 -2.4967  0.8619 -3.2436
  175SAPI   H7Y19935   1.382   2.461   7.312  0.1897  0.1379 -0.7767
  175SAPI   C3819936   1.254   2.576   7.447 -0.6561 -0.1207  0.4001
  175SAPI   H8X19937   1.212   2.480   7.483  1.0855 -2.3363 -3.2732
  175SAPI   H8Y19938   1.172   2.651   7.438 -0.9709 -0.6257 -1.0165
  175SAPI   C3919939   1.357   2.607   7.558  0.2495  0.4683  1.0881
  175SAPI   H9X19940   1.424   2.692   7.530 -0.1932 -0.1468 -2.0168
  175SAPI   H9Y19941   1.428   2.523   7.571 -0.6970 -0.4104  0.5913
  175SAPI  C31019942   1.285   2.636   7.698  0.1764 -0.3007  0.2793
  175SAPI  H10X19943   1.200   2.565   7.702  1.7688 -2.4846 -2.6955
  175SAPI  H10Y19944   1.241   2.737   7.704  0.9204  0.2226 -2.2122
  175SAPI  C31119945   1.369   2.592   7.815 -0.1772 -0.3651  0.1044
  175SAPI  H11X19946   1.473   2.628   7.800  0.3449 -1.5998  0.7320
  175SAPI  H11Y19947   1.362   2.483   7.836  0.4327 -0.6151 -0.9251
  175SAPI  C31219948   1.313   2.656   7.942 -0.4510  0.2213 -0.2115
  175SAPI  H12X19949   1.217   2.608   7.971 -0.6320  1.3429  1.1082
  175SAPI  H12Y19950   1.288   2.762   7.922 -2.3909 -0.3465 -0.9383
  175SAPI  C31319951   1.410   2.653   8.065 -0.3336 -0.1229 -1.0289
  175SAPI  H13X19952   1.490   2.730   8.057  0.5613 -0.9906 -0.5785
  175SAPI  H13Y19953   1.463   2.555   8.068  1.5558  0.7747 -3.7150
  175SAPI  C31419954   1.332   2.662   8.201  0.1984  0.0541 -0.2242
  175SAPI  H14X19955   1.252   2.587   8.216 -2.2252  2.8714  1.5730
  175SAPI  H14Y19956   1.295   2.767   8.208  1.9308  0.7524 -1.1719
  175SAPI  C31519957   1.423   2.640   8.321 -0.7047 -0.1249  0.3994
  175SAPI  H15X19958   1.518   2.696   8.318  0.5012 -2.0699  1.6536
  175SAPI  H15Y19959   1.455   2.535   8.337  0.7520  0.4513  1.3491
  175SAPI  C31619960   1.346   2.680   8.446  0.6509  0.3057 -0.1787
  175SAPI  H16X19961   1.251   2.626   8.466  0.4097  0.6822 -0.2991
  175SAPI  H16Y19962   1.310   2.784   8.431  1.1473  0.5716  0.4739
  175SAPI  C31719963   1.433   2.657   8.569  0.0351 -0.3352 -1.0790
  175SAPI  H17X19964   1.533   2.706   8.562  0.0294  0.1948  1.9812
  175SAPI  H17Y19965   1.465   2.553   8.592 -0.9186 -0.1939  0.9943
  175SAPI  C31819966   1.372   2.713   8.694  0.2661  0.0890 -0.1570
  175SAPI  H18X19967   1.379   2.824   8.688 -1.8806  0.3076  0.8132
  175SAPI  H18Y19968   1.428   2.671   8.781 -0.9950  2.3392  1.7739
  175SAPI  H18Z19969   1.269   2.671   8.700  0.1313  0.3363 -0.7519
  176SAPI   C1219970   0.227   0.074   6.672  0.3587 -0.2436  0.4673
  176SAPI    H219971   0.227   0.113   6.776 -1.2773  2.2688 -0.4253
  176SAPI    O219972   0.330  -0.026   6.652  0.3626  0.0859  0.0608
  176SAPI   HO219973   0.416   0.014   6.664  0.9385 -1.3021  0.7305
  176SAPI   C1319974   0.087   0.015   6.639  0.2381  0.8356  0.0150
  176SAPI    H319975   0.017   0.101   6.647 -2.2045 -1.2120  1.2241
  176SAPI    O319976   0.047  -0.075   6.749 -0.5483 -0.2325  0.1039
  176SAPI   HO319977   0.118  -0.138   6.763  0.1650  0.2739 -1.0467
  176SAPI   C1419978   0.066  -0.051   6.501  0.1475 -0.7486 -0.2073
  176SAPI    H419979   0.131  -0.140   6.490 -1.3083 -1.7913 -0.6179
  176SAPI    O419980  -0.075  -0.082   6.489  0.4306  0.1976 -0.1856
  176SAPI   HO419981  -0.108  -0.120   6.570  1.5208 -2.7858 -1.0336
  176SAPI   C1519982   0.105   0.050   6.392 -0.3938  0.3735  0.7729
  176SAPI    H519983   0.025   0.127   6.384  0.0286  0.9866  2.3609
  176SAPI    O519984   0.107  -0.014   6.261  0.1760 -0.5120 -0.2741
  176SAPI   HO519985   0.174  -0.080   6.242  0.9360  0.4739 -1.0300
  176SAPI   C1619986   0.241   0.117   6.421 -0.4346 -0.6770 -0.1066
  176SAPI    H619987   0.321   0.041   6.408  0.8596  0.8258 -1.2156
  176SAPI    O619988   0.268   0.220   6.326  0.2216 -0.3764 -0.0921
  176SAPI   HO619989   0.299   0.300   6.369  2.5386 -1.3708  0.1483
  176SAPI   C1119990   0.261   0.179   6.568 -0.2081  0.3117 -0.5303
  176SAPI    H119991   0.190   0.265   6.573  0.0062  0.4913 -0.5767
  176SAPI     P19992   0.441   0.383   6.574  0.0895  0.1379 -0.0266
  176SAPI   O1319993   0.367   0.436   6.457 -0.1892 -0.5159  0.2471
  176SAPI   O1419994   0.586   0.398   6.571  0.0338  0.4242  0.1455
  176SAPI   O1219995   0.395   0.227   6.598  0.0197 -0.0576  0.3876
  176SAPI   O1119996   0.387   0.450   6.708 -0.0339  0.3325  0.3366
  176SAPI    C119997   0.436   0.425   6.841  0.0355  0.7389  0.4994
  176SAPI    HA19998   0.362   0.365   6.898  0.9013  0.9664  1.8606
  176SAPI    HB19999   0.524   0.358   6.838 -0.2372  0.3197  1.8260
  176SAPI    C220000   0.454   0.552   6.920 -0.1742  0.2978  0.5459
  176SAPI    HS20001   0.530   0.520   6.994 -1.0215 -2.2939  0.3232
  176SAPI   O2120002   0.328   0.596   6.974 -0.2417  0.7185 -0.3101
  176SAPI   C2120003   0.312   0.568   7.101 -0.0850  0.3346 -0.7092
  176SAPI   O2220004   0.397   0.520   7.179 -0.0208 -0.3307  0.0792
  176SAPI   C2220005   0.165   0.596   7.126 -0.6357 -0.0067 -0.4736
  176SAPI   H2R20006   0.126   0.650   7.037  1.1784  2.7196  0.3159
  176SAPI   H2S20007   0.099   0.508   7.140 -0.2470  0.0058  1.7275
  176SAPI    C320008   0.515   0.671   6.836  0.1576  0.1607 -0.2716
  176SAPI    HX20009   0.444   0.703   6.756 -1.4548 -2.0010  0.2273
  176SAPI    HY20010   0.610   0.629   6.797 -1.0661 -0.3904 -2.7969
  176SAPI   O3120011   0.538   0.783   6.923  0.2686  0.4383  0.0386
  176SAPI   C3120012   0.617   0.877   6.867  0.5910  0.2204 -0.0019
  176SAPI   O3220013   0.652   0.872   6.749  0.3329  0.0368  0.6598
  176SAPI   C3220014   0.675   0.981   6.966 -0.5480  0.2821  0.0948
  176SAPI   H2X20015   0.585   1.017   7.020  0.6635  4.2416 -0.3277
  176SAPI   H2Y20016   0.711   1.064   6.901  1.8163 -1.5936 -1.0440
  176SAPI   C2320017   0.162   0.680   7.260  0.5691 -0.7745 -0.4688
  176SAPI   H3R20018   0.069   0.742   7.261  1.7611  1.0757 -0.8671
  176SAPI   H3S20019   0.241   0.758   7.253 -0.0459 -0.0456  0.4724
  176SAPI   C2420020   0.174   0.596   7.387 -0.4677 -0.2624 -0.0132
  176SAPI   H4R20021   0.275   0.548   7.383 -0.6439 -0.5075 -2.2157
  176SAPI   H4S20022   0.102   0.511   7.386 -1.1360  0.2789  1.4559
  176SAPI   C2520023   0.154   0.678   7.514  0.4341 -0.3708  0.2804
  176SAPI   H5R20024   0.149   0.787   7.505  4.4405 -0.0221  1.1935
  176SAPI   C2620025   0.149   0.623   7.637  0.5294 -0.1681 -0.0880
  176SAPI   H6R20026   0.145   0.695   7.720 -0.0262 -0.4848  0.1616
  176SAPI   C2720027   0.155   0.480   7.680  1.0515 -0.4150 -0.2413
  176SAPI   H7R20028   0.261   0.464   7.711  0.7348 -2.5649 -0.1700
  176SAPI   H7S20029   0.143   0.407   7.598  0.4574 -1.6257  0.8945
  176SAPI   C2820030   0.064   0.448   7.803 -1.2707  0.5109 -0.0656
  176SAPI   H8R20031  -0.027   0.388   7.790 -0.6586 -1.0071  2.4076
  176SAPI   C2920032   0.077   0.483   7.933 -0.5192 -0.1402  0.7211
  176SAPI   H9R20033   0.001   0.447   8.004 -1.6345  0.3451 -0.1945
  176SAPI  C21020034   0.194   0.562   7.982 -0.6683 -0.1498 -0.4613
  176SAPI  H10R20035   0.149   0.656   8.019  1.4830  0.7219  0.0644
  176SAPI  H10S20036   0.258   0.592   7.896 -3.5140  1.4847 -2.0636
  176SAPI  C21120037   0.274   0.491   8.085 -0.0710 -0.1676 -0.0366
  176SAPI  H11R20038   0.304   0.391   8.049  1.3729  0.3732 -0.3728
  176SAPI  C21220039   0.296   0.528   8.213  0.3236  0.4042 -0.9336
  176SAPI  H12R20040   0.363   0.471   8.279  0.0507  2.6006  1.3328
  176SAPI  C21320041   0.241   0.651   8.278  0.2952 -0.5225  0.6984
  176SAPI  H13R20042   0.249   0.629   8.386  5.3686 -2.1737  0.1609
  176SAPI  H13S20043   0.133   0.665   8.261  0.4824  1.8313  1.3211
  176SAPI  C21420044   0.320   0.773   8.237  0.2835 -0.4386  0.0098
  176SAPI  H14R20045   0.403   0.756   8.166  0.1509 -0.5963 -0.1082
  176SAPI  C21520046   0.292   0.899   8.282  0.1864 -0.9780 -0.3687
  176SAPI  H15R20047   0.354   0.985   8.252 -3.0879  0.9446 -1.8335
  176SAPI  C21620048   0.185   0.913   8.382 -0.2373  0.4881  0.8320
  176SAPI  H16R20049   0.199   0.854   8.475  1.2774  1.4921  1.2581
  176SAPI  H16S20050   0.093   0.880   8.330  0.3972 -0.6554  0.4262
  176SAPI  C21720051   0.163   1.058   8.426  0.3582  0.0038  0.2310
  176SAPI  H17R20052   0.249   1.107   8.476  0.8880  0.7421 -1.3679
  176SAPI  H17S20053   0.085   1.059   8.505  0.5938  2.2717  0.4724
  176SAPI  C21820054   0.121   1.168   8.319 -0.1420 -0.0710  0.1016
  176SAPI  H18R20055   0.209   1.156   8.253 -0.8676 -0.4340 -0.7995
  176SAPI  H18S20056   0.109   1.270   8.362 -1.9132  0.4374 -1.5185
  176SAPI  C21920057   0.002   1.136   8.229 -0.3251 -0.1993  0.2348
  176SAPI  H19R20058  -0.079   1.095   8.293 -0.2521  1.1584  1.2179
  176SAPI  H19S20059   0.034   1.046   8.170 -1.3840 -1.2687  1.2726
  176SAPI  C22020060  -0.038   1.247   8.134 -0.0553 -0.5554 -0.4889
  176SAPI  H20R20061   0.043   1.282   8.067 -0.3936 -1.4297 -1.3689
  176SAPI  H20S20062  -0.066   1.344   8.181  2.0689  0.5980 -1.5452
  176SAPI  H20T20063  -0.114   1.211   8.061 -0.4259 -2.4079  0.7666
  176SAPI   C3320064   0.785   0.921   7.048  0.2655  0.3404  0.1870
  176SAPI   H3X20065   0.845   1.007   7.086  2.6987 -0.7763 -0.9801
  176SAPI   H3Y20066   0.855   0.860   6.987  1.4446  2.6639 -0.8550
  176SAPI   C3420067   0.742   0.835   7.166  0.3507 -0.2400 -0.4183
  176SAPI   H4X20068   0.834   0.795   7.215  0.1756 -0.4378 -0.2469
  176SAPI   H4Y20069   0.689   0.746   7.126 -0.5105 -0.7240  1.7221
  176SAPI   C3520070   0.655   0.899   7.271 -0.0559 -0.0246 -0.1232
  176SAPI   H5X20071   0.559   0.919   7.219 -0.7823 -1.2195  0.7182
  176SAPI   H5Y20072   0.706   0.989   7.311  0.6637  0.0000 -1.0858
  176SAPI   C3620073   0.628   0.819   7.397 -0.1579  0.3131 -0.7208
  176SAPI   H6X20074   0.722   0.782   7.441 -1.8003 -1.2964  1.5411
  176SAPI   H6Y20075   0.579   0.723   7.371 -0.5041 -0.1218  1.4495
  176SAPI   C3720076   0.538   0.896   7.499 -0.7197 -0.4844  0.5564
  176SAPI   H7X20077   0.450   0.928   7.439 -0.5776  2.0966  1.6557
  176SAPI   H7Y20078   0.594   0.984   7.537 -2.9256  1.1492  0.1330
  176SAPI   C3820079   0.481   0.818   7.614 -0.5781 -0.4163 -0.3416
  176SAPI   H8X20080   0.407   0.754   7.560  1.2036 -1.4633 -1.5906
  176SAPI   H8Y20081   0.425   0.889   7.679 -2.4429 -1.6973 -0.4851
  176SAPI   C3920082   0.582   0.739   7.698 -0.0135  0.2722  0.0952
  176SAPI   H9X20083   0.650   0.814   7.742  0.9639 -0.7803  0.4080
  176SAPI   H9Y20084   0.640   0.675   7.629 -0.3324 -0.1960  0.2566
  176SAPI  C31020085   0.538   0.650   7.811  0.4379 -0.1132 -0.0359
  176SAPI  H10X20086   0.455   0.580   7.786 -0.1416 -0.3420  2.3593
  176SAPI  H10Y20087   0.503   0.726   7.884  0.5571  2.2133 -2.3242
  176SAPI  C31120088   0.657   0.565   7.874  0.3017 -0.5421  0.2622
  176SAPI  H11X20089   0.732   0.629   7.925 -0.4489  1.1580 -0.7482
  176SAPI  H11Y20090   0.703   0.524   7.781  1.0382  1.2871 -0.2056
  176SAPI  C31220091   0.612   0.448   7.961 -0.0629  0.6327 -0.7941
  176SAPI  H12X20092   0.558   0.367   7.907  2.2753 -1.1170 -0.6254
  176SAPI  H12Y20093   0.556   0.503   8.039  0.3171 -0.3257  0.1786
  176SAPI  C31320094   0.729   0.378   8.034 -0.9848  0.4187 -0.0604
  176SAPI  H13X20095   0.795   0.455   8.080 -1.4077 -0.4731  2.1030
  176SAPI  H13Y20096   0.801   0.332   7.963  1.5461  1.9500  1.4089
  176SAPI  C31420097   0.680   0.272   8.144 -0.4277  0.0739 -0.4403
  176SAPI  H14X20098   0.588   0.305   8.196  0.0019  2.8290 -1.3431
  176SAPI  H14Y20099   0.767   0.266   8.212 -0.4457  2.0832 -0.2251
  176SAPI  C31520100   0.656   0.141   8.068 -0.1451  0.4418 -0.1746
  176SAPI  H15X20101   0.751   0.121   8.014 -0.0654  0.0843  0.0968
  176SAPI  H15Y20102   0.575   0.161   7.995  0.4243  1.6642 -0.4878
  176SAPI  C31620103   0.615   0.039   8.176 -0.3409  0.0477 -0.3655
  176SAPI  H16X20104   0.532   0.091   8.228 -0.7198 -1.8624  0.9978
  176SAPI  H16Y20105   0.700   0.022   8.246 -1.5618  1.4426  1.4875
  176SAPI  C31720106   0.572  -0.104   8.119 -0.0878 -0.0472 -0.4282
  176SAPI  H17X20107   0.650  -0.140   8.049 -0.9751  0.9822 -1.9739
  176SAPI  H17Y20108   0.488  -0.092   8.048  0.7823  0.9069 -1.3062
  176SAPI  C31820109   0.550  -0.208   8.231  0.0138 -0.0053  0.1982
  176SAPI  H18X20110   0.520  -0.310   8.198  0.2322  0.2896 -0.9066
  176SAPI  H18Y20111   0.468  -0.175   8.299 -0.3208  0.2576 -0.3298
  176SAPI  H18Z20112   0.648  -0.207   8.283 -0.0127 -1.0218  0.2769
  177SLPC     N20113   0.116   3.635  11.186  0.1859 -0.2763  0.0399
  177SLPC   C1320114   0.247   3.588  11.226 -0.1911  0.2091  0.0818
  177SLPC  H13A20115   0.323   3.619  11.155 -0.8200 -0.4839 -0.9022
  177SLPC  H13B20116   0.277   3.615  11.327  1.6976 -1.2446 -0.0685
  177SLPC  H13C20117   0.250   3.480  11.225  0.9098  0.2361  0.0265
  177SLPC   C1420118   0.111   3.786  11.204  0.8036  0.4905 -0.1196
  177SLPC  H14A20119   0.143   3.812  11.303 -0.3408  0.6557  0.2178
  177SLPC  H14B20120   0.193   3.825  11.146  1.6140 -1.0691 -0.0584
  177SLPC  H14C20121   0.018   3.835  11.176 -0.1099 -1.3449 -0.3790
  177SLPC   C1520122   0.009   3.579  11.274 -0.0783  0.4089 -0.1283
  177SLPC  H15A20123  -0.093   3.608  11.251 -0.6472 -0.7386  0.9085
  177SLPC  H15B20124   0.009   3.471  11.279  2.0126  0.2585 -2.6705
  177SLPC  H15C20125   0.040   3.613  11.372  1.3421 -3.2325  0.7823
  177SLPC   C1220126   0.100   3.598  11.037  0.5653 -0.6174  0.8287
  177SLPC  H12A20127   0.085   3.493  11.019 -0.1217 -0.6014  1.2681
  177SLPC  H12B20128   0.187   3.640  10.988 -0.3437 -0.0280 -0.2993
  177SLPC   C1120129  -0.028   3.642  10.953  1.0770  0.2570  0.0009
  177SLPC  H11A20130  -0.011   3.630  10.844  1.3547 -0.7333  0.1462
  177SLPC  H11B20131  -0.046   3.751  10.967 -2.1206  0.0276 -1.9165
  177SLPC     P20132  -0.161   3.420  10.994  0.0464  0.0582 -0.2278
  177SLPC   O1320133  -0.059   3.353  11.072 -0.0436  0.0937 -0.0380
  177SLPC   O1420134  -0.304   3.392  11.024 -0.7818  0.2019 -0.3194
  177SLPC   O1220135  -0.148   3.573  11.002 -0.0866  0.0823 -0.6539
  177SLPC   O1120136  -0.129   3.392  10.845 -0.1729  0.3514  0.0348
  177SLPC    C120137  -0.227   3.436  10.751  0.3496 -0.7022 -0.1001
  177SLPC    HA20138  -0.312   3.365  10.740  0.0475 -0.7267  2.2511
  177SLPC    HB20139  -0.282   3.529  10.779 -3.4353 -2.1848 -2.1534
  177SLPC    C220140  -0.173   3.452  10.604  1.4080  0.0283  0.1751
  177SLPC    HS20141  -0.138   3.349  10.580 -0.1740 -0.7466  1.0814
  177SLPC   O2120142  -0.088   3.566  10.591  0.5946  0.3217 -0.0438
  177SLPC   C2120143   0.035   3.540  10.608  1.1533 -0.5252  0.2711
  177SLPC   O2220144   0.082   3.431  10.644 -0.4631 -0.4499  0.2984
  177SLPC   C2220145   0.119   3.660  10.566  0.0077  0.1705  0.0658
  177SLPC   H2R20146   0.051   3.722  10.505 -0.7791  1.3462  2.1000
  177SLPC   H2S20147   0.139   3.722  10.656  0.1435  0.9805 -0.5262
  177SLPC    C320148  -0.288   3.477  10.491  1.1147  0.7952  0.2429
  177SLPC    HX20149  -0.330   3.578  10.509  0.8749  0.4318  1.8440
  177SLPC    HY20150  -0.377   3.415  10.518  1.2449  0.4648 -0.0812
  177SLPC   O3120151  -0.241   3.445  10.353 -0.0802 -0.3804  0.0087
  177SLPC   C3120152  -0.241   3.553  10.282  0.2695  0.1546  0.1389
  177SLPC   O3220153  -0.255   3.666  10.327 -0.2527 -0.0316 -0.0362
  177SLPC   C3220154  -0.210   3.529  10.134  0.2519  0.4961  0.3013
  177SLPC   H2X20155  -0.277   3.444  10.107 -0.3396 -0.0310  3.2433
  177SLPC   H2Y20156  -0.106   3.490  10.128  1.1205  2.5573  1.5370
  177SLPC   C2320157   0.254   3.622  10.503  0.1780  0.0435 -0.1949
  177SLPC   H3R20158   0.222   3.544  10.431 -2.6833 -1.0185  2.1214
  177SLPC   H3S20159   0.318   3.563  10.572 -1.3944 -0.1806  1.0881
  177SLPC   C2420160   0.339   3.730  10.437  0.4255 -0.4078  0.5694
  177SLPC   H4R20161   0.429   3.675  10.403  0.1816  0.9687 -2.4572
  177SLPC   H4S20162   0.382   3.798  10.514  3.8244 -1.5749 -0.1931
  177SLPC   C2520163   0.281   3.810  10.321  0.1124 -0.7863 -0.1929
  177SLPC   H5R20164   0.345   3.885  10.271 -1.0265 -0.8856 -1.8552
  177SLPC   H5S20165   0.209   3.878  10.373  1.6406  1.0984 -0.5182
  177SLPC   C2620166   0.215   3.731  10.209 -0.7155  0.1960 -0.2999
  177SLPC   H6R20167   0.134   3.671  10.255  0.5248 -0.7069  0.7257
  177SLPC   H6S20168   0.289   3.654  10.179  0.3766  0.7480  0.9075
  177SLPC   C2720169   0.164   3.822  10.093  0.6173  0.0919  0.3057
  177SLPC   H7R20170   0.099   3.902  10.135 -1.7496 -0.8537 -1.4560
  177SLPC   H7S20171   0.101   3.752  10.035 -1.3015  2.2624 -0.3048
  177SLPC   C2820172   0.274   3.881  10.011  0.1971 -0.5088 -0.1609
  177SLPC   H8R20173   0.349   3.937  10.072 -0.7196  1.5645 -0.9040
  177SLPC   H8S20174   0.231   3.963   9.950  0.5502 -1.8280 -2.2256
  177SLPC   C2920175   0.323   3.775   9.920 -0.4121  0.6745  0.1172
  177SLPC   H9R20176   0.417   3.720   9.935  0.5722  2.2343 -0.2873
  177SLPC  C21020177   0.256   3.737   9.803 -0.1154  0.1899  0.4674
  177SLPC  H10R20178   0.320   3.671   9.743 -0.0202  0.5689  0.1503
  177SLPC  C21120179   0.136   3.792   9.736 -0.0640 -0.2507 -0.6828
  177SLPC  H11R20180   0.058   3.717   9.711 -2.6796  1.0241  3.2025
  177SLPC  H11S20181   0.095   3.869   9.805 -3.6478 -1.1862 -1.6744
  177SLPC  C21220182   0.186   3.884   9.621 -0.3618 -0.2020 -0.5151
  177SLPC  H12R20183   0.233   3.979   9.650 -0.0812 -0.6981  0.7303
  177SLPC  C21320184   0.167   3.853   9.492 -0.5248  0.2356 -0.0039
  177SLPC  H13R20185   0.199   3.929   9.419  2.0888 -0.1848  0.6412
  177SLPC  C21420186   0.085   3.735   9.437 -0.4341  0.0268  0.5300
  177SLPC  H14R20187   0.007   3.711   9.512 -0.0415  0.2084  1.0054
  177SLPC  H14S20188   0.141   3.640   9.452 -1.7327 -1.1494 -1.7435
  177SLPC  C21520189   0.024   3.742   9.296 -0.3123 -0.6536 -0.1128
  177SLPC  H15R20190  -0.036   3.835   9.284 -0.4719 -0.3660  2.5373
  177SLPC  H15S20191  -0.042   3.654   9.282 -0.8045 -0.6339  1.9038
  177SLPC  C21620192   0.133   3.758   9.188 -0.0324 -0.3353  0.2049
  177SLPC  H16R20193   0.205   3.677   9.213  0.9645  0.6632  0.6278
  177SLPC  H16S20194   0.191   3.851   9.204 -1.6658  0.5682  0.9132
  177SLPC  C21720195   0.091   3.744   9.043  0.5527  0.3605 -0.2079
  177SLPC  H17R20196   0.009   3.813   9.015  0.9818  1.1100  0.3811
  177SLPC  H17S20197   0.044   3.644   9.024  0.5564  0.6015 -1.5729
  177SLPC  C21820198   0.212   3.762   8.954 -0.0377 -0.1037 -0.3471
  177SLPC  H18R20199   0.290   3.686   8.972 -0.4470 -0.7618 -1.2913
  177SLPC  H18S20200   0.253   3.865   8.954 -2.2147  0.7910 -0.5439
  177SLPC  H18T20201   0.190   3.752   8.845 -1.0583  0.2360 -0.1828
  177SLPC   C3320202  -0.248   3.646  10.037 -0.7124  0.8458  0.7848
  177SLPC   H3X20203  -0.171   3.726  10.036 -0.9278  1.0513  0.2620
  177SLPC   H3Y20204  -0.351   3.686  10.038 -1.0646  0.0058 -0.6876
  177SLPC   C3420205  -0.245   3.599   9.889  0.0377 -0.3265 -0.2348
  177SLPC   H4X20206  -0.322   3.521   9.867 -0.7246 -0.4931  2.9078
  177SLPC   H4Y20207  -0.151   3.545   9.865 -0.2105 -0.8547 -0.0418
  177SLPC   C3520208  -0.259   3.720   9.801  0.2280 -0.4532 -0.3335
  177SLPC   H5X20209  -0.157   3.763   9.806  0.2016 -0.1739 -2.1515
  177SLPC   H5Y20210  -0.331   3.786   9.854  0.2579 -0.2487 -0.5463
  177SLPC   C3620211  -0.308   3.681   9.663 -0.0476  0.0649 -0.1107
  177SLPC   H6X20212  -0.413   3.647   9.667 -0.1065  0.1285 -0.9596
  177SLPC   H6Y20213  -0.244   3.605   9.612  2.4588  0.7219  1.9234
  177SLPC   C3720214  -0.311   3.796   9.569 -0.5272  0.9770 -0.3320
  177SLPC   H7X20215  -0.217   3.853   9.584  0.7572 -1.3332  0.7760
  177SLPC   H7Y20216  -0.391   3.863   9.607  0.0431  1.6869 -0.3724
  177SLPC   C3820217  -0.330   3.758   9.420 -0.1863 -0.3384 -0.2314
  177SLPC   H8X20218  -0.424   3.700   9.409 -2.0187  2.1665  1.5923
  177SLPC   H8Y20219  -0.239   3.701   9.393  0.0264  0.5349 -1.4040
  177SLPC   C3920220  -0.340   3.875   9.324  0.2592 -0.1860 -0.4729
  177SLPC   H9X20221  -0.250   3.937   9.342 -0.6076  0.8109  0.5488
  177SLPC   H9Y20222  -0.434   3.931   9.347  1.1214  1.0412  0.1260
  177SLPC  C31020223  -0.348   3.831   9.175 -0.9075 -0.1116  0.6885
  177SLPC  H10X20224  -0.451   3.802   9.146 -0.4395  0.1203 -1.2399
  177SLPC  H10Y20225  -0.288   3.744   9.143 -1.1504  0.3249 -0.9984
  177SLPC  C31120226  -0.308   3.946   9.084  0.3072 -0.1576 -0.4337
  177SLPC  H11X20227  -0.203   3.980   9.086  0.8617 -1.7070 -1.7434
  177SLPC  H11Y20228  -0.383   4.024   9.109  1.0473  0.6774 -0.7940
  177SLPC  C31220229  -0.333   3.898   8.935 -0.5384  0.0663  0.1897
  177SLPC  H12X20230  -0.438   3.863   8.928 -0.2380 -1.2205  1.9535
  177SLPC  H12Y20231  -0.262   3.817   8.909 -0.1298 -0.4887  2.9199
  177SLPC  C31320232  -0.313   4.009   8.831  0.3457  0.6836 -0.6077
  177SLPC  H13X20233  -0.390   4.088   8.846 -1.4162 -1.2520  1.0553
  177SLPC  H13Y20234  -0.343   3.974   8.730  0.8917  0.5221 -0.7112
  177SLPC  C31420235  -0.166   4.051   8.824  0.2729 -0.2682  0.3145
  177SLPC  H14X20236  -0.095   3.974   8.788  0.9781 -0.0496  1.2167
  177SLPC  H14Y20237  -0.145   4.090   8.926  1.0392  0.0023  0.0540
  177SLPC  C31520238  -0.149   4.168   8.729  0.3631 -0.8791  0.1872
  177SLPC  H15X20239  -0.221   4.253   8.735 -0.1739 -1.2680 -0.6027
  177SLPC  H15Y20240  -0.172   4.134   8.626  0.6855  0.5903 -0.3899
  177SLPC  C31620241  -0.002   4.218   8.739 -0.7207 -0.0183 -0.2652
  177SLPC  H16X20242   0.058   4.135   8.696  0.0711 -0.6200  1.9441
  177SLPC  H16Y20243   0.031   4.232   8.844  1.7289 -1.4854 -0.7823
  177SLPC  C31720244   0.004   4.355   8.677 -0.3145  0.4154  0.4758
  177SLPC  H17X20245  -0.054   4.430   8.734 -1.8569 -1.4862  1.4742
  177SLPC  H17Y20246  -0.039   4.352   8.575 -0.4143  0.5605  0.5142
  177SLPC  C31820247   0.148   4.408   8.654 -0.1767  0.8005  0.1060
  177SLPC  H18X20248   0.190   4.383   8.554 -0.6212 -1.5259  0.4691
  177SLPC  H18Y20249   0.215   4.360   8.729  1.2316  1.4414 -0.7052
  177SLPC  H18Z20250   0.163   4.516   8.676  0.9283  0.3873  1.4412
  178SLPC     N20251   1.860   6.136  11.339  0.4339 -0.3137  0.4561
  178SLPC   C1320252   1.856   6.248  11.442 -0.3825 -0.7930  0.1975
  178SLPC  H13A20253   1.842   6.212  11.543 -1.8137  0.9284  0.6557
  178SLPC  H13B20254   1.936   6.320  11.432 -0.6176 -0.8326 -2.2549
  178SLPC  H13C20255   1.768   6.309  11.426 -0.6167 -1.3809 -0.7949
  178SLPC   C1420256   1.734   6.051  11.346 -0.5733 -0.4327 -0.5721
  178SLPC  H14A20257   1.743   5.981  11.427 -0.3672 -0.0289 -0.2467
  178SLPC  H14B20258   1.648   6.115  11.353 -0.4095 -0.1280 -1.3190
  178SLPC  H14C20259   1.736   5.991  11.256  4.0135 -0.3597 -0.6272
  178SLPC   C1520260   1.984   6.056  11.363  0.3896  0.2369 -0.6720
  178SLPC  H15A20261   1.992   5.979  11.288 -1.1642 -1.6025  0.9897
  178SLPC  H15B20262   2.074   6.116  11.365  0.4192  0.1655  0.8770
  178SLPC  H15C20263   1.981   6.014  11.462 -1.2979  2.2441  0.1715
  178SLPC   C1220264   1.861   6.200  11.203 -0.5847 -0.2848 -0.0771
  178SLPC  H12A20265   1.930   6.283  11.201 -2.3321  1.1848 -0.7043
  178SLPC  H12B20266   1.762   6.243  11.203 -0.2790  0.4296 -1.0762
  178SLPC   C1120267   1.876   6.103  11.077  0.5478 -0.0234 -0.3066
  178SLPC  H11A20268   1.843   6.168  10.993  0.7418 -0.3519 -0.6410
  178SLPC  H11B20269   1.810   6.014  11.085  1.5151 -0.5340  2.5412
  178SLPC     P20270   2.128   6.148  11.012  0.4982 -0.1796 -0.0433
  178SLPC   O1320271   2.173   6.247  11.112  0.4846  0.3068 -0.2861
  178SLPC   O1420272   2.239   6.059  10.970 -0.0218 -0.1015  0.2552
  178SLPC   O1220273   2.008   6.058  11.063  0.0364 -0.4178  0.2429
  178SLPC   O1120274   2.060   6.235  10.894  0.1717 -0.3513 -0.0806
  178SLPC    C120275   2.011   6.160  10.780  0.1145 -0.1266 -0.3052
  178SLPC    HA20276   1.984   6.057  10.811  2.0419 -0.5157  0.1153
  178SLPC    HB20277   1.926   6.215  10.733  1.1030  1.7886  0.0914
  178SLPC    C220278   2.110   6.154  10.660  0.6477 -0.5940  0.4511
  178SLPC    HS20279   2.195   6.089  10.689  0.7662 -2.1060 -3.0552
  178SLPC   O2120280   2.156   6.287  10.634 -0.4034  0.0695 -0.1829
  178SLPC   C2120281   2.286   6.292  10.593  0.6153 -0.2568  0.4051
  178SLPC   O2220282   2.367   6.199  10.588  0.1485  0.2730  0.2633
  178SLPC   C2220283   2.328   6.430  10.559 -0.0831  0.0021 -0.0736
  178SLPC   H2R20284   2.252   6.478  10.493 -0.5440 -0.8353 -0.1414
  178SLPC   H2S20285   2.351   6.483  10.654 -0.5628  0.1482 -0.0371
  178SLPC    C320286   2.038   6.098  10.537  0.4600 -0.1642  0.1919
  178SLPC    HX20287   1.949   6.162  10.519  0.6179  0.2889  1.0194
  178SLPC    HY20288   1.991   6.000  10.562 -1.1772 -0.0393 -2.2003
  178SLPC   O3120289   2.128   6.082  10.431 -0.4069  0.7483 -0.0120
  178SLPC   C3120290   2.194   5.965  10.420  0.2735 -0.3163  0.6533
  178SLPC   O3220291   2.175   5.868  10.495 -0.1022  0.1774 -0.5109
  178SLPC   C3220292   2.291   5.966  10.302 -0.4768  0.3762  0.2030
  178SLPC   H2X20293   2.362   5.880  10.302 -1.2265 -0.2540 -1.2999
  178SLPC   H2Y20294   2.353   6.058  10.311 -0.1474  0.2500 -0.6835
  178SLPC   C2320295   2.458   6.439  10.476  0.5667  0.0902  0.7896
  178SLPC   H3R20296   2.530   6.362  10.513 -0.0629  0.2248  2.3278
  178SLPC   H3S20297   2.507   6.536  10.497  3.0244 -0.2950 -2.6920
  178SLPC   C2420298   2.431   6.408  10.330  0.1103  0.6793 -0.3396
  178SLPC   H4R20299   2.400   6.509  10.298 -0.6941  0.4727 -0.2206
  178SLPC   H4S20300   2.346   6.337  10.321  0.5565  0.0784  0.0495
  178SLPC   C2520301   2.565   6.380  10.252 -0.1742 -0.5591  0.3152
  178SLPC   H5R20302   2.607   6.280  10.274  1.1531 -0.6330 -2.3229
  178SLPC   H5S20303   2.635   6.462  10.276  0.7544 -0.3478 -2.8097
  178SLPC   C2620304   2.536   6.406  10.096  0.2486  0.4764  0.2103
  178SLPC   H6R20305   2.636   6.406  10.049  0.3050  0.3670  0.3312
  178SLPC   H6S20306   2.485   6.505  10.099 -1.0547 -0.1906  0.8214
  178SLPC   C2720307   2.439   6.308  10.025 -0.3734 -0.6992  0.0836
  178SLPC   H7R20308   2.341   6.302  10.078  0.0007  1.5696  1.0795
  178SLPC   H7S20309   2.486   6.208  10.017 -0.4454 -0.9821  2.8988
  178SLPC   C2820310   2.431   6.364   9.881  0.1043  0.6907  0.2054
  178SLPC   H8R20311   2.421   6.277   9.812 -1.6134 -0.1567  1.5024
  178SLPC   H8S20312   2.528   6.411   9.854  0.7594 -0.9181 -0.2855
  178SLPC   C2920313   2.311   6.463   9.861  0.8563 -0.2725  0.6963
  178SLPC   H9R20314   2.317   6.543   9.937  0.4339  1.1383 -0.7216
  178SLPC  C21020315   2.211   6.469   9.772  0.0712 -0.0068 -0.3377
  178SLPC  H10R20316   2.137   6.549   9.781  1.1382  0.9718 -0.1878
  178SLPC  C21120317   2.197   6.365   9.663  0.3082  0.0095 -0.1052
  178SLPC  H11R20318   2.261   6.275   9.677  0.2979  0.4429  3.2511
  178SLPC  H11S20319   2.227   6.400   9.562 -1.7625 -0.6372 -0.9765
  178SLPC  C21220320   2.049   6.333   9.658 -0.2638 -0.0224 -0.1177
  178SLPC  H12R20321   2.007   6.314   9.758  0.7219 -1.8763 -0.0389
  178SLPC  C21320322   1.984   6.288   9.554 -0.0454  0.4473  0.3804
  178SLPC  H13R20323   1.877   6.277   9.578 -0.1409  2.5712  1.1042
  178SLPC  C21420324   2.024   6.283   9.411  0.3304 -0.5366  0.6413
  178SLPC  H14R20325   2.019   6.179   9.372  2.0277 -0.6880  0.7884
  178SLPC  H14S20326   2.123   6.331   9.394  1.1137 -2.2544  0.1584
  178SLPC  C21520327   1.911   6.361   9.332 -0.4573 -0.8623  0.3758
  178SLPC  H15R20328   1.921   6.463   9.374  1.3928 -1.4723  1.4739
  178SLPC  H15S20329   1.808   6.329   9.359 -1.4134  1.3148 -0.6222
  178SLPC  C21620330   1.928   6.359   9.173 -1.0295  0.2232  0.6492
  178SLPC  H16R20331   1.937   6.254   9.138 -0.5966  0.9970 -1.6055
  178SLPC  H16S20332   2.022   6.406   9.138 -0.4710 -1.0411  0.4047
  178SLPC  C21720333   1.821   6.438   9.087  0.0855  0.6165  0.2322
  178SLPC  H17R20334   1.828   6.544   9.117  0.3427  0.0525  2.2019
  178SLPC  H17S20335   1.725   6.391   9.118  1.0605 -2.2256 -0.8417
  178SLPC  C21820336   1.839   6.425   8.935  0.4247  0.4021 -0.6059
  178SLPC  H18R20337   1.848   6.317   8.913  2.3630  0.7162 -1.4036
  178SLPC  H18S20338   1.935   6.468   8.901  1.2978 -0.0757  1.1751
  178SLPC  H18T20339   1.747   6.453   8.878  0.3220 -1.4751 -1.3773
  178SLPC   C3320340   2.230   5.967  10.160 -0.4132 -0.6535 -0.0733
  178SLPC   H3X20341   2.303   5.955  10.078  0.6367 -0.4252  0.8185
  178SLPC   H3Y20342   2.186   6.067  10.142  1.4685  0.1529 -0.2588
  178SLPC   C3420343   2.110   5.867  10.139  0.1393 -0.0903 -0.2791
  178SLPC   H4X20344   2.016   5.913  10.175 -0.2378 -0.8987 -0.2212
  178SLPC   H4Y20345   2.128   5.773  10.195 -2.0852 -1.7100 -2.2241
  178SLPC   C3520346   2.101   5.830   9.990  0.4627  0.2706  0.1957
  178SLPC   H5X20347   2.034   5.744   9.967  0.1061  0.3110  1.0684
  178SLPC   H5Y20348   2.205   5.805   9.958 -0.2098 -2.1061 -0.2694
  178SLPC   C3620349   2.052   5.945   9.903  0.5890 -0.4103  0.3083
  178SLPC   H6X20350   2.136   6.013   9.878  1.2281 -1.0463  0.7096
  178SLPC   H6Y20351   1.965   6.000   9.946  0.9308 -1.0112  1.7966
  178SLPC   C3720352   2.013   5.891   9.762 -0.6140  0.7056 -0.0230
  178SLPC   H7X20353   1.981   5.972   9.693 -3.0484 -1.4532 -1.5179
  178SLPC   H7Y20354   1.939   5.808   9.759 -0.4109  0.5067  0.4701
  178SLPC   C3820355   2.142   5.857   9.686 -0.8869  0.4802 -0.5727
  178SLPC   H8X20356   2.206   5.788   9.745  1.5188  1.2548 -2.2107
  178SLPC   H8Y20357   2.203   5.948   9.670 -0.8564  0.6985  0.7548
  178SLPC   C3920358   2.109   5.785   9.549 -0.1793  0.3723  0.2045
  178SLPC   H9X20359   2.070   5.685   9.577  1.0147 -0.4440 -0.9799
  178SLPC   H9Y20360   2.200   5.767   9.487  0.5416  1.6863  0.8538
  178SLPC  C31020361   2.014   5.863   9.459 -0.1341  0.1390 -0.5984
  178SLPC  H10X20362   2.072   5.955   9.438  3.2787 -1.6313  0.6431
  178SLPC  H10Y20363   1.919   5.878   9.514  0.2742 -1.5351  0.6180
  178SLPC  C31120364   1.994   5.792   9.330 -1.1188  0.1276  0.5520
  178SLPC  H11X20365   2.092   5.748   9.303 -2.2952 -2.2239 -0.0291
  178SLPC  H11Y20366   1.969   5.854   9.241  0.3767 -0.0186  0.0022
  178SLPC  C31220367   1.903   5.669   9.335 -0.3538  0.3208  0.4455
  178SLPC  H12X20368   1.803   5.714   9.355 -0.8732 -0.9427  0.6987
  178SLPC  H12Y20369   1.935   5.600   9.415  3.0711  0.5396 -0.6744
  178SLPC  C31320370   1.902   5.591   9.204  0.0988 -0.4447 -0.9264
  178SLPC  H13X20371   1.985   5.518   9.192  2.2489  1.8828 -0.6705
  178SLPC  H13Y20372   1.920   5.664   9.121  2.4153  0.0852  0.0102
  178SLPC  C31420373   1.772   5.519   9.190  0.2681  0.0777 -0.2933
  178SLPC  H14X20374   1.695   5.596   9.213  1.5129  1.3119 -0.1923
  178SLPC  H14Y20375   1.755   5.443   9.269 -1.9702  2.7965  1.9322
  178SLPC  C31520376   1.748   5.437   9.061 -0.1698 -0.0368 -0.5123
  178SLPC  H15X20377   1.744   5.508   8.976 -2.4995 -0.0208 -0.4097
  178SLPC  H15Y20378   1.833   5.365   9.067 -0.7337 -0.5184  2.1884
  178SLPC  C31620379   1.620   5.351   9.065  0.1885  0.0226  0.4109
  178SLPC  H16X20380   1.531   5.417   9.073  1.5554  2.0187 -0.2899
  178SLPC  H16Y20381   1.625   5.281   9.151 -1.4485  1.0000  1.3055
  178SLPC  C31720382   1.614   5.261   8.934 -0.3253  0.3708 -0.1785
  178SLPC  H17X20383   1.714   5.219   8.906 -0.2547  0.7329 -0.4575
  178SLPC  H17Y20384   1.585   5.315   8.842 -1.4462 -1.5790 -1.0076
  178SLPC  C31820385   1.520   5.138   8.950 -0.3492 -0.2472 -0.3715
  178SLPC  H18X20386   1.412   5.165   8.941 -0.5014 -0.7803 -0.1766
  178SLPC  H18Y20387   1.539   5.114   9.057  1.4758  1.7904 -0.2047
  178SLPC  H18Z20388   1.539   5.046   8.892  0.1154  0.9470 -2.1364
  179SLPC     N20389   3.984   2.312  10.434 -0.0138 -0.4709 -0.9511
  179SLPC   C1320390   3.874   2.331  10.536  0.7068 -0.0217  0.1599
  179SLPC  H13A20391   3.785   2.377  10.496  0.3557 -0.6615  0.2038
  179SLPC  H13B20392   3.838   2.238  10.576 -1.8639  1.2864  0.9870
  179SLPC  H13C20393   3.903   2.390  10.622  2.0895 -1.8831  1.0018
  179SLPC   C1420394   3.932   2.228  10.325 -0.5771  0.3523  0.0482
  179SLPC  H14A20395   3.895   2.141  10.378 -0.2835  0.4473  0.4165
  179SLPC  H14B20396   3.849   2.269  10.270 -0.7394  0.7646  0.5920
  179SLPC  H14C20397   4.000   2.218  10.242 -0.9478 -1.2432 -0.0809
  179SLPC   C1520398   4.089   2.236  10.509 -0.2141 -0.0833  0.1149
  179SLPC  H15A20399   4.173   2.204  10.450 -2.2445 -3.8712 -0.9489
  179SLPC  H15B20400   4.118   2.287  10.600 -1.0686  2.4435 -0.9757
  179SLPC  H15C20401   4.044   2.145  10.547 -0.0623 -0.1966  0.0208
  179SLPC   C1220402   4.049   2.447  10.390 -0.0268 -0.6267 -0.2265
  179SLPC  H12A20403   4.135   2.424  10.330  2.1963  1.6381  1.9697
  179SLPC  H12B20404   4.088   2.496  10.478  0.3170 -1.6846  0.2205
  179SLPC   C1120405   3.964   2.546  10.310  0.5351  0.3438  0.2379
  179SLPC  H11A20406   3.954   2.498  10.210  1.8514  1.2407 -0.3427
  179SLPC  H11B20407   4.013   2.643  10.286  0.2002 -0.1196 -2.4327
  179SLPC     P20408   3.819   2.684  10.477  0.2773  0.3896  0.3379
  179SLPC   O1320409   3.724   2.653  10.579 -0.1970  0.2238 -0.1297
  179SLPC   O1420410   3.948   2.730  10.533  0.6864  0.3771  0.4641
  179SLPC   O1220411   3.837   2.570  10.372 -0.5196  0.2481  0.5256
  179SLPC   O1120412   3.757   2.812  10.401 -0.1746 -0.0578  0.5154
  179SLPC    C120413   3.826   2.872  10.287 -0.9596 -0.5772  0.2244
  179SLPC    HA20414   3.787   2.976  10.278 -0.3177 -0.4776 -1.6979
  179SLPC    HB20415   3.933   2.872  10.314 -1.4719 -1.5711  2.3427
  179SLPC    C220416   3.788   2.812  10.151  0.2581  0.3146  0.3639
  179SLPC    HS20417   3.811   2.703  10.156 -1.4016  0.0241  2.5287
  179SLPC   O2120418   3.851   2.875  10.042  0.0924 -0.0313  0.0281
  179SLPC   C2120419   3.963   2.832   9.991  0.3098 -0.6243  0.3630
  179SLPC   O2220420   4.025   2.741  10.035 -0.5202 -0.2832  0.2126
  179SLPC   C2220421   4.014   2.928   9.878 -0.2424 -0.8013  0.2535
  179SLPC   H2R20422   3.920   2.946   9.821 -1.5724  0.6227  2.8159
  179SLPC   H2S20423   4.065   3.018   9.918  2.0693 -0.4381 -3.2456
  179SLPC    C320424   3.634   2.815  10.136  0.2189 -0.0090  0.0051
  179SLPC    HX20425   3.606   2.921  10.119  1.1880 -0.0654 -2.0968
  179SLPC    HY20426   3.591   2.772  10.229 -0.1325 -1.9598 -1.0261
  179SLPC   O3120427   3.584   2.748  10.016 -0.2010  0.4625  0.7622
  179SLPC   C3120428   3.544   2.623  10.038 -0.1376  0.0181  0.1743
  179SLPC   O3220429   3.521   2.578  10.148  0.4781  0.6486 -0.0546
  179SLPC   C3220430   3.531   2.549   9.908  0.3604  0.5088  0.4070
  179SLPC   H2X20431   3.475   2.609   9.833  0.0739 -0.0133  0.1980
  179SLPC   H2Y20432   3.460   2.467   9.932  0.1909  1.0809  1.9077
  179SLPC   C2320433   4.108   2.855   9.782 -0.1899 -0.4757 -0.4041
  179SLPC   H3R20434   4.074   2.749   9.774 -0.1027 -0.4886 -0.5995
  179SLPC   H3S20435   4.209   2.861   9.827 -0.3501  2.0245 -0.3351
  179SLPC   C2420436   4.097   2.912   9.642  1.0167 -0.8060  0.5860
  179SLPC   H4R20437   4.128   3.018   9.631  1.4608 -0.8874  1.0024
  179SLPC   H4S20438   3.992   2.922   9.607  1.2882 -0.0356 -0.0132
  179SLPC   C2520439   4.169   2.828   9.527  0.3003  0.0808 -0.7612
  179SLPC   H5R20440   4.112   2.735   9.507  0.1463  0.0142 -0.0497
  179SLPC   H5S20441   4.269   2.805   9.569  0.0648 -1.7683 -1.1723
  179SLPC   C2620442   4.178   2.907   9.400 -0.2440 -0.4136 -0.7198
  179SLPC   H6R20443   4.253   2.989   9.404  0.3704 -1.0406  0.9615
  179SLPC   H6S20444   4.084   2.960   9.372  0.7584  1.5997 -0.3819
  179SLPC   C2720445   4.220   2.807   9.284  0.7243 -0.3822 -0.7620
  179SLPC   H7R20446   4.139   2.734   9.263  0.1957  0.1449 -0.6150
  179SLPC   H7S20447   4.308   2.751   9.321  0.2603  0.8648  2.4235
  179SLPC   C2820448   4.235   2.887   9.161 -1.0373  0.1665  0.8435
  179SLPC   H8R20449   4.314   2.963   9.176 -0.0375 -0.0651 -2.8233
  179SLPC   H8S20450   4.155   2.965   9.163  1.4637  2.8694 -0.3593
  179SLPC   C2920451   4.246   2.823   9.028 -0.1058 -0.1819 -0.2993
  179SLPC   H9R20452   4.180   2.736   9.015 -0.1967 -0.0008 -1.0657
  179SLPC  C21020453   4.339   2.851   8.938  0.2946 -0.0092  0.4904
  179SLPC  H10R20454   4.332   2.786   8.850 -1.9970  1.1019 -0.1944
  179SLPC  C21120455   4.443   2.960   8.928  0.1773  1.2700  0.1266
  179SLPC  H11R20456   4.532   2.907   8.887 -1.2401 -0.7331 -0.4257
  179SLPC  H11S20457   4.471   3.007   9.025 -0.8057 -0.8177  1.4693
  179SLPC  C21220458   4.380   3.051   8.824  0.7047 -0.2223  0.0074
  179SLPC  H12R20459   4.357   3.006   8.727  3.0771  3.3233 -2.3060
  179SLPC  C21320460   4.353   3.184   8.842 -0.4189 -0.6938 -0.2711
  179SLPC  H13R20461   4.304   3.235   8.757  1.6600 -0.3477 -1.2935
  179SLPC  C21420462   4.371   3.266   8.965 -0.1693 -0.2094 -0.0284
  179SLPC  H14R20463   4.472   3.312   8.968 -0.3007  0.0745  0.0351
  179SLPC  H14S20464   4.374   3.203   9.057 -0.7426 -0.5832 -0.2681
  179SLPC  C21520465   4.260   3.371   8.986  0.0019  0.5028 -0.7604
  179SLPC  H15R20466   4.165   3.313   8.990 -0.3738  1.2048  1.1074
  179SLPC  H15S20467   4.248   3.443   8.902 -0.5302  0.7363 -0.4876
  179SLPC  C21620468   4.281   3.450   9.116  0.3278 -0.2781  0.0179
  179SLPC  H16R20469   4.272   3.558   9.088  0.1516 -0.0463  0.9572
  179SLPC  H16S20470   4.387   3.432   9.143  1.0372  0.8997 -1.8640
  179SLPC  C21720471   4.193   3.419   9.233  0.0039 -0.9085 -0.0281
  179SLPC  H17R20472   4.089   3.455   9.215  0.0200 -1.1109 -0.5306
  179SLPC  H17S20473   4.237   3.463   9.325 -0.2460  1.4335 -0.9908
  179SLPC  C21820474   4.178   3.270   9.258 -0.1891  0.4365  0.5030
  179SLPC  H18R20475   4.263   3.203   9.283  0.4370  0.3622 -1.6625
  179SLPC  H18S20476   4.148   3.213   9.167  0.7909  0.3244  0.2393
  179SLPC  H18T20477   4.105   3.259   9.341  0.7757 -0.0999  1.2977
  179SLPC   C3320478   3.653   2.471   9.858  0.4161 -0.1136  0.1643
  179SLPC   H3X20479   3.631   2.440   9.754  1.5484  2.8778 -1.0068
  179SLPC   H3Y20480   3.699   2.386   9.913  2.0374  2.0716  2.3185
  179SLPC   C3420481   3.773   2.561   9.830  0.4728 -0.1756  0.2317
  179SLPC   H4X20482   3.816   2.594   9.927  0.3757  1.6033 -0.3151
  179SLPC   H4Y20483   3.735   2.655   9.785  1.8568  0.6650  0.8119
  179SLPC   C3520484   3.877   2.494   9.733  0.2578 -0.3388 -0.0566
  179SLPC   H5X20485   3.886   2.385   9.753 -2.6846 -0.6176  0.0801
  179SLPC   H5Y20486   3.965   2.556   9.758 -2.2429  3.1185  0.6163
  179SLPC   C3620487   3.850   2.508   9.577  0.5448  0.1688 -0.4705
  179SLPC   H6X20488   3.863   2.618   9.567 -2.2638  0.4698 -1.2370
  179SLPC   H6Y20489   3.750   2.471   9.549 -0.7449  1.9668  1.5973
  179SLPC   C3720490   3.964   2.445   9.495  0.0721 -0.2003 -0.3280
  179SLPC   H7X20491   3.954   2.335   9.500 -0.7039 -0.0933  0.6319
  179SLPC   H7Y20492   4.057   2.482   9.544 -0.1512  1.2500 -0.9783
  179SLPC   C3820493   3.957   2.478   9.342 -0.5177  0.7177 -0.2220
  179SLPC   H8X20494   4.062   2.461   9.308 -0.4991  0.7884 -0.2026
  179SLPC   H8Y20495   3.938   2.583   9.310  1.6369  1.2784  0.2142
  179SLPC   C3920496   3.866   2.382   9.266 -0.7916  0.5269  0.6097
  179SLPC   H9X20497   3.767   2.394   9.315 -0.1892  0.5855  1.8380
  179SLPC   H9Y20498   3.890   2.278   9.299  1.9592  0.8254 -0.3021
  179SLPC  C31020499   3.870   2.383   9.110 -0.0477 -0.2252 -0.4866
  179SLPC  H10X20500   3.837   2.485   9.081 -0.1365 -0.5441 -1.5240
  179SLPC  H10Y20501   3.802   2.303   9.073  0.5076 -1.4566  1.0975
  179SLPC  C31120502   4.003   2.352   9.050 -0.2293 -0.6183  0.0892
  179SLPC  H11X20503   4.027   2.244   9.062  0.5156 -0.4107  0.5156
  179SLPC  H11Y20504   4.086   2.403   9.105  2.7649 -4.5280 -0.5821
  179SLPC  C31220505   3.999   2.373   8.894  0.3981  0.3205 -0.2072
  179SLPC  H12X20506   3.908   2.326   8.850  0.6225 -0.5156  0.2167
  179SLPC  H12Y20507   4.092   2.332   8.851  0.1804 -0.4690  0.0578
  179SLPC  C31320508   4.006   2.518   8.868 -0.0271 -0.4544 -0.2233
  179SLPC  H13X20509   4.093   2.557   8.924 -0.4537  3.2130 -1.9938
  179SLPC  H13Y20510   3.914   2.571   8.902  0.1882 -0.2549  0.0480
  179SLPC  C31420511   4.024   2.562   8.717  0.1358  0.2662  0.1187
  179SLPC  H14X20512   3.933   2.521   8.669  0.1723 -2.9145  2.6672
  179SLPC  H14Y20513   4.111   2.494   8.699  1.9421  2.8009 -1.0967
  179SLPC  C31520514   4.034   2.709   8.697 -0.1891  0.1830 -0.1693
  179SLPC  H15X20515   4.099   2.754   8.776  0.6044 -0.4507 -0.4571
  179SLPC  H15Y20516   3.934   2.751   8.723  0.6418  2.3575 -0.3438
  179SLPC  C31620517   4.095   2.751   8.562  0.4568  0.7130  0.0934
  179SLPC  H16X20518   4.173   2.675   8.538  0.4902  1.0541 -0.8904
  179SLPC  H16Y20519   4.146   2.848   8.579 -0.6299  1.7184 -2.2046
  179SLPC  C31720520   3.988   2.751   8.449  0.3539 -0.4419 -0.3705
  179SLPC  H17X20521   3.907   2.821   8.479  1.2667  0.0284  1.0296
  179SLPC  H17Y20522   3.944   2.650   8.450 -2.6943  0.8223  1.8202
  179SLPC  C31820523   4.044   2.779   8.307  0.1211  0.2343  0.0098
  179SLPC  H18X20524   3.976   2.799   8.221 -0.6897 -3.2967 -0.2361
  179SLPC  H18Y20525   4.112   2.695   8.281  0.6727  0.9949 -1.0038
  179SLPC  H18Z20526   4.104   2.872   8.312  0.2384  0.1577  0.0190
  180SLPC     N20527   4.704   0.238  10.701 -0.4046 -0.2364 -1.0846
  180SLPC   C1320528   4.799   0.319  10.613 -0.0437  0.2422  0.7342
  180SLPC  H13A20529   4.756   0.385  10.540 -1.6541 -2.1410 -0.5316
  180SLPC  H13B20530   4.876   0.375  10.665  0.5486  1.3256 -1.2808
  180SLPC  H13C20531   4.862   0.253  10.556 -1.3455  0.2864 -0.7669
  180SLPC   C1420532   4.617   0.325  10.780  0.2156 -0.0654  0.2000
  180SLPC  H14A20533   4.559   0.380  10.707  2.0075  0.1360 -1.1064
  180SLPC  H14B20534   4.546   0.276  10.845 -0.4989  2.3322  1.2571
  180SLPC  H14C20535   4.673   0.396  10.838  0.9608 -2.0532  1.9678
  180SLPC   C1520536   4.785   0.147  10.792  0.5161  1.0361  0.2967
  180SLPC  H15A20537   4.723   0.078  10.847 -1.1557  0.1915 -2.5213
  180SLPC  H15B20538   4.844   0.076  10.735  0.1119  0.2446  0.8519
  180SLPC  H15C20539   4.841   0.207  10.862 -0.8307  0.1458  2.1885
  180SLPC   C1220540   4.610   0.154  10.617 -0.5474 -0.0423 -0.3231
  180SLPC  H12A20541   4.669   0.095  10.549 -0.3357 -1.3696  0.9796
  180SLPC  H12B20542   4.542   0.222  10.568 -1.3537  0.2463  1.1534
  180SLPC   C1120543   4.530   0.038  10.677 -0.0732 -0.2296  0.1317
  180SLPC  H11A20544   4.461   0.000  10.599 -1.0622  1.5475  0.1087
  180SLPC  H11B20545   4.467   0.072  10.762 -2.1500  1.1634 -1.9091
  180SLPC     P20546   4.689  -0.165  10.648  0.0566  0.0724 -0.0734
  180SLPC   O1320547   4.835  -0.139  10.674  0.8645  0.1389  0.4745
  180SLPC   O1420548   4.640  -0.301  10.674 -0.4862 -0.3355  0.4296
  180SLPC   O1220549   4.610  -0.062  10.736  0.7287  0.5915 -0.1816
  180SLPC   O1120550   4.646  -0.119  10.502  0.5304 -0.4826  0.2703
  180SLPC    C120551   4.720  -0.181  10.393 -0.4209 -0.6625 -0.2566
  180SLPC    HA20552   4.822  -0.216  10.422 -0.1491  1.1241  1.0785
  180SLPC    HB20553   4.662  -0.265  10.350  0.9822 -1.9845  0.3768
  180SLPC    C220554   4.737  -0.080  10.275 -0.6785  0.1179 -0.2306
  180SLPC    HS20555   4.770   0.013  10.327  2.6594 -1.0827 -0.0652
  180SLPC   O2120556   4.611  -0.067  10.206 -0.4444  0.6389  0.3718
  180SLPC   C2120557   4.543   0.041  10.233  0.4064  0.4273  0.8745
  180SLPC   O2220558   4.571   0.126  10.314  0.2282 -0.7463 -0.5084
  180SLPC   C2220559   4.436   0.074  10.127 -0.2211 -0.0999  0.3014
  180SLPC   H2R20560   4.346   0.014  10.152  0.5364 -1.6869 -0.6792
  180SLPC   H2S20561   4.413   0.182  10.136 -1.2681 -0.3814  0.9933
  180SLPC    C320562   4.855  -0.127  10.186  0.2705 -0.2403 -0.5189
  180SLPC    HX20563   4.829  -0.223  10.137 -2.8487  1.4311 -2.2993
  180SLPC    HY20564   4.935  -0.147  10.261 -2.1271 -1.3649  1.8505
  180SLPC   O3120565   4.892  -0.021  10.094  0.6597  0.6058 -0.0784
  180SLPC   C3120566   4.977  -0.079  10.001 -0.2122  0.6441 -0.3440
  180SLPC   O3220567   5.023  -0.193  10.011  0.5651  0.1381 -0.0717
  180SLPC   C3220568   5.020   0.023   9.900 -0.2842  0.4480  0.3446
  180SLPC   H2X20569   5.102   0.067   9.960  1.1648 -0.7145 -0.7413
  180SLPC   H2Y20570   4.948   0.107   9.895 -0.1185  0.8013  3.0526
  180SLPC   C2320571   4.473   0.053   9.979  0.2251 -0.0293 -0.1580
  180SLPC   H3R20572   4.570   0.099   9.951 -0.8770  1.6383 -1.3163
  180SLPC   H3S20573   4.393   0.109   9.926 -2.6303 -2.3464  1.5823
  180SLPC   C2420574   4.469  -0.099   9.933 -0.0979  0.4019 -0.7771
  180SLPC   H4R20575   4.373  -0.146   9.964  0.9492 -0.6338  0.9819
  180SLPC   H4S20576   4.545  -0.159   9.988  0.1993 -1.1916 -2.8337
  180SLPC   C2520577   4.498  -0.118   9.781 -0.7729  0.6068  0.0323
  180SLPC   H5R20578   4.495  -0.227   9.761  0.1315  0.2402  1.8067
  180SLPC   H5S20579   4.601  -0.080   9.766 -0.0473 -1.0307  0.8089
  180SLPC   C2620580   4.402  -0.042   9.689 -0.0781 -0.4501 -0.2879
  180SLPC   H6R20581   4.406   0.069   9.699 -0.0749 -0.5524  0.8872
  180SLPC   H6S20582   4.299  -0.070   9.718 -0.4965  0.3963 -0.9273
  180SLPC   C2720583   4.417  -0.079   9.538 -0.0152  0.4206 -0.0457
  180SLPC   H7R20584   4.325  -0.054   9.481 -0.7561 -0.3585  0.7873
  180SLPC   H7S20585   4.431  -0.189   9.529  0.2528  0.3782  0.8412
  180SLPC   C2820586   4.544  -0.026   9.471 -0.2448 -0.2765 -0.5295
  180SLPC   H8R20587   4.556  -0.085   9.378  0.3129 -1.7614  0.4746
  180SLPC   H8S20588   4.642  -0.032   9.524 -0.3361  1.9790 -0.0475
  180SLPC   C2920589   4.523   0.116   9.441  0.3561 -0.7169 -0.0744
  180SLPC   H9R20590   4.493   0.175   9.529 -0.6169 -0.2308 -0.7231
  180SLPC  C21020591   4.535   0.190   9.326  0.1972  0.1042 -0.1497
  180SLPC  H10R20592   4.512   0.296   9.340 -2.2038 -0.3791 -0.1979
  180SLPC  C21120593   4.570   0.131   9.195 -0.4845 -0.2840  0.3235
  180SLPC  H11R20594   4.647   0.051   9.209  1.3767  1.6933  1.6891
  180SLPC  H11S20595   4.621   0.209   9.136 -1.5932  0.8749  0.8811
  180SLPC  C21220596   4.457   0.056   9.133  0.1498 -0.3432  0.1176
  180SLPC  H12R20597   4.407  -0.009   9.207  0.6431  0.1316  0.8701
  180SLPC  C21320598   4.407   0.056   9.006  0.6546  0.8190  0.1904
  180SLPC  H13R20599   4.318  -0.003   8.978  0.8053  0.3337  0.7195
  180SLPC  C21420600   4.466   0.124   8.886  0.3843  0.6402  0.2223
  180SLPC  H14R20601   4.507   0.222   8.919  0.5405  0.5461  0.3041
  180SLPC  H14S20602   4.383   0.173   8.830  0.2824  1.6573  1.2397
  180SLPC  C21520603   4.563   0.049   8.789  0.6493  0.2028 -0.4661
  180SLPC  H15R20604   4.536  -0.056   8.765  1.8871  0.0552 -1.2569
  180SLPC  H15S20605   4.666   0.025   8.825  1.0284  3.5363  0.8140
  180SLPC  C21620606   4.586   0.126   8.662 -0.0540  0.5278 -0.5851
  180SLPC  H16R20607   4.652   0.211   8.690 -1.6809  1.2087  1.2431
  180SLPC  H16S20608   4.489   0.166   8.626 -1.1092  0.8232  2.4193
  180SLPC  C21720609   4.654   0.040   8.559 -0.1072 -0.3894 -0.2173
  180SLPC  H17R20610   4.585  -0.045   8.541  0.1505 -1.2977  2.7916
  180SLPC  H17S20611   4.747  -0.003   8.602  0.2245 -0.5709 -1.0933
  180SLPC  C21820612   4.690   0.128   8.444  0.0492 -0.0973  0.0918
  180SLPC  H18R20613   4.727   0.064   8.361 -1.1473 -1.2437  0.4188
  180SLPC  H18S20614   4.779   0.190   8.469 -0.5159  0.2713  1.2313
  180SLPC  H18T20615   4.608   0.192   8.406  2.1083  1.5513 -1.6481
  180SLPC   C3320616   5.050  -0.028   9.754  0.0718 -0.5369 -0.3308
  180SLPC   H3X20617   5.102  -0.126   9.747  2.3892  0.6716 -0.7599
  180SLPC   H3Y20618   5.120   0.040   9.700  0.2626  0.7204  1.4469
  180SLPC   C3420619   4.920  -0.046   9.678 -0.0024 -0.4326 -0.2525
  180SLPC   H4X20620   4.863   0.047   9.658  0.9070  0.1651 -0.0724
  180SLPC   H4Y20621   4.863  -0.119   9.740 -0.7329  1.1217  0.9525
  180SLPC   C3520622   4.952  -0.098   9.531 -0.1327 -0.1421 -0.1490
  180SLPC   H5X20623   4.856  -0.129   9.486 -0.2025 -0.9472  0.5330
  180SLPC   H5Y20624   5.004  -0.194   9.549  1.7554  1.0154  0.7586
  180SLPC   C3620625   5.037  -0.005   9.437  0.0133  0.5889 -0.0971
  180SLPC   H6X20626   5.141   0.020   9.467  0.8030 -0.9693 -1.4553
  180SLPC   H6Y20627   4.982   0.092   9.429  0.1332  0.6047 -0.7105
  180SLPC   C3720628   5.046  -0.069   9.298  0.2154 -0.3527 -0.1295
  180SLPC   H7X20629   4.945  -0.065   9.252  0.6013 -0.3617 -0.9841
  180SLPC   H7Y20630   5.075  -0.175   9.316 -1.6935 -0.7902  0.4641
  180SLPC   C3820631   5.168  -0.015   9.218 -0.0909 -0.4455  0.3046
  180SLPC   H8X20632   5.260  -0.026   9.279  0.1588 -1.8209 -0.3129
  180SLPC   H8Y20633   5.151   0.093   9.196  2.9925 -0.0743 -0.5042
  180SLPC   C3920634   5.206  -0.087   9.091  0.3596  0.0912  0.1021
  180SLPC   H9X20635   5.119  -0.102   9.024 -0.1822  3.4238 -0.0079
  180SLPC   H9Y20636   5.241  -0.191   9.110  0.3566  0.0572 -0.0779
  180SLPC  C31020637   5.313  -0.030   9.004 -0.0161  0.0938  0.5167
  180SLPC  H10X20638   5.392  -0.020   9.081  0.5582 -0.5600  0.0140
  180SLPC  H10Y20639   5.290   0.078   8.994  0.4957  0.1428 -0.1083
  180SLPC  C31120640   5.343  -0.114   8.879 -0.3552 -0.3753  0.4427
  180SLPC  H11X20641   5.246  -0.163   8.857  0.1556 -1.2010 -0.0104
  180SLPC  H11Y20642   5.414  -0.192   8.916  1.3954  0.3471 -1.3054
  180SLPC  C31220643   5.404  -0.023   8.778  0.0209 -0.0880  0.5672
  180SLPC  H12X20644   5.480   0.034   8.836 -1.1223 -0.7074  2.7105
  180SLPC  H12Y20645   5.330   0.043   8.728 -0.7923 -1.4822 -0.1106
  180SLPC  C31320646   5.458  -0.098   8.661  0.0386 -0.4684  0.0871
  180SLPC  H13X20647   5.379  -0.097   8.583 -0.1699 -1.7271  0.2720
  180SLPC  H13Y20648   5.485  -0.205   8.673  2.1104 -0.0808 -0.8132
  180SLPC  C31420649   5.573  -0.020   8.594  0.7001 -0.2540 -0.7054
  180SLPC  H14X20650   5.636  -0.088   8.533  1.3285 -0.0419 -0.3073
  180SLPC  H14Y20651   5.641   0.012   8.676 -2.0243 -2.3066  2.4724
  180SLPC  C31520652   5.527   0.111   8.527 -0.2432  0.2157 -0.6869
  180SLPC  H15X20653   5.528   0.190   8.606 -0.3375 -1.9496  1.5670
  180SLPC  H15Y20654   5.421   0.091   8.500  0.6753 -1.2389 -3.3243
  180SLPC  C31620655   5.611   0.139   8.397  0.1854  0.2833  0.5868
  180SLPC  H16X20656   5.628   0.040   8.349  0.8779  1.0700 -0.8393
  180SLPC  H16Y20657   5.703   0.186   8.437 -0.3074  1.0654  0.8213
  180SLPC  C31720658   5.543   0.231   8.286 -0.5562 -0.0334 -0.0355
  180SLPC  H17X20659   5.510   0.333   8.315  1.1491 -0.0969  2.1972
  180SLPC  H17Y20660   5.446   0.182   8.262 -0.2165  0.0289 -1.6196
  180SLPC  C31820661   5.631   0.250   8.152  0.5435  0.3675 -0.2628
  180SLPC  H18X20662   5.656   0.149   8.113  1.5441  0.4795  0.0691
  180SLPC  H18Y20663   5.724   0.299   8.188  1.4279 -2.0834  0.9083
  180SLPC  H18Z20664   5.576   0.315   8.081 -1.3490 -1.8001 -0.8251
  181SLPC     N20665   1.045   4.465  11.011  0.2614  0.1176  0.2490
  181SLPC   C1320666   1.088   4.323  11.030 -0.2130 -0.6187  0.0284
  181SLPC  H13A20667   1.011   4.264  11.078 -1.4936 -0.5242 -1.8664
  181SLPC  H13B20668   1.122   4.275  10.939  1.0760  0.1949  0.0704
  181SLPC  H13C20669   1.173   4.323  11.096 -1.3776  3.5546  1.6637
  181SLPC   C1420670   0.968   4.469  10.877  0.4210 -0.0025  0.6776
  181SLPC  H14A20671   0.936   4.571  10.857  1.3783 -0.1964 -2.0946
  181SLPC  H14B20672   1.026   4.446  10.789  0.8578  1.7453  0.4732
  181SLPC  H14C20673   0.878   4.410  10.878  0.4841 -0.2177 -2.1125
  181SLPC   C1520674   1.166   4.552  10.985 -0.1926 -0.3779  0.3052
  181SLPC  H15A20675   1.137   4.648  10.946  0.1321 -0.2172  0.4545
  181SLPC  H15B20676   1.224   4.565  11.076  0.1386  2.7739 -0.3026
  181SLPC  H15C20677   1.230   4.498  10.917 -2.0689 -1.8283 -0.3512
  181SLPC   C1220678   0.959   4.519  11.118 -0.0138  0.1980 -0.2820
  181SLPC  H12A20679   0.943   4.624  11.102  0.4325  0.5014  1.1798
  181SLPC  H12B20680   1.013   4.514  11.212  1.9428  0.9843 -1.3251
  181SLPC   C1120681   0.813   4.467  11.135 -0.7153  0.2584  0.4607
  181SLPC  H11A20682   0.752   4.499  11.049  0.3690 -0.8027 -0.7255
  181SLPC  H11B20683   0.751   4.513  11.215 -1.6854  0.9043 -0.6536
  181SLPC     P20684   0.730   4.227  11.073  0.1339  0.2764 -0.0127
  181SLPC   O1320685   0.807   4.101  11.053 -0.5530  0.3577 -0.2114
  181SLPC   O1420686   0.602   4.209  11.135  0.2319  0.1283 -0.1175
  181SLPC   O1220687   0.817   4.324  11.161 -0.2878  0.5734 -0.7829
  181SLPC   O1120688   0.710   4.306  10.935  0.1486  0.1158  0.5094
  181SLPC    C120689   0.622   4.258  10.828 -0.4041 -0.4434 -0.0578
  181SLPC    HA20690   0.666   4.283  10.729 -1.4292  2.9483  0.2874
  181SLPC    HB20691   0.606   4.148  10.833  0.1965 -0.4214  3.5356
  181SLPC    C220692   0.486   4.325  10.835  0.0660  0.7901 -0.4955
  181SLPC    HS20693   0.441   4.327  10.936  1.3465  0.5358  0.0867
  181SLPC   O2120694   0.391   4.274  10.739 -0.2837 -0.4689 -0.0516
  181SLPC   C2120695   0.357   4.149  10.720  0.3988 -0.3448 -0.1922
  181SLPC   O2220696   0.401   4.051  10.778 -0.0639  0.1985  0.3198
  181SLPC   C2220697   0.257   4.152  10.603  0.1080  0.4202 -0.6334
  181SLPC   H2R20698   0.189   4.064  10.613  0.5402  0.2458  0.8656
  181SLPC   H2S20699   0.200   4.246  10.615  0.2961  0.2517  1.7874
  181SLPC    C320700   0.502   4.483  10.808  0.3139  0.2225 -0.7344
  181SLPC    HX20701   0.582   4.518  10.878 -1.3800  0.4403  1.1339
  181SLPC    HY20702   0.409   4.531  10.844  0.6507  0.3454 -0.0163
  181SLPC   O3120703   0.526   4.505  10.665  0.2799  0.4263  0.3885
  181SLPC   C3120704   0.604   4.603  10.621  0.1757 -0.2044 -0.7514
  181SLPC   O3220705   0.649   4.690  10.697 -0.2658 -0.0158 -0.3050
  181SLPC   C3220706   0.647   4.564  10.479  0.6931  0.4759 -0.1577
  181SLPC   H2X20707   0.664   4.662  10.429 -0.1934 -0.2773 -2.0104
  181SLPC   H2Y20708   0.575   4.499  10.425 -0.4552  1.4178  0.2161
  181SLPC   C2320709   0.327   4.149  10.464 -0.0977  1.0895 -0.0179
  181SLPC   H3R20710   0.246   4.115  10.396 -0.9016 -1.1601  1.9763
  181SLPC   H3S20711   0.408   4.073  10.462  1.5174  2.7837 -3.4687
  181SLPC   C2420712   0.363   4.285  10.406  0.2817  0.0961  0.1147
  181SLPC   H4R20713   0.470   4.311  10.424  0.4879 -2.0586  2.1832
  181SLPC   H4S20714   0.305   4.361  10.462  2.0089  1.0492  0.6589
  181SLPC   C2520715   0.338   4.298  10.254  0.3347  0.6114 -0.2192
  181SLPC   H5R20716   0.340   4.407  10.232 -1.0726  1.1994  2.3800
  181SLPC   H5S20717   0.233   4.265  10.242  0.0393 -0.1263  3.9118
  181SLPC   C2620718   0.430   4.205  10.171 -0.2079  0.1033 -0.0012
  181SLPC   H6R20719   0.379   4.145  10.092  1.0785 -0.9313 -0.0605
  181SLPC   H6S20720   0.485   4.132  10.234 -0.0555 -0.0868 -0.3530
  181SLPC   C2720721   0.543   4.286  10.090  0.4097  0.2450 -0.0696
  181SLPC   H7R20722   0.612   4.214  10.040  0.5919  1.5721 -1.7505
  181SLPC   H7S20723   0.597   4.341  10.170 -0.5250 -0.3416  0.9786
  181SLPC   C2820724   0.488   4.373   9.970 -0.2725  0.7740 -0.0911
  181SLPC   H8R20725   0.426   4.455  10.014 -2.8056 -0.4210 -1.3066
  181SLPC   H8S20726   0.418   4.308   9.913  1.7857 -0.6017 -1.1075
  181SLPC   C2920727   0.593   4.444   9.880 -0.1244  0.5266 -0.0493
  181SLPC   H9R20728   0.647   4.533   9.915  0.4180  0.1260  0.1526
  181SLPC  C21020729   0.628   4.398   9.754  0.1120 -0.1553  0.1931
  181SLPC  H10R20730   0.713   4.449   9.706  0.9781 -2.6636 -0.9869
  181SLPC  C21120731   0.573   4.286   9.673 -0.5558 -0.0301  0.2415
  181SLPC  H11R20732   0.549   4.190   9.724  0.0761 -0.2827  0.0668
  181SLPC  H11S20733   0.662   4.246   9.619 -0.7740 -0.3372  0.1105
  181SLPC  C21220734   0.443   4.318   9.593 -0.4347 -0.3165 -0.0873
  181SLPC  H12R20735   0.382   4.404   9.624  2.6127  2.2055 -0.7936
  181SLPC  C21320736   0.401   4.263   9.479 -0.2211  1.5915  0.5822
  181SLPC  H13R20737   0.311   4.309   9.435 -0.6814 -0.5746 -0.8488
  181SLPC  C21420738   0.465   4.145   9.398  0.3598 -0.0406  0.9550
  181SLPC  H14R20739   0.380   4.087   9.356  0.4344 -0.1783  0.9937
  181SLPC  H14S20740   0.528   4.069   9.450  1.6018  0.2331 -0.1246
  181SLPC  C21520741   0.554   4.192   9.281  0.5911 -0.0144  0.1067
  181SLPC  H15R20742   0.605   4.104   9.235 -3.1292 -1.1928 -1.9492
  181SLPC  H15S20743   0.624   4.268   9.321  3.2861 -1.6392 -1.3442
  181SLPC  C21620744   0.472   4.258   9.167  0.1649 -0.4557 -0.2805
  181SLPC  H16R20745   0.529   4.289   9.077  0.0363 -0.6317 -0.4217
  181SLPC  H16S20746   0.411   4.343   9.205  0.2953  0.9701 -3.1533
  181SLPC  C21720747   0.369   4.157   9.103 -0.5168  0.0148 -0.0143
  181SLPC  H17R20748   0.285   4.137   9.174  0.5158  0.6467  1.4054
  181SLPC  H17S20749   0.422   4.061   9.088  1.1548  0.4819  2.5219
  181SLPC  C21820750   0.307   4.201   8.980 -0.0047  0.1554  0.0579
  181SLPC  H18R20751   0.378   4.211   8.896 -0.5765  0.5956 -0.3759
  181SLPC  H18S20752   0.256   4.299   8.992  0.1888  0.3877 -0.9576
  181SLPC  H18T20753   0.238   4.119   8.952 -0.9996  1.1115 -0.3646
  181SLPC   C3320754   0.788   4.489  10.488  0.0453  0.6188 -0.1401
  181SLPC   H3X20755   0.783   4.402  10.558  0.1974  0.7736  0.0664
  181SLPC   H3Y20756   0.864   4.559  10.529 -0.3808  0.7991  0.3341
  181SLPC   C3420757   0.831   4.440  10.344  0.0514  0.7665 -0.1958
  181SLPC   H4X20758   0.747   4.378  10.304  1.6334 -1.1730 -0.5970
  181SLPC   H4Y20759   0.907   4.362  10.365  0.7661  1.8973  1.5153
  181SLPC   C3520760   0.868   4.554  10.244 -0.0827  0.1477  0.3369
  181SLPC   H5X20761   0.962   4.611  10.260 -1.1327  1.7976  0.8185
  181SLPC   H5Y20762   0.782   4.625  10.243  0.8367  1.2903  1.0588
  181SLPC   C3620763   0.876   4.502  10.104 -0.2000  0.3318  0.6118
  181SLPC   H6X20764   0.774   4.474  10.071 -0.3117  1.4756 -0.0662
  181SLPC   H6Y20765   0.939   4.410  10.105 -0.4815  0.1312 -0.0665
  181SLPC   C3720766   0.937   4.605  10.004  0.5228 -0.5671 -0.2025
  181SLPC   H7X20767   1.025   4.659  10.043 -1.1835  1.4178  0.9660
  181SLPC   H7Y20768   0.864   4.686   9.982  0.8740 -0.9100 -2.8253
  181SLPC   C3820769   0.981   4.545   9.870 -0.2038  0.6295  0.0229
  181SLPC   H8X20770   0.906   4.472   9.833  1.4174 -0.6868 -0.7530
  181SLPC   H8Y20771   1.078   4.492   9.885  0.6352  1.5400 -1.8699
  181SLPC   C3920772   0.995   4.646   9.760 -0.6600 -0.0742  0.4038
  181SLPC   H9X20773   1.079   4.713   9.791 -1.8133  0.4362  2.5584
  181SLPC   H9Y20774   0.900   4.705   9.760  0.2145  1.3817  1.0986
  181SLPC  C31020775   1.034   4.576   9.633  0.0666  0.0061  0.2854
  181SLPC  H10X20776   0.950   4.513   9.597 -0.2762  1.2096 -1.0576
  181SLPC  H10Y20777   1.119   4.510   9.658  1.2621  1.0289 -1.0106
  181SLPC  C31120778   1.057   4.676   9.523  0.5144 -0.0209 -0.2692
  181SLPC  H11X20779   1.155   4.726   9.541  2.6030 -4.2192  0.4432
  181SLPC  H11Y20780   0.976   4.753   9.522 -1.0718 -1.6682 -0.1414
  181SLPC  C31220781   1.077   4.601   9.385  0.3597  0.5497 -0.3318
  181SLPC  H12X20782   0.979   4.551   9.370 -0.3430  1.0919  2.1199
  181SLPC  H12Y20783   1.163   4.531   9.390  0.1846  0.4541  2.0141
  181SLPC  C31320784   1.085   4.706   9.278 -0.4747  0.3384  0.7177
  181SLPC  H13X20785   1.177   4.769   9.285 -0.4560  0.6475 -1.7638
  181SLPC  H13Y20786   0.991   4.764   9.273 -0.9650 -0.4664  0.5896
  181SLPC  C31420787   1.088   4.659   9.134  0.4221  0.7727  0.0268
  181SLPC  H14X20788   1.012   4.578   9.130  1.2203  0.0095  0.2687
  181SLPC  H14Y20789   1.188   4.613   9.118 -0.2816 -0.6835 -0.2572
  181SLPC  C31520790   1.059   4.760   9.024 -0.2283  0.2179  0.2007
  181SLPC  H15X20791   1.150   4.822   9.013  1.9814 -3.1012 -0.9814
  181SLPC  H15Y20792   0.973   4.819   9.064  0.6128  1.6465 -0.0738
  181SLPC  C31620793   1.030   4.691   8.893  0.0232 -0.6205 -0.4466
  181SLPC  H16X20794   0.951   4.616   8.914  1.5581 -1.4137  2.7634
  181SLPC  H16Y20795   1.124   4.642   8.860  0.8057  0.6137 -0.0881
  181SLPC  C31720796   0.990   4.799   8.789  0.1880 -0.0677 -0.6087
  181SLPC  H17X20797   1.036   4.900   8.800  1.1679 -0.3817 -1.6627
  181SLPC  H17Y20798   0.882   4.805   8.816  0.6653  0.8037  1.2353
  181SLPC  C31820799   0.997   4.732   8.651  0.7222 -0.0146  0.1946
  181SLPC  H18X20800   0.962   4.802   8.573  2.6001  1.1628  0.3899
  181SLPC  H18Y20801   0.946   4.633   8.644  0.7255 -0.1576  1.9611
  181SLPC  H18Z20802   1.102   4.714   8.622  0.0113 -2.0124 -1.2646
  182SLPC     N20803   6.094   5.676  11.198  0.3804 -0.0470  0.4044
  182SLPC   C1320804   6.154   5.744  11.074  0.8944  0.4878 -0.4502
  182SLPC  H13A20805   6.152   5.686  10.983  2.8582 -0.6540  0.1971
  182SLPC  H13B20806   6.087   5.826  11.054  0.2734 -0.6032 -3.0405
  182SLPC  H13C20807   6.257   5.773  11.083  0.6810  1.1978 -0.2959
  182SLPC   C1420808   6.119   5.767  11.312  0.7160  0.0633 -0.6963
  182SLPC  H14A20809   6.098   5.732  11.412  1.6958 -0.4680 -0.6746
  182SLPC  H14B20810   6.222   5.796  11.321  0.7430 -0.2054 -0.0996
  182SLPC  H14C20811   6.056   5.853  11.299  0.1925  0.0054  1.2278
  182SLPC   C1520812   6.173   5.549  11.216 -0.2073  0.1668  0.3898
  182SLPC  H15A20813   6.277   5.570  11.196  0.4925 -2.0561  1.5087
  182SLPC  H15B20814   6.166   5.507  11.315  0.2526 -0.2860  0.2350
  182SLPC  H15C20815   6.140   5.480  11.139  1.5750  0.4691 -0.6738
  182SLPC   C1220816   5.951   5.642  11.179 -0.1288  0.1903 -0.1178
  182SLPC  H12A20817   5.901   5.737  11.165  0.3284  0.6402  1.2048
  182SLPC  H12B20818   5.919   5.601  11.274  0.5512  0.2376  0.1318
  182SLPC   C1120819   5.904   5.557  11.059 -0.5155 -0.1684 -0.0989
  182SLPC  H11A20820   5.927   5.617  10.969 -0.6173  0.7050  0.4495
  182SLPC  H11B20821   5.794   5.551  11.071 -0.7024  2.6230 -0.0799
  182SLPC     P20822   5.993   5.356  10.906 -0.4962  0.0458 -0.1460
  182SLPC   O1320823   6.091   5.249  10.927 -0.4769  0.1421 -0.1663
  182SLPC   O1420824   5.862   5.306  10.861 -0.3179 -0.3616 -0.6475
  182SLPC   O1220825   5.969   5.433  11.047  0.0001  0.0223  0.6867
  182SLPC   O1120826   6.063   5.454  10.807 -0.2670 -0.0076  0.3841
  182SLPC    C120827   6.121   5.390  10.689 -0.6693  0.1581  0.4627
  182SLPC    HA20828   6.230   5.414  10.693 -0.7044  0.3830  0.0740
  182SLPC    HB20829   6.110   5.280  10.686 -2.0216  0.2176  2.1451
  182SLPC    C220830   6.047   5.461  10.572 -0.3031 -0.5995  0.4456
  182SLPC    HS20831   5.939   5.454  10.594 -0.5716 -0.9424 -0.9493
  182SLPC   O2120832   6.088   5.387  10.455  0.4760  0.1883  0.0862
  182SLPC   C2120833   6.042   5.265  10.423 -0.0417 -0.3325  0.1943
  182SLPC   O2220834   5.956   5.205  10.489  0.4398  0.3968 -0.0443
  182SLPC   C2220835   6.078   5.219  10.278 -0.6093  0.1721 -0.1427
  182SLPC   H2R20836   6.041   5.296  10.207  0.2257  0.4037 -0.3419
  182SLPC   H2S20837   6.189   5.210  10.272 -0.5647  1.3729 -1.3937
  182SLPC    C320838   6.097   5.612  10.567  0.9431  0.8414 -0.2600
  182SLPC    HX20839   6.206   5.617  10.588  0.9004  0.3644  0.0752
  182SLPC    HY20840   6.045   5.666  10.650 -1.8965 -0.5995 -1.0217
  182SLPC   O3120841   6.053   5.688  10.450 -0.2944 -0.3733 -0.1094
  182SLPC   C3120842   6.110   5.810  10.438  0.1723  0.1895 -0.7151
  182SLPC   O3220843   6.176   5.864  10.519 -0.1210 -0.2284 -0.1121
  182SLPC   C3220844   6.064   5.880  10.309 -0.0096  0.2927 -0.4403
  182SLPC   H2X20845   6.111   5.981  10.304  2.1522 -0.6549  0.2710
  182SLPC   H2Y20846   5.957   5.891  10.334  0.0786  0.5347 -0.1632
  182SLPC   C2320847   6.016   5.078  10.241  0.0933  0.5591  0.0439
  182SLPC   H3R20848   5.908   5.074  10.268  0.7719 -0.2903  2.7457
  182SLPC   H3S20849   6.076   5.009  10.305  0.6915  0.3501 -0.7267
  182SLPC   C2420850   6.049   5.029  10.101  0.2086  0.1601  0.2088
  182SLPC   H4R20851   6.050   4.918  10.101 -1.5652  0.1242  0.9537
  182SLPC   H4S20852   6.156   5.049  10.080  0.5265 -1.2755  0.4599
  182SLPC   C2520853   5.964   5.080   9.988  0.5906 -0.0005 -0.2697
  182SLPC   H5R20854   5.968   5.191   9.998 -0.9744  0.0286  0.2478
  182SLPC   H5S20855   5.855   5.057   9.980 -0.0716  2.8185  0.1580
  182SLPC   C2620856   6.028   5.044   9.854 -0.3804  0.8514 -0.1156
  182SLPC   H6R20857   6.013   4.935   9.839  0.4790  0.6981  0.1687
  182SLPC   H6S20858   6.135   5.070   9.869 -0.4537 -0.2028  2.4453
  182SLPC   C2720859   5.974   5.134   9.747 -0.5152  1.4778 -0.9149
  182SLPC   H7R20860   5.990   5.241   9.772 -0.4832  1.2775 -0.0845
  182SLPC   H7S20861   5.867   5.116   9.723 -0.7470  0.4379  0.9012
  182SLPC   C2820862   6.042   5.120   9.609 -1.0421 -0.6286 -0.0818
  182SLPC   H8R20863   6.053   5.012   9.582 -1.9332 -1.5668  3.1405
  182SLPC   H8S20864   6.138   5.175   9.614 -1.6769  0.4576  0.1603
  182SLPC   C2920865   5.968   5.194   9.493  0.1890  0.3468  0.7215
  182SLPC   H9R20866   6.000   5.299   9.484 -2.6594  1.4539  2.7476
  182SLPC  C21020867   5.879   5.143   9.411  0.1334 -0.4105 -0.2147
  182SLPC  H10R20868   5.829   5.204   9.335 -1.5351 -0.7486  0.5798
  182SLPC  C21120869   5.843   4.996   9.400  0.0668 -0.6302  0.2920
  182SLPC  H11R20870   5.734   4.987   9.379 -0.0186 -0.4934  0.6851
  182SLPC  H11S20871   5.866   4.945   9.496  2.2970 -0.6499 -0.2241
  182SLPC  C21220872   5.907   4.924   9.284  0.2440  0.6125 -0.7570
  182SLPC  H12R20873   5.989   4.858   9.316 -1.4080 -0.8479  0.4759
  182SLPC  C21320874   5.886   4.938   9.148 -0.5153  0.3230  0.4875
  182SLPC  H13R20875   5.946   4.880   9.076 -0.3649  0.1743  0.7329
  182SLPC  C21420876   5.792   5.048   9.097 -0.0577 -0.1084 -0.5527
  182SLPC  H14R20877   5.755   5.112   9.179 -0.3498 -0.5595 -0.3292
  182SLPC  H14S20878   5.708   5.003   9.041  0.4210 -1.2072 -0.4109
  182SLPC  C21520879   5.853   5.131   8.992 -0.5337  0.3937  0.3998
  182SLPC  H15R20880   5.940   5.191   9.026 -0.9598  1.0068  0.4197
  182SLPC  H15S20881   5.784   5.214   8.965  1.4014  2.1819  0.8233
  182SLPC  C21620882   5.889   5.056   8.859 -0.5738  1.2114  0.1928
  182SLPC  H16R20883   5.801   4.995   8.832  0.5612  0.3396 -1.6505
  182SLPC  H16S20884   5.981   4.994   8.875 -0.5374  1.1248 -0.3498
  182SLPC  C21720885   5.925   5.146   8.736 -0.3240  0.3863  0.4182
  182SLPC  H17R20886   5.829   5.192   8.704 -1.4133 -1.6903  0.6275
  182SLPC  H17S20887   5.939   5.084   8.645 -0.1500 -0.4123  0.9842
  182SLPC  C21820888   6.026   5.254   8.758 -0.4334  0.7158 -0.1519
  182SLPC  H18R20889   6.122   5.205   8.784 -1.6413 -1.7878 -0.2308
  182SLPC  H18S20890   5.999   5.318   8.844 -0.5493  0.6813 -0.1638
  182SLPC  H18T20891   6.046   5.315   8.667  1.0533 -0.7197 -0.8237
  182SLPC   C3320892   6.091   5.787  10.190 -0.1700  0.1032  0.7125
  182SLPC   H3X20893   6.058   5.688  10.226 -0.1010  0.2640  1.2295
  182SLPC   H3Y20894   6.200   5.781  10.171 -0.6703 -0.3815 -2.2497
  182SLPC   C3420895   6.018   5.820  10.063 -0.5882 -0.1401 -0.3978
  182SLPC   H4X20896   6.019   5.931  10.061 -0.7026 -0.1219  0.4481
  182SLPC   H4Y20897   5.915   5.779  10.072 -0.5371 -0.2976 -0.5244
  182SLPC   C3520898   6.073   5.769   9.929 -1.0352  0.2726  0.3513
  182SLPC   H5X20899   6.040   5.665   9.906 -0.5175  0.7409 -2.6958
  182SLPC   H5Y20900   6.184   5.769   9.926 -1.0300 -1.4569  0.0480
  182SLPC   C3620901   6.016   5.852   9.812 -0.3956 -0.0373  0.4813
  182SLPC   H6X20902   6.026   5.958   9.844 -1.0218  0.3576 -0.5658
  182SLPC   H6Y20903   5.909   5.824   9.798  0.1570 -2.5954  1.1392
  182SLPC   C3720904   6.085   5.820   9.682  0.4282 -0.6254 -0.1795
  182SLPC   H7X20905   6.070   5.714   9.654 -1.3102 -0.8159  1.3468
  182SLPC   H7Y20906   6.193   5.840   9.698  0.4370 -1.7441  1.2687
  182SLPC   C3820907   6.052   5.906   9.556  0.2552  0.6328  0.5357
  182SLPC   H8X20908   6.045   6.014   9.584 -1.1480  0.4459  0.9209
  182SLPC   H8Y20909   5.950   5.872   9.528 -0.2513  1.8396  0.9020
  182SLPC   C3920910   6.148   5.884   9.441 -0.3914 -0.4621 -0.2931
  182SLPC   H9X20911   6.194   5.783   9.450 -0.0399 -0.2725  0.0237
  182SLPC   H9Y20912   6.235   5.951   9.454 -0.4211 -0.9557  2.7427
  182SLPC  C31020913   6.073   5.909   9.310 -0.7089  0.4009 -0.3988
  182SLPC  H10X20914   6.008   5.996   9.334 -2.2935 -0.8587 -0.0371
  182SLPC  H10Y20915   6.002   5.824   9.302 -0.2076 -0.1469  0.8239
  182SLPC  C31120916   6.161   5.908   9.180  0.1971 -0.3631 -0.0877
  182SLPC  H11X20917   6.254   5.964   9.206 -1.1564  0.8408  2.3082
  182SLPC  H11Y20918   6.110   5.975   9.108 -0.0474 -2.1454 -1.5928
  182SLPC  C31220919   6.173   5.773   9.102 -0.5874 -0.1636  0.4919
  182SLPC  H12X20920   6.242   5.789   9.017 -1.0627  2.2353  0.5188
  182SLPC  H12Y20921   6.079   5.740   9.052 -0.7675  0.8409  0.1581
  182SLPC  C31320922   6.238   5.658   9.187  0.6316  0.3694  0.2958
  182SLPC  H13X20923   6.166   5.635   9.268  0.5800 -1.4293 -0.2324
  182SLPC  H13Y20924   6.327   5.699   9.239  0.6272 -0.5961  1.0664
  182SLPC  C31420925   6.276   5.542   9.090 -0.2439  0.6279  0.4099
  182SLPC  H14X20926   6.371   5.573   9.042 -0.5435 -1.7852 -1.8062
  182SLPC  H14Y20927   6.191   5.528   9.019  0.8024 -2.8161 -0.2460
  182SLPC  C31520928   6.289   5.411   9.164  0.2565  0.3570  0.0414
  182SLPC  H15X20929   6.218   5.401   9.248  1.2784  1.4592  1.0709
  182SLPC  H15Y20930   6.395   5.388   9.188  0.7904  0.6863 -1.9005
  182SLPC  C31620931   6.246   5.293   9.071 -0.1246  0.5385 -0.7739
  182SLPC  H16X20932   6.309   5.293   8.979 -0.0501  2.2130 -0.7319
  182SLPC  H16Y20933   6.139   5.303   9.043 -0.1103  1.7198 -0.4464
  182SLPC  C31720934   6.285   5.155   9.132  0.4205 -0.1333  0.0654
  182SLPC  H17X20935   6.223   5.155   9.224  0.0644 -1.6022 -0.1499
  182SLPC  H17Y20936   6.386   5.156   9.178 -0.3871 -0.9289  1.9109
  182SLPC  C31820937   6.256   5.036   9.045 -0.4229  0.6815  0.1139
  182SLPC  H18X20938   6.303   5.052   8.945 -1.7262 -0.7475 -0.7421
  182SLPC  H18Y20939   6.146   5.030   9.035 -0.5816  3.3946 -0.2481
  182SLPC  H18Z20940   6.312   4.951   9.089 -1.6686  0.5534  1.4708
  183SLPC     N20941   0.290   6.765  10.915  0.2007 -0.0456  0.0898
  183SLPC   C1320942   0.237   6.783  10.776  0.2188 -0.6413  0.0762
  183SLPC  H13A20943   0.228   6.886  10.746  1.7979  0.1105  2.0274
  183SLPC  H13B20944   0.318   6.760  10.708 -2.1130 -1.1296 -2.6242
  183SLPC  H13C20945   0.140   6.737  10.764 -0.8348  1.3096  0.8862
  183SLPC   C1420946   0.325   6.620  10.933 -1.0703 -0.4673  0.0831
  183SLPC  H14A20947   0.250   6.556  10.889 -1.5080 -0.0220  0.1792
  183SLPC  H14B20948   0.418   6.592  10.886 -0.4511  1.1239  0.3137
  183SLPC  H14C20949   0.326   6.593  11.037 -1.8119 -1.5466 -0.1872
  183SLPC   C1520950   0.170   6.798  11.004  0.0125 -0.8698  0.3167
  183SLPC  H15A20951   0.093   6.736  10.962  0.8141 -0.9802 -1.0317
  183SLPC  H15B20952   0.178   6.791  11.111 -1.5187  0.2815  0.5141
  183SLPC  H15C20953   0.144   6.901  10.982 -0.7739 -0.9625  0.7953
  183SLPC   C1220954   0.406   6.860  10.950  0.5123  0.3206 -0.0019
  183SLPC  H12A20955   0.434   6.828  11.050  0.6715 -1.5193 -0.6137
  183SLPC  H12B20956   0.364   6.959  10.953 -0.9883 -0.2744 -1.1383
  183SLPC   C1120957   0.532   6.865  10.863 -1.0399  0.7463 -0.5633
  183SLPC  H11A20958   0.602   6.936  10.912  0.4192 -1.5047  0.7154
  183SLPC  H11B20959   0.503   6.900  10.761 -1.0349 -2.2228 -1.6555
  183SLPC     P20960   0.692   6.684  10.963 -0.0283  0.2032 -0.4858
  183SLPC   O1320961   0.689   6.775  11.080  0.1589 -0.1315  0.1641
  183SLPC   O1420962   0.645   6.544  10.993  0.4570 -0.0891 -0.1252
  183SLPC   O1220963   0.591   6.741  10.854 -0.2501  0.7703 -0.6480
  183SLPC   O1120964   0.831   6.691  10.902  0.2305 -0.1890 -0.6269
  183SLPC    C120965   0.880   6.795  10.826  0.0562 -0.4843 -0.2424
  183SLPC    HA20966   0.835   6.894  10.845 -2.0206 -1.5393  0.4452
  183SLPC    HB20967   0.989   6.806  10.841 -0.0481  0.8911 -0.4609
  183SLPC    C220968   0.865   6.775  10.670 -0.8861  0.5949  0.4351
  183SLPC    HS20969   0.756   6.774  10.648 -1.1625 -2.6384  1.7218
  183SLPC   O2120970   0.934   6.651  10.636 -0.3552 -0.1704 -0.3706
  183SLPC   C2120971   0.864   6.574  10.550 -0.1979  1.1296 -0.8122
  183SLPC   O2220972   0.769   6.606  10.483 -0.1904  0.3392  0.5164
  183SLPC   C2220973   0.943   6.439  10.540  0.1097  0.1932  0.2035
  183SLPC   H2R20974   1.008   6.435  10.631 -1.9981 -1.0722  1.6972
  183SLPC   H2S20975   0.864   6.361  10.538 -1.9513  2.2780 -2.1299
  183SLPC    C320976   0.922   6.896  10.581 -0.0913 -0.3478 -0.8629
  183SLPC    HX20977   1.026   6.917  10.617 -1.0850  1.0759  1.3164
  183SLPC    HY20978   0.870   6.987  10.619  2.5715 -0.0089  2.2368
  183SLPC   O3120979   0.915   6.875  10.439  0.8078 -0.0784  0.1879
  183SLPC   C3120980   0.786   6.891  10.383 -0.5985  0.4891 -0.3768
  183SLPC   O3220981   0.686   6.919  10.451  0.8565  0.0347 -0.3800
  183SLPC   C3220982   0.778   6.862  10.238 -0.5199  0.3840  0.0617
  183SLPC   H2X20983   0.767   6.963  10.193  0.6999  0.2068 -0.6548
  183SLPC   H2Y20984   0.694   6.792  10.220  0.4734 -0.8760  0.2702
  183SLPC   C2320985   1.014   6.437  10.396 -0.3590 -0.7567 -0.2962
  183SLPC   H3R20986   1.074   6.531  10.396 -3.7882  1.5194  0.9128
  183SLPC   H3S20987   0.942   6.451  10.313 -0.8952  2.7783  0.6820
  183SLPC   C2420988   1.121   6.324  10.388 -0.2085 -0.7322  0.8743
  183SLPC   H4R20989   1.060   6.231  10.385 -1.3749  0.0619 -2.8280
  183SLPC   H4S20990   1.190   6.315  10.474 -0.5291 -2.2380  0.9904
  183SLPC   C2520991   1.217   6.334  10.263  0.2734  0.0015 -0.0659
  183SLPC   H5R20992   1.293   6.254  10.274  0.0083 -0.1512  0.7036
  183SLPC   H5S20993   1.278   6.426  10.279 -1.1025  1.3869 -2.5366
  183SLPC   C2620994   1.135   6.319  10.136  0.6207 -0.2126 -0.2487
  183SLPC   H6R20995   1.038   6.374  10.140 -0.1102 -1.5219  0.2872
  183SLPC   H6S20996   1.100   6.214  10.137  1.1072 -0.3756 -0.0368
  183SLPC   C2720997   1.201   6.331  10.000 -0.0349  0.4438  0.5174
  183SLPC   H7R20998   1.278   6.411  10.007 -0.9898  1.5526 -1.1458
  183SLPC   H7S20999   1.124   6.354   9.923  2.3791 -1.1574 -2.4985
  183SLPC   C2821000   1.275   6.197   9.964  0.2700 -0.1545 -0.2766
  183SLPC   H8R21001   1.204   6.114   9.943 -0.2652  0.5737 -1.3740
  183SLPC   H8S21002   1.334   6.174  10.055  1.0058 -0.8568 -0.9264
  183SLPC   C2921003   1.360   6.212   9.846 -0.8376 -0.1710  0.5977
  183SLPC   H9R21004   1.463   6.240   9.874 -1.0812  1.7086 -0.3427
  183SLPC  C21021005   1.334   6.213   9.717  0.8842  0.2198 -0.8620
  183SLPC  H10R21006   1.424   6.215   9.653  1.7018  1.8237  0.2985
  183SLPC  C21121007   1.199   6.187   9.648  0.2584 -0.2697 -1.1254
  183SLPC  H11R21008   1.189   6.261   9.566 -2.4578  0.7283  0.0408
  183SLPC  H11S21009   1.117   6.220   9.716 -0.9639 -3.6022 -0.8537
  183SLPC  C21221010   1.165   6.047   9.608 -0.3335 -0.7251 -0.1971
  183SLPC  H12R21011   1.131   5.992   9.697 -0.6788 -1.0656 -0.5369
  183SLPC  C21321012   1.173   5.977   9.488  0.4960 -0.0947 -0.1774
  183SLPC  H13R21013   1.147   5.870   9.491  0.2795 -0.0300  0.3207
  183SLPC  C21421014   1.206   6.049   9.355  0.2307  0.4157 -0.9358
  183SLPC  H14R21015   1.272   5.979   9.298  1.4791  1.2407 -0.5223
  183SLPC  H14S21016   1.258   6.145   9.375  1.9512 -0.8277  0.8419
  183SLPC  C21521017   1.085   6.083   9.276  0.2416  0.3143 -0.6779
  183SLPC  H15R21018   1.016   6.139   9.343 -0.9876 -3.4230  1.3529
  183SLPC  H15S21019   1.035   5.987   9.249 -0.4745  0.5163 -0.0992
  183SLPC  C21621020   1.117   6.175   9.157  0.0496  0.3413  0.3093
  183SLPC  H16R21021   1.198   6.130   9.096 -0.1707  0.6928 -0.2529
  183SLPC  H16S21022   1.174   6.264   9.190  1.3025 -0.2013 -0.3790
  183SLPC  C21721023   0.992   6.197   9.063  0.3921 -0.2306  0.3876
  183SLPC  H17R21024   1.015   6.266   8.979 -0.8882  0.1013  0.2926
  183SLPC  H17S21025   0.920   6.259   9.122  0.5860 -1.8317  2.3625
  183SLPC  C21821026   0.911   6.078   8.999 -0.0351  0.7323  0.4355
  183SLPC  H18R21027   0.976   6.006   8.945  1.0021  1.8080  0.2356
  183SLPC  H18S21028   0.827   6.115   8.935 -0.2352  0.0303  0.2921
  183SLPC  H18T21029   0.858   6.023   9.079  0.0659  0.9324  0.6416
  183SLPC   C3321030   0.904   6.801  10.171  0.5813  0.2717  0.0752
  183SLPC   H3X21031   0.916   6.696  10.207 -0.9948  0.6006  1.6250
  183SLPC   H3Y21032   0.994   6.847  10.216  0.1748  2.4176 -1.2495
  183SLPC   C3421033   0.905   6.803  10.015 -0.5589  0.7849 -1.0752
  183SLPC   H4X21034   0.888   6.905   9.975 -1.7283  0.8484 -0.4696
  183SLPC   H4Y21035   0.820   6.737   9.986 -0.1027  0.6226 -2.0560
  183SLPC   C3521036   1.023   6.740   9.958  0.2694  0.1580 -0.4682
  183SLPC   H5X21037   1.066   6.654  10.013 -0.2639  0.3287  0.2211
  183SLPC   H5Y21038   1.102   6.818   9.965  0.2510  0.1812 -0.5190
  183SLPC   C3621039   0.992   6.677   9.819  0.0090  0.4942 -1.0151
  183SLPC   H6X21040   0.925   6.747   9.765 -2.1943 -0.7013  0.0753
  183SLPC   H6Y21041   0.947   6.575   9.826  1.4588 -0.0584  0.7265
  183SLPC   C3721042   1.131   6.655   9.745 -0.7108  0.6643  0.9417
  183SLPC   H7X21043   1.227   6.645   9.801  0.3172  2.3510 -0.4493
  183SLPC   H7Y21044   1.144   6.742   9.676  0.9547  0.9732  1.6180
  183SLPC   C3821045   1.118   6.534   9.658  0.4950  0.1777 -0.4176
  183SLPC   H8X21046   1.083   6.449   9.720  1.6483  0.7086  0.9929
  183SLPC   H8Y21047   1.219   6.508   9.619  0.3276 -1.2020  0.0435
  183SLPC   C3921048   1.011   6.560   9.551 -0.2000  0.4854  0.3103
  183SLPC   H9X21049   1.058   6.634   9.484 -0.8243  2.8718  2.4298
  183SLPC   H9Y21050   0.917   6.599   9.596 -0.7363 -1.2730  0.7636
  183SLPC  C31021051   0.984   6.429   9.469  0.0202 -0.1592  0.8109
  183SLPC  H10X21052   0.936   6.365   9.546  1.2364 -0.9529  0.9216
  183SLPC  H10Y21053   1.068   6.371   9.427 -0.2015  0.4306 -0.4613
  183SLPC  C31121054   0.887   6.450   9.354 -0.2424 -0.0509 -0.7855
  183SLPC  H11X21055   0.799   6.501   9.398 -0.8547 -2.2853  0.6942
  183SLPC  H11Y21056   0.848   6.355   9.310  1.7019 -1.0976 -0.3087
  183SLPC  C31221057   0.949   6.527   9.244  0.5702 -0.2702 -0.7254
  183SLPC  H12X21058   1.035   6.472   9.199 -0.4669 -0.9008 -1.9626
  183SLPC  H12Y21059   0.971   6.633   9.268  0.4797 -0.2583 -0.6892
  183SLPC  C31321060   0.854   6.543   9.120  0.8590  0.6001 -0.1584
  183SLPC  H13X21061   0.776   6.613   9.155 -0.3080 -1.0280  0.6038
  183SLPC  H13Y21062   0.804   6.447   9.093  1.1841  0.6313 -0.8652
  183SLPC  C31421063   0.917   6.614   8.996  0.0215  0.4662 -0.2242
  183SLPC  H14X21064   1.006   6.554   8.969 -1.1190 -0.6752 -1.5672
  183SLPC  H14Y21065   0.960   6.709   9.033 -1.6978  0.8048  0.9997
  183SLPC  C31521066   0.809   6.630   8.886 -0.4150 -0.2152 -0.1040
  183SLPC  H15X21067   0.844   6.717   8.827 -2.8988  0.0845 -1.2144
  183SLPC  H15Y21068   0.710   6.648   8.934 -0.1792  0.1776  0.2329
  183SLPC  C31621069   0.780   6.506   8.806 -0.3658 -0.2245  0.5399
  183SLPC  H16X21070   0.755   6.420   8.872  1.8027 -0.9049  0.4899
  183SLPC  H16Y21071   0.871   6.474   8.751 -0.2532 -2.5643  2.0284
  183SLPC  C31721072   0.678   6.526   8.700  0.2836  0.3067  0.3607
  183SLPC  H17X21073   0.645   6.430   8.655 -0.6362  0.8617 -0.1758
  183SLPC  H17Y21074   0.721   6.584   8.616  2.4687 -1.4670  0.2338
  183SLPC  C31821075   0.556   6.609   8.746  0.6902 -0.1813 -0.0976
  183SLPC  H18X21076   0.484   6.627   8.664 -0.3567  3.1473  1.4750
  183SLPC  H18Y21077   0.572   6.715   8.774 -0.1862 -0.2048  0.5041
  183SLPC  H18Z21078   0.489   6.570   8.826 -0.3662  2.7067  0.4577
  184SLPC     N21079   2.875   3.234  10.808 -0.1168 -0.0111 -0.4102
  184SLPC   C1321080   2.938   3.102  10.863 -0.1494 -0.1204 -0.1410
  184SLPC  H13A21081   2.984   3.045  10.784 -1.1184 -1.2439  0.0951
  184SLPC  H13B21082   3.015   3.121  10.936 -1.7133 -0.7573  1.7386
  184SLPC  H13C21083   2.858   3.041  10.902  0.5990 -1.3799 -0.5748
  184SLPC   C1421084   2.993   3.323  10.762 -0.1979  0.1801  1.0427
  184SLPC  H14A21085   3.037   3.273  10.677 -1.7694  3.2884 -1.7604
  184SLPC  H14B21086   2.955   3.420  10.732  0.1722 -0.5152 -1.8705
  184SLPC  H14C21087   3.069   3.340  10.837  1.2398 -0.5029 -0.2286
  184SLPC   C1521088   2.799   3.301  10.916  0.2531 -0.1000  0.0074
  184SLPC  H15A21089   2.713   3.246  10.954  0.4439  1.1602  2.3403
  184SLPC  H15B21090   2.852   3.324  11.007  1.3519 -0.2478 -0.5961
  184SLPC  H15C21091   2.763   3.396  10.879  1.6592  0.2680 -0.4504
  184SLPC   C1221092   2.781   3.185  10.704 -0.7749  0.4023  0.1869
  184SLPC  H12A21093   2.696   3.133  10.746  0.1488 -1.4050 -0.1433
  184SLPC  H12B21094   2.838   3.114  10.646  0.1751  1.2055  0.1160
  184SLPC   C1121095   2.728   3.293  10.611 -0.6542  0.1229 -0.2690
  184SLPC  H11A21096   2.673   3.237  10.531  0.3687  0.0067 -0.9042
  184SLPC  H11B21097   2.812   3.351  10.568 -0.4585  1.3482  1.7181
  184SLPC     P21098   2.501   3.439  10.596  0.1575  0.0663 -0.4606
  184SLPC   O1321099   2.429   3.321  10.547 -0.0891 -0.2053  0.2830
  184SLPC   O1421100   2.430   3.540  10.681  0.7969  0.3742 -0.1976
  184SLPC   O1221101   2.634   3.383  10.672 -0.4034 -0.5332 -0.5140
  184SLPC   O1121102   2.551   3.499  10.457  0.4081 -0.2325 -0.8335
  184SLPC    C121103   2.646   3.604  10.458 -0.4035  0.3149 -0.6339
  184SLPC    HA21104   2.600   3.701  10.488  1.0805  0.4289  1.3531
  184SLPC    HB21105   2.733   3.585  10.524 -0.3968  0.2000 -0.6758
  184SLPC    C221106   2.707   3.620  10.317 -0.5161 -0.0140 -0.1109
  184SLPC    HS21107   2.633   3.654  10.241  0.3647 -3.1968 -2.4931
  184SLPC   O2121108   2.774   3.497  10.270  0.6844 -0.0742 -0.2658
  184SLPC   C2121109   2.772   3.472  10.139 -0.5055 -0.0439  0.4290
  184SLPC   O2221110   2.713   3.539  10.057  0.1300  0.4042 -0.1037
  184SLPC   C2221111   2.876   3.362  10.114 -0.4574 -0.2949 -0.3884
  184SLPC   H2R21112   2.969   3.408  10.076 -0.9420  0.2657 -0.9119
  184SLPC   H2S21113   2.904   3.321  10.214 -2.1009  1.3175  0.7640
  184SLPC    C321114   2.804   3.741  10.334  0.0374 -0.0556  0.3955
  184SLPC    HX21115   2.874   3.722  10.418  1.4300 -0.0565 -0.7604
  184SLPC    HY21116   2.740   3.829  10.357  0.2213  0.3581 -0.6494
  184SLPC   O3121117   2.878   3.759  10.210  0.0294  0.5315  0.1019
  184SLPC   C3121118   2.863   3.880  10.151 -0.3404  0.1563  0.3865
  184SLPC   O3221119   2.804   3.972  10.193  0.2899 -0.5517  0.2463
  184SLPC   C3221120   2.943   3.875  10.018 -0.2571 -0.2239 -0.5520
  184SLPC   H2X21121   3.048   3.850  10.043 -0.7561 -0.6545  1.1486
  184SLPC   H2Y21122   2.941   3.980   9.983  2.9450 -0.1136 -0.5074
  184SLPC   C2321123   2.825   3.251  10.014  0.1439  0.6969  0.4729
  184SLPC   H3R21124   2.730   3.203  10.044  0.4917  0.8964  1.9850
  184SLPC   H3S21125   2.896   3.166  10.005 -1.7143 -1.0452  1.9473
  184SLPC   C2421126   2.815   3.294   9.868 -0.3161 -0.4680  0.5371
  184SLPC   H4R21127   2.893   3.371   9.851  0.4518 -1.6020 -1.2341
  184SLPC   H4S21128   2.720   3.347   9.846  0.1843  0.2570  0.0915
  184SLPC   C2521129   2.840   3.185   9.766 -0.4754 -0.0131 -0.1520
  184SLPC   H5R21130   2.753   3.116   9.761 -0.1298 -0.4369 -0.3460
  184SLPC   H5S21131   2.928   3.127   9.800 -0.7637 -0.4002 -0.0660
  184SLPC   C2621132   2.851   3.237   9.627  0.0335  0.1807 -0.7600
  184SLPC   H6R21133   2.950   3.283   9.606  0.2455  0.2907  0.4630
  184SLPC   H6S21134   2.771   3.312   9.608  1.0156  1.5795  0.4715
  184SLPC   C2721135   2.818   3.128   9.528  0.5924 -0.2353 -0.1507
  184SLPC   H7R21136   2.710   3.104   9.544  0.3418  2.4606  2.7844
  184SLPC   H7S21137   2.891   3.045   9.531  0.8093  0.0047  2.9363
  184SLPC   C2821138   2.810   3.183   9.384 -0.5789 -0.4912 -0.3115
  184SLPC   H8R21139   2.902   3.226   9.339 -0.1875 -0.6824  0.3163
  184SLPC   H8S21140   2.728   3.258   9.390  1.5673  1.8413  0.4728
  184SLPC   C2921141   2.764   3.070   9.290  0.5027 -0.1736 -0.8820
  184SLPC   H9R21142   2.745   2.977   9.346 -2.0246  0.4182 -0.6962
  184SLPC  C21021143   2.743   3.076   9.166 -0.5641  0.6786  0.7265
  184SLPC  H10R21144   2.709   2.986   9.111  0.6901  0.4253  0.3363
  184SLPC  C21121145   2.771   3.202   9.085  0.4793  0.5612  0.2955
  184SLPC  H11R21146   2.869   3.183   9.037 -1.8293 -2.4644 -3.5757
  184SLPC  H11S21147   2.801   3.283   9.153  1.0761 -0.6542  1.5091
  184SLPC  C21221148   2.674   3.259   8.984 -0.1026  0.1211  0.4601
  184SLPC  H12R21149   2.617   3.345   9.020 -1.3522  0.3254 -1.9633
  184SLPC  C21321150   2.650   3.202   8.867  0.1402  0.0052  0.5689
  184SLPC  H13R21151   2.572   3.249   8.806 -1.7098 -0.8769  2.1911
  184SLPC  C21421152   2.718   3.079   8.812  0.1761  0.5449  0.0807
  184SLPC  H14R21153   2.697   2.983   8.864  0.7228 -0.6944 -1.9303
  184SLPC  H14S21154   2.829   3.084   8.815  0.2678 -0.8928 -0.3230
  184SLPC  C21521155   2.682   3.058   8.661  0.5961 -0.1223  0.8773
  184SLPC  H15R21156   2.701   3.152   8.604 -2.7058  0.2575  0.3004
  184SLPC  H15S21157   2.572   3.044   8.655  0.6969 -1.4747  1.9831
  184SLPC  C21621158   2.756   2.936   8.595 -0.2072  0.5646 -0.1578
  184SLPC  H16R21159   2.729   2.851   8.661  3.4345 -2.5687 -2.5078
  184SLPC  H16S21160   2.865   2.952   8.606 -0.2492 -0.0931  1.3562
  184SLPC  C21721161   2.729   2.904   8.452 -0.0921 -0.6341 -0.0611
  184SLPC  H17R21162   2.818   2.869   8.395  0.4035 -1.4860  1.2214
  184SLPC  H17S21163   2.693   2.998   8.403 -0.2683 -1.1662 -0.9728
  184SLPC  C21821164   2.616   2.803   8.429 -0.2087  0.1669 -0.3242
  184SLPC  H18R21165   2.605   2.764   8.325  1.8180  0.7100 -0.7660
  184SLPC  H18S21166   2.524   2.857   8.460 -0.3636 -0.9554  1.2086
  184SLPC  H18T21167   2.627   2.718   8.499 -0.5367  0.0865 -0.3673
  184SLPC   C3321168   2.888   3.769   9.921  0.2808 -0.9596 -0.3802
  184SLPC   H3X21169   2.782   3.789   9.898  0.1518 -0.4080  0.7003
  184SLPC   H3Y21170   2.892   3.669   9.970  2.6046 -1.8440 -2.2413
  184SLPC   C3421171   2.955   3.773   9.779  0.2294  0.2590 -0.4344
  184SLPC   H4X21172   3.061   3.742   9.792 -0.0660 -0.8695 -0.7064
  184SLPC   H4Y21173   2.955   3.879   9.745  0.7352  1.2947  2.6034
  184SLPC   C3521174   2.870   3.689   9.686 -0.3268 -0.2158 -0.2904
  184SLPC   H5X21175   2.780   3.749   9.661  0.0040  0.0387 -0.8658
  184SLPC   H5Y21176   2.843   3.591   9.731  1.8233  0.0054  1.5847
  184SLPC   C3621177   2.932   3.665   9.552 -0.4287  0.5786 -0.0340
  184SLPC   H6X21178   3.022   3.599   9.558  1.6198  3.2448 -0.4516
  184SLPC   H6Y21179   2.966   3.761   9.507  3.2031 -0.5564  0.0840
  184SLPC   C3721180   2.828   3.607   9.453 -0.9044 -0.6172 -0.9002
  184SLPC   H7X21181   2.746   3.681   9.440  0.1445  0.8106  0.4680
  184SLPC   H7Y21182   2.789   3.520   9.510  2.1119 -0.3868  1.6798
  184SLPC   C3821183   2.876   3.551   9.320 -0.6299  0.4820  0.2251
  184SLPC   H8X21184   2.806   3.477   9.274  0.2376 -0.7747  0.9029
  184SLPC   H8Y21185   2.971   3.496   9.335 -1.2257 -0.0400  2.2140
  184SLPC   C3921186   2.908   3.657   9.217 -0.0214  0.1594 -0.2588
  184SLPC   H9X21187   2.975   3.741   9.246  1.0262 -0.5486 -0.6109
  184SLPC   H9Y21188   2.813   3.708   9.190 -0.2825  0.6981  1.5821
  184SLPC  C31021189   2.971   3.589   9.094  0.3336 -0.9578 -0.4734
  184SLPC  H10X21190   2.999   3.484   9.119  2.3923 -0.7650 -1.8273
  184SLPC  H10Y21191   3.065   3.642   9.067  0.6949 -0.4979  1.6354
  184SLPC  C31121192   2.882   3.592   8.961 -0.5893  0.5794 -0.1207
  184SLPC  H11X21193   2.851   3.698   8.945  3.8874  1.8810 -0.6988
  184SLPC  H11Y21194   2.796   3.523   8.975  0.1564 -0.8164 -2.1962
  184SLPC  C31221195   2.964   3.552   8.830  1.4447  0.3137 -0.3494
  184SLPC  H12X21196   2.994   3.445   8.837 -0.0008 -0.0919 -0.2035
  184SLPC  H12Y21197   3.053   3.618   8.819  2.7163 -1.6111 -2.0720
  184SLPC  C31321198   2.885   3.578   8.703 -0.1370 -0.0227  0.6251
  184SLPC  H13X21199   2.787   3.525   8.696  0.4789 -1.5518  2.8517
  184SLPC  H13Y21200   2.943   3.527   8.623 -0.3390  2.3159 -1.0586
  184SLPC  C31421201   2.867   3.719   8.664  0.6868 -0.5725 -0.0054
  184SLPC  H14X21202   2.968   3.756   8.637  1.5440 -1.8184  1.4274
  184SLPC  H14Y21203   2.821   3.772   8.749  1.0187 -1.7873  0.9471
  184SLPC  C31521204   2.779   3.751   8.541 -0.6048  0.7122 -0.1787
  184SLPC  H15X21205   2.779   3.859   8.515  1.8170  0.9993  0.8385
  184SLPC  H15Y21206   2.677   3.722   8.574  1.1253 -2.1875  2.9671
  184SLPC  C31621207   2.815   3.664   8.413 -0.1008  0.2905  0.9819
  184SLPC  H16X21208   2.854   3.563   8.440 -1.7955  0.1408  2.9839
  184SLPC  H16Y21209   2.894   3.706   8.347 -0.3822 -1.0597 -0.2329
  184SLPC  C31721210   2.686   3.633   8.340  0.0262  0.2700 -0.3971
  184SLPC  H17X21211   2.638   3.732   8.323 -1.7717 -0.2530  1.4152
  184SLPC  H17Y21212   2.621   3.574   8.408 -0.4010 -0.0700 -1.0887
  184SLPC  C31821213   2.706   3.554   8.209 -0.4713 -0.3076  0.1547
  184SLPC  H18X21214   2.779   3.471   8.219  0.0815  0.3678  1.9319
  184SLPC  H18Y21215   2.746   3.621   8.130 -0.9203 -0.3902 -0.1421
  184SLPC  H18Z21216   2.615   3.501   8.176 -0.6372 -0.6909  1.2036
  185SLPC     N21217   1.115   0.579   6.289  0.2182 -0.4960 -0.5290
  185SLPC   C1321218   1.008   0.515   6.208  0.3430  0.1983  0.7473
  185SLPC  H13A21219   1.057   0.451   6.136 -2.5612  0.6456 -1.7799
  185SLPC  H13B21220   0.931   0.462   6.262 -0.9226  0.9002 -0.3235
  185SLPC  H13C21221   0.956   0.595   6.157  1.0157  0.3459  0.2975
  185SLPC   C1421222   1.207   0.670   6.225 -0.1409 -0.7187 -1.1382
  185SLPC  H14A21223   1.288   0.696   6.292 -1.3759  1.7179 -0.5536
  185SLPC  H14B21224   1.259   0.632   6.138  1.5461 -2.1479  0.4464
  185SLPC  H14C21225   1.165   0.766   6.201  1.2451  0.9736  2.8336
  185SLPC   C1521226   1.200   0.468   6.341  0.1652 -0.6251  0.2497
  185SLPC  H15A21227   1.247   0.424   6.255 -0.8773 -1.2564 -0.0050
  185SLPC  H15B21228   1.286   0.501   6.398  0.9236 -3.0891  0.5684
  185SLPC  H15C21229   1.145   0.399   6.404 -0.6414  1.4713  1.9262
  185SLPC   C1221230   1.045   0.655   6.408  0.3122 -0.7994 -0.2974
  185SLPC  H12A21231   0.970   0.585   6.441  1.9436 -1.0460  3.1344
  185SLPC  H12B21232   1.003   0.744   6.364 -0.7546 -1.1139  0.0580
  185SLPC   C1121233   1.126   0.684   6.536 -1.2566 -0.2293  0.5596
  185SLPC  H11A21234   1.169   0.589   6.575  0.7496  0.0234 -0.9508
  185SLPC  H11B21235   1.064   0.716   6.623 -1.3203 -1.4233  0.9620
  185SLPC     P21236   1.390   0.778   6.539 -0.1633  0.3557 -0.0372
  185SLPC   O1321237   1.446   0.639   6.538  0.1638  0.0818 -0.1892
  185SLPC   O1421238   1.456   0.871   6.449 -0.4062  0.2026 -0.7568
  185SLPC   O1221239   1.234   0.774   6.510  0.9397  0.8334 -0.2482
  185SLPC   O1121240   1.395   0.828   6.685 -0.1171 -0.3265  0.0827
  185SLPC    C121241   1.297   0.882   6.770  0.8150 -0.0116 -0.4157
  185SLPC    HA21242   1.290   0.990   6.746  0.9300 -0.2392 -1.5066
  185SLPC    HB21243   1.199   0.831   6.757  1.1338 -1.5269  2.6232
  185SLPC    C221244   1.335   0.889   6.927  0.4645  0.0096 -0.1341
  185SLPC    HS21245   1.433   0.939   6.942  0.4425 -0.3316  1.2794
  185SLPC   O2121246   1.340   0.765   7.000  0.1538 -0.4780  0.2510
  185SLPC   C2121247   1.223   0.701   7.013  0.1682  0.3156  0.2702
  185SLPC   O2221248   1.119   0.729   6.955  0.4544 -0.0648  0.0366
  185SLPC   C2221249   1.241   0.598   7.130 -0.2660 -0.0323 -0.0797
  185SLPC   H2R21250   1.251   0.501   7.076  2.8397 -0.3717  0.9994
  185SLPC   H2S21251   1.333   0.616   7.188 -0.3052  0.8798 -0.3062
  185SLPC    C321252   1.246   0.993   6.999  0.0337 -0.1366  0.1375
  185SLPC    HX21253   1.146   0.945   6.990 -0.0032 -0.0891  0.2813
  185SLPC    HY21254   1.240   1.093   6.951  0.1574 -0.6214 -0.9006
  185SLPC   O3121255   1.277   1.008   7.140 -0.0171  0.4339 -0.4278
  185SLPC   C3121256   1.200   1.095   7.200  0.3889  0.2241 -0.1097
  185SLPC   O3221257   1.094   1.142   7.160  0.1011  0.1656  0.4253
  185SLPC   C3221258   1.258   1.115   7.346  0.0719 -0.0096  0.7177
  185SLPC   H2X21259   1.306   1.216   7.342  2.5581 -1.2151 -2.0065
  185SLPC   H2Y21260   1.338   1.039   7.358 -1.2300 -1.6447 -0.7109
  185SLPC   C2321261   1.119   0.587   7.218  0.2149 -0.6877 -0.5497
  185SLPC   H3R21262   1.134   0.490   7.270  1.1789 -1.5654 -2.4355
  185SLPC   H3S21263   1.023   0.579   7.163 -1.3561 -0.8091  2.0880
  185SLPC   C2421264   1.100   0.710   7.314 -0.1855  0.8053  0.0938
  185SLPC   H4R21265   1.060   0.789   7.247  0.9764 -0.1597 -1.7673
  185SLPC   H4S21266   1.195   0.756   7.350 -1.3681  3.2096  0.1961
  185SLPC   C2521267   1.011   0.692   7.435  0.5956 -0.4511 -0.1325
  185SLPC   H5R21268   0.937   0.614   7.406 -1.2535  1.5466 -0.9850
  185SLPC   H5S21269   0.963   0.788   7.464 -0.7654 -0.6894 -1.5201
  185SLPC   C2621270   1.083   0.638   7.562 -0.4762 -0.1926  0.1201
  185SLPC   H6R21271   1.170   0.705   7.582 -1.6006  2.2356 -2.7075
  185SLPC   H6S21272   1.120   0.536   7.540 -0.3760 -0.3929  1.2269
  185SLPC   C2721273   1.005   0.628   7.695  0.4194  0.5033  0.1726
  185SLPC   H7R21274   1.056   0.566   7.772 -0.8512 -0.2449  0.4324
  185SLPC   H7S21275   0.908   0.582   7.668  1.0088 -0.6192 -0.0963
  185SLPC   C2821276   0.983   0.767   7.765 -0.1297  0.3172 -0.5222
  185SLPC   H8R21277   0.893   0.756   7.830 -0.4409 -0.6855 -1.1082
  185SLPC   H8S21278   0.945   0.840   7.689 -0.0190  1.1464  0.2104
  185SLPC   C2921279   1.100   0.828   7.822  0.7111 -0.0346 -0.2868
  185SLPC   H9R21280   1.185   0.843   7.754 -0.0123  0.3960 -1.1053
  185SLPC  C21021281   1.122   0.845   7.960 -0.4740  0.4366  0.3201
  185SLPC  H10R21282   1.191   0.920   8.002  0.5691  0.2036 -0.9293
  185SLPC  C21121283   1.028   0.796   8.069 -0.3814 -0.0254 -0.8110
  185SLPC  H11R21284   0.976   0.704   8.035  1.0979 -0.7671 -1.0891
  185SLPC  H11S21285   0.947   0.872   8.077 -1.2130 -1.0380  0.6008
  185SLPC  C21221286   1.092   0.768   8.202 -0.5076  0.7793  0.0309
  185SLPC  H12R21287   1.131   0.666   8.213 -1.7237  0.2395 -0.6241
  185SLPC  C21321288   1.103   0.856   8.306  0.1068  1.1435 -0.4874
  185SLPC  H13R21289   1.138   0.817   8.403  0.6029 -0.6863 -1.3793
  185SLPC  C21421290   1.073   0.998   8.313  0.5539  0.3793 -0.6387
  185SLPC  H14R21291   0.991   0.999   8.387  0.6214  0.7750 -0.5718
  185SLPC  H14S21292   1.050   1.035   8.211  1.9160 -2.2568 -1.9623
  185SLPC  C21521293   1.186   1.079   8.377  0.9547  0.8088  0.5815
  185SLPC  H15R21294   1.180   1.054   8.485  0.5514  0.5946  0.5091
  185SLPC  H15S21295   1.158   1.186   8.363  0.4538  0.2799 -2.8922
  185SLPC  C21621296   1.320   1.055   8.315  0.1907  0.0194 -0.3724
  185SLPC  H16R21297   1.320   1.085   8.208 -0.6202  1.5709  0.0453
  185SLPC  H16S21298   1.350   0.949   8.328  2.2633  0.4224 -1.5603
  185SLPC  C21721299   1.428   1.137   8.382  0.3016  0.7220  0.7222
  185SLPC  H17R21300   1.417   1.127   8.492  2.4017 -0.5378  0.8412
  185SLPC  H17S21301   1.409   1.244   8.358  1.9062  0.9979  0.6038
  185SLPC  C21821302   1.577   1.111   8.350  0.4199  0.0795  0.2917
  185SLPC  H18R21303   1.612   1.128   8.246  0.5856 -1.4252  0.0910
  185SLPC  H18S21304   1.595   1.005   8.376  1.7934 -0.0312 -1.0154
  185SLPC  H18T21305   1.637   1.183   8.411  0.5166  0.3854 -0.1643
  185SLPC   C3321306   1.153   1.117   7.455  0.3098  0.3554  0.0770
  185SLPC   H3X21307   1.088   1.027   7.441  0.1117  0.7428 -1.6043
  185SLPC   H3Y21308   1.093   1.209   7.438  1.6605  0.9052 -1.8672
  185SLPC   C3421309   1.214   1.123   7.595 -0.6760 -0.6497  0.0300
  185SLPC   H4X21310   1.267   1.027   7.610 -1.2036 -1.2172 -1.6834
  185SLPC   H4Y21311   1.127   1.117   7.664  0.1521 -0.5002  1.1124
  185SLPC   C3521312   1.291   1.253   7.626 -1.5075 -0.2661  0.9293
  185SLPC   H5X21313   1.237   1.344   7.594 -0.0004  0.2278 -0.2609
  185SLPC   H5Y21314   1.397   1.253   7.593 -0.2486 -1.9908  4.6616
  185SLPC   C3621315   1.313   1.274   7.778  0.2718  0.4364  0.5622
  185SLPC   H6X21316   1.212   1.284   7.821  0.1489 -1.7406  0.8198
  185SLPC   H6Y21317   1.370   1.368   7.791 -0.6323  0.9459  0.8442
  185SLPC   C3721318   1.404   1.168   7.844  0.0193  0.4688  0.7683
  185SLPC   H7X21319   1.450   1.088   7.782  0.5175  1.6207 -0.3771
  185SLPC   H7Y21320   1.339   1.105   7.908  0.6806 -1.1733 -0.1274
  185SLPC   C3821321   1.508   1.229   7.943 -0.8754  0.0491  0.5188
  185SLPC   H8X21322   1.523   1.150   8.020 -2.0623  0.9953  1.7652
  185SLPC   H8Y21323   1.462   1.312   8.002  0.4335 -1.0268  3.1088
  185SLPC   C3921324   1.640   1.268   7.882  0.1049  0.3346  0.0119
  185SLPC   H9X21325   1.637   1.360   7.820  0.9027  0.7122  0.5279
  185SLPC   H9Y21326   1.666   1.188   7.810  0.2012 -0.2556  0.7002
  185SLPC  C31021327   1.748   1.292   7.989  0.2120 -0.4531  0.8803
  185SLPC  H10X21328   1.848   1.261   7.951 -1.1568 -2.3281 -1.3294
  185SLPC  H10Y21329   1.727   1.234   8.081 -1.0601 -0.0054  0.8721
  185SLPC  C31121330   1.762   1.445   8.037  0.2833  0.1470 -0.9170
  185SLPC  H11X21331   1.670   1.483   8.085  2.3059  1.0426  2.3877
  185SLPC  H11Y21332   1.779   1.501   7.943 -0.0238 -0.0420 -1.0836
  185SLPC  C31221333   1.889   1.480   8.117 -0.2960  0.3179  0.0495
  185SLPC  H12X21334   1.897   1.589   8.137  1.0327 -0.3564  3.4855
  185SLPC  H12Y21335   1.969   1.466   8.041 -0.3804 -0.4165  0.0983
  185SLPC  C31321336   1.933   1.392   8.233  0.3950  0.7507  0.6772
  185SLPC  H13X21337   1.917   1.287   8.201 -1.3172  0.5139  2.2160
  185SLPC  H13Y21338   1.863   1.401   8.319 -1.3522  0.2711 -0.6721
  185SLPC  C31421339   2.078   1.406   8.284 -0.1581 -0.6564  0.6878
  185SLPC  H14X21340   2.147   1.379   8.202  1.4580  0.0226  1.7966
  185SLPC  H14Y21341   2.098   1.329   8.362  0.4262 -1.9720 -0.7182
  185SLPC  C31521342   2.099   1.547   8.332 -0.1406  0.1710 -0.3439
  185SLPC  H15X21343   2.027   1.567   8.414 -1.9558  0.9147 -2.0698
  185SLPC  H15Y21344   2.060   1.617   8.255  2.9610  0.6660 -1.5191
  185SLPC  C31621345   2.241   1.577   8.388  0.4748 -0.6136 -0.0232
  185SLPC  H16X21346   2.248   1.685   8.413  1.2231 -0.4080 -1.0830
  185SLPC  H16Y21347   2.325   1.563   8.316 -1.6014 -1.8172 -2.2584
  185SLPC  C31721348   2.250   1.507   8.524 -0.6912 -0.7726 -0.4085
  185SLPC  H17X21349   2.235   1.397   8.511  1.2727 -0.8930 -1.8603
  185SLPC  H17Y21350   2.160   1.533   8.584 -0.5112 -2.4597  0.6444
  185SLPC  C31821351   2.365   1.547   8.612 -0.8968 -0.8722 -0.3646
  185SLPC  H18X21352   2.456   1.534   8.549 -0.4830  1.9842 -0.4184
  185SLPC  H18Y21353   2.367   1.487   8.706  1.1556  1.8159  1.3786
  185SLPC  H18Z21354   2.365   1.654   8.641 -1.8997 -1.2342  1.0172
  186SLPC     N21355   2.515   3.706   6.001 -0.4439  0.5053 -0.2536
  186SLPC   C1321356   2.438   3.588   5.966  0.1758  0.2286 -0.1001
  186SLPC  H13A21357   2.332   3.606   5.960  0.2116  0.6288  0.3722
  186SLPC  H13B21358   2.470   3.535   5.877  1.7168 -2.1742  1.8046
  186SLPC  H13C21359   2.432   3.514   6.044  1.7306  0.3866  0.1932
  186SLPC   C1421360   2.509   3.803   5.890  0.0030  0.2385  0.3527
  186SLPC  H14A21361   2.573   3.885   5.919  0.9156  0.1013 -1.2152
  186SLPC  H14B21362   2.550   3.765   5.797 -2.0220 -0.1420 -0.4172
  186SLPC  H14C21363   2.406   3.832   5.880 -1.2602 -2.7154  3.6024
  186SLPC   C1521364   2.659   3.663   6.016  0.3062 -1.3463  0.0150
  186SLPC  H15A21365   2.686   3.611   5.925  0.1498  0.0862 -0.8708
  186SLPC  H15B21366   2.723   3.747   6.036 -1.3401  0.6890 -2.9360
  186SLPC  H15C21367   2.666   3.593   6.098 -1.2294 -1.1238  0.3552
  186SLPC   C1221368   2.468   3.756   6.138 -0.0563  0.3925  0.3365
  186SLPC  H12A21369   2.543   3.827   6.168  1.5915 -0.9886 -0.4159
  186SLPC  H12B21370   2.453   3.682   6.215  0.7675 -2.3987 -2.0726
  186SLPC   C1121371   2.344   3.840   6.133 -0.1376 -0.1424 -0.0130
  186SLPC  H11A21372   2.355   3.917   6.053 -0.6396  0.5141  0.5446
  186SLPC  H11B21373   2.332   3.904   6.223  0.6091  2.9592 -2.0273
  186SLPC     P21374   2.154   3.696   6.224 -0.1814  0.2032  0.4055
  186SLPC   O1321375   2.028   3.770   6.252  0.0233  0.2239  0.5278
  186SLPC   O1421376   2.153   3.553   6.194 -0.1587 -0.1052  0.1677
  186SLPC   O1221377   2.222   3.763   6.103 -0.0525  0.2232 -0.1290
  186SLPC   O1121378   2.251   3.723   6.352  0.3738 -0.2246  0.6394
  186SLPC    C121379   2.305   3.603   6.418  0.0295 -0.3650  0.5458
  186SLPC    HA21380   2.289   3.503   6.373  0.0612 -0.3629  0.5294
  186SLPC    HB21381   2.415   3.620   6.421 -0.1170  1.3165 -1.5193
  186SLPC    C221382   2.281   3.601   6.571 -0.0035  0.6372 -0.0164
  186SLPC    HS21383   2.324   3.512   6.622 -0.2998  1.1814  1.2116
  186SLPC   O2121384   2.136   3.596   6.589  0.8519 -0.5117  0.0290
  186SLPC   C2121385   2.069   3.494   6.548  0.6681  0.0368 -0.5504
  186SLPC   O2221386   2.112   3.388   6.504 -0.0181  0.6737 -0.1153
  186SLPC   C2221387   1.923   3.532   6.563  0.1936  0.1677 -0.4258
  186SLPC   H2R21388   1.906   3.642   6.571 -0.9509  0.1630 -2.3584
  186SLPC   H2S21389   1.868   3.528   6.466 -0.2879 -3.2373 -0.0635
  186SLPC    C321390   2.337   3.720   6.651  0.3253 -0.4352 -0.2291
  186SLPC    HX21391   2.305   3.816   6.605  1.0528  1.0682  2.2680
  186SLPC    HY21392   2.445   3.734   6.626 -0.1023  1.6355 -1.0418
  186SLPC   O3121393   2.321   3.708   6.794 -0.7461  1.0883  0.1619
  186SLPC   C3121394   2.220   3.770   6.837  0.1705  0.3736 -0.1326
  186SLPC   O3221395   2.135   3.836   6.774 -0.4958 -0.3430 -0.2713
  186SLPC   C3221396   2.221   3.760   6.992  0.3453  0.3913  0.3373
  186SLPC   H2X21397   2.310   3.701   7.023 -0.0008 -0.0889  0.4288
  186SLPC   H2Y21398   2.127   3.708   7.020  0.9092 -0.8345 -0.0208
  186SLPC   C2321399   1.840   3.448   6.653  0.2731 -0.0143  0.4268
  186SLPC   H3R21400   1.863   3.340   6.650  1.2996  0.1151  2.7389
  186SLPC   H3S21401   1.736   3.458   6.616  0.8538  0.4058 -1.1206
  186SLPC   C2421402   1.848   3.500   6.798 -0.4876 -0.4282 -0.4245
  186SLPC   H4R21403   1.768   3.451   6.858 -0.2545 -2.4983 -1.7448
  186SLPC   H4S21404   1.826   3.609   6.793 -1.5219 -0.6907 -1.8432
  186SLPC   C2521405   1.976   3.461   6.865  0.0686  0.4950  0.0623
  186SLPC   H5R21406   2.058   3.525   6.825 -1.3432  2.1925 -0.2115
  186SLPC   H5S21407   1.997   3.355   6.843 -0.1278  0.2175  1.2063
  186SLPC   C2621408   1.972   3.470   7.012 -0.1729 -0.5213 -0.0229
  186SLPC   H6R21409   1.886   3.420   7.060 -0.1390 -0.1981  0.3736
  186SLPC   H6S21410   1.971   3.577   7.040  0.1294 -0.5000 -0.0861
  186SLPC   C2721411   2.101   3.423   7.082  0.4440 -0.0084  0.1825
  186SLPC   H7R21412   2.188   3.467   7.029  1.1543  1.7435  2.7232
  186SLPC   H7S21413   2.096   3.314   7.063  0.0889  0.5537 -3.2933
  186SLPC   C2821414   2.107   3.457   7.235  0.3677  0.5509 -0.0733
  186SLPC   H8R21415   2.007   3.455   7.284 -0.7026  1.1405 -2.1874
  186SLPC   H8S21416   2.134   3.564   7.234  1.0883  0.3751 -1.0191
  186SLPC   C2921417   2.207   3.379   7.305 -0.7855  0.6297 -1.0094
  186SLPC   H9R21418   2.199   3.271   7.286 -0.3281  0.3826  0.1630
  186SLPC  C21021419   2.315   3.412   7.380  0.2152 -0.8626  0.9184
  186SLPC  H10R21420   2.349   3.331   7.447  0.4365  2.0399  4.4695
  186SLPC  C21121421   2.364   3.550   7.423 -0.1500  0.1712  0.2481
  186SLPC  H11R21422   2.361   3.622   7.339  3.1724  0.8692  0.6527
  186SLPC  H11S21423   2.470   3.545   7.457 -0.1436 -3.3614 -0.0951
  186SLPC  C21221424   2.272   3.611   7.526  0.2702  0.7352 -0.0834
  186SLPC  H12R21425   2.164   3.624   7.508 -0.1395 -1.5263  0.5410
  186SLPC  C21321426   2.315   3.658   7.647  0.5417  0.9705  0.4040
  186SLPC  H13R21427   2.242   3.707   7.712  1.3391  0.8630  1.4017
  186SLPC  C21421428   2.455   3.667   7.711 -0.1594 -0.1896  0.0001
  186SLPC  H14R21429   2.535   3.632   7.643 -0.4179 -0.5369 -0.1297
  186SLPC  H14S21430   2.447   3.601   7.800 -1.8289  1.4424  1.0914
  186SLPC  C21521431   2.488   3.806   7.773 -0.0650  0.1077 -0.5844
  186SLPC  H15R21432   2.399   3.839   7.830  0.4948  0.5096  0.0632
  186SLPC  H15S21433   2.507   3.880   7.693 -0.8951 -0.6609 -1.5132
  186SLPC  C21621434   2.599   3.795   7.873  0.5454 -0.1924  0.0534
  186SLPC  H16R21435   2.700   3.787   7.827 -0.4977 -0.2132 -2.3529
  186SLPC  H16S21436   2.582   3.720   7.953 -1.7053  1.5700  1.2587
  186SLPC  C21721437   2.599   3.927   7.956 -1.0902  0.2135  0.1559
  186SLPC  H17R21438   2.574   4.009   7.884 -2.3735  1.3260  1.8093
  186SLPC  H17S21439   2.701   3.944   7.997 -0.6572  1.8323 -1.5345
  186SLPC  C21821440   2.487   3.931   8.062  0.7122  0.0655 -0.1732
  186SLPC  H18R21441   2.493   4.026   8.120  3.4989  0.3375 -0.8568
  186SLPC  H18S21442   2.511   3.847   8.131 -0.9139  1.4029  2.0690
  186SLPC  H18T21443   2.385   3.919   8.020 -0.3049  2.7323  1.3907
  186SLPC   C3321444   2.233   3.898   7.063  0.0473 -0.3179  0.4391
  186SLPC   H3X21445   2.173   3.980   7.017 -2.9177 -1.7919  1.5438
  186SLPC   H3Y21446   2.339   3.930   7.056 -0.4057  1.5714  1.8536
  186SLPC   C3421447   2.202   3.882   7.213 -1.0519  0.0468  0.1603
  186SLPC   H4X21448   2.261   3.793   7.245 -1.4134 -0.2514  0.0052
  186SLPC   H4Y21449   2.092   3.863   7.215 -1.1511  0.6831  0.8483
  186SLPC   C3521450   2.243   4.008   7.289 -0.1541  0.4450  0.2774
  186SLPC   H5X21451   2.163   4.083   7.274  0.7076  1.7646  2.2119
  186SLPC   H5Y21452   2.334   4.051   7.242 -1.4897  1.6135 -1.2966
  186SLPC   C3621453   2.262   3.992   7.443  0.0448 -0.3116  0.0643
  186SLPC   H6X21454   2.358   3.937   7.459 -0.8485 -2.1818 -0.9011
  186SLPC   H6Y21455   2.170   3.946   7.484  0.3853 -2.5192 -1.5677
  186SLPC   C3721456   2.281   4.128   7.518 -0.0495 -0.2012 -0.7836
  186SLPC   H7X21457   2.182   4.177   7.523  1.1034  2.0607  0.2414
  186SLPC   H7Y21458   2.342   4.198   7.458 -0.4970  1.4324  0.6258
  186SLPC   C3821459   2.326   4.113   7.672 -0.2453  0.1193  0.4671
  186SLPC   H8X21460   2.432   4.080   7.681 -0.1985 -0.6605 -2.4023
  186SLPC   H8Y21461   2.264   4.037   7.724  1.3421 -1.5641 -0.0411
  186SLPC   C3921462   2.314   4.247   7.747 -0.4771  0.8408 -0.0046
  186SLPC   H9X21463   2.217   4.289   7.712 -0.3413  1.3324  0.2020
  186SLPC   H9Y21464   2.386   4.317   7.699 -0.7783  0.5951 -0.8347
  186SLPC  C31021465   2.329   4.230   7.895  0.5262  0.7083 -0.0386
  186SLPC  H10X21466   2.421   4.173   7.920 -0.3891 -0.4841  0.6721
  186SLPC  H10Y21467   2.239   4.173   7.928 -0.2639  2.1904  0.4304
  186SLPC  C31121468   2.359   4.363   7.974 -0.2096  0.7626  0.3377
  186SLPC  H11X21469   2.268   4.423   7.994 -1.2992 -0.5771 -0.5167
  186SLPC  H11Y21470   2.416   4.425   7.901  1.3220 -1.4930 -0.4481
  186SLPC  C31221471   2.448   4.358   8.093 -0.5488 -0.0734  0.1505
  186SLPC  H12X21472   2.539   4.302   8.062 -0.4940  0.0174  0.1447
  186SLPC  H12Y21473   2.409   4.293   8.174  0.6318 -1.3052 -0.2520
  186SLPC  C31321474   2.468   4.502   8.153 -0.1062  0.1243 -0.4321
  186SLPC  H13X21475   2.375   4.558   8.176  0.4068  0.6948  0.2760
  186SLPC  H13Y21476   2.534   4.553   8.080 -0.2754  2.8667  1.2791
  186SLPC  C31421477   2.542   4.490   8.291 -0.5833  0.6651  0.6510
  186SLPC  H14X21478   2.638   4.435   8.283 -1.2560 -0.6409  1.5113
  186SLPC  H14Y21479   2.489   4.422   8.361 -1.8866  0.0769 -0.8622
  186SLPC  C31521480   2.583   4.632   8.342  0.1909 -0.3522 -0.7511
  186SLPC  H15X21481   2.660   4.675   8.274  1.2071 -0.9520 -0.0060
  186SLPC  H15Y21482   2.639   4.613   8.437 -2.2623 -0.9989  0.6197
  186SLPC  C31621483   2.468   4.718   8.381 -0.2420 -0.0419 -0.2054
  186SLPC  H16X21484   2.409   4.760   8.298 -1.0208  0.7582  0.7383
  186SLPC  H16Y21485   2.510   4.804   8.439 -1.4425 -0.0348  0.6764
  186SLPC  C31721486   2.374   4.642   8.483  0.1789  0.2437  0.0448
  186SLPC  H17X21487   2.330   4.557   8.427  0.1686  0.1516  0.1957
  186SLPC  H17Y21488   2.283   4.703   8.501  0.1330 -0.1572  1.1873
  186SLPC  C31821489   2.422   4.599   8.613  0.6467 -0.6580 -0.0845
  186SLPC  H18X21490   2.435   4.686   8.680 -2.0621 -1.2672  1.3188
  186SLPC  H18Y21491   2.523   4.555   8.598  0.2147 -2.0802  0.9824
  186SLPC  H18Z21492   2.357   4.516   8.649 -0.4657 -0.8040 -2.3742
  187SLPC     N21493   2.891   0.525   6.331 -0.4983 -0.2655  0.6739
  187SLPC   C1321494   2.875   0.429   6.443 -0.5126  0.5017 -0.6378
  187SLPC  H13A21495   2.772   0.435   6.476 -1.4564 -2.6645 -2.6579
  187SLPC  H13B21496   2.883   0.327   6.406  0.8606  1.1877 -2.2774
  187SLPC  H13C21497   2.935   0.446   6.530  0.6144 -2.5993 -0.7443
  187SLPC   C1421498   2.848   0.471   6.197  0.0914  0.0053 -0.4656
  187SLPC  H14A21499   2.850   0.554   6.128 -0.3525  0.7105  0.3566
  187SLPC  H14B21500   2.907   0.387   6.164  1.4564  0.2028  1.3342
  187SLPC  H14C21501   2.745   0.439   6.202 -1.2829  4.1466 -0.0968
  187SLPC   C1521502   3.032   0.551   6.315  0.0657 -0.1651 -0.1874
  187SLPC  H15A21503   3.055   0.602   6.223  2.2374 -0.1470  0.3389
  187SLPC  H15B21504   3.065   0.607   6.401 -1.0872 -0.0520  0.1856
  187SLPC  H15C21505   3.082   0.455   6.315  2.7474  1.1945 -0.8966
  187SLPC   C1221506   2.808   0.653   6.355 -0.5263  0.3038 -0.1393
  187SLPC  H12A21507   2.839   0.727   6.283 -1.4156 -1.4442 -2.4036
  187SLPC  H12B21508   2.825   0.705   6.448 -0.6361 -1.1739  0.7346
  187SLPC   C1121509   2.656   0.635   6.349  0.0035 -0.8043  0.0107
  187SLPC  H11A21510   2.638   0.595   6.247 -0.6765 -0.8032  0.1270
  187SLPC  H11B21511   2.617   0.739   6.354  0.3494 -0.5673 -1.7970
  187SLPC     P21512   2.504   0.587   6.548  0.0481  0.5512 -0.2442
  187SLPC   O1321513   2.459   0.726   6.539  0.4470  0.0505  1.1375
  187SLPC   O1421514   2.392   0.485   6.558  0.0291  1.0726  0.3430
  187SLPC   O1221515   2.607   0.541   6.444 -0.2491  0.2229 -0.0261
  187SLPC   O1121516   2.582   0.582   6.681  0.3272  0.4722 -0.1431
  187SLPC    C121517   2.520   0.606   6.804 -0.8000  0.1509  0.6515
  187SLPC    HA21518   2.585   0.667   6.870 -0.8757  0.3370  0.5538
  187SLPC    HB21519   2.421   0.657   6.798 -1.0898 -0.3818  0.8335
  187SLPC    C221520   2.509   0.470   6.884 -0.7401  0.0130 -0.5646
  187SLPC    HS21521   2.458   0.397   6.817  1.9396 -1.9149 -0.6261
  187SLPC   O2121522   2.443   0.506   7.007  0.1888  0.5554 -0.3970
  187SLPC   C2121523   2.315   0.531   7.003 -0.1543  0.6865 -0.2018
  187SLPC   O2221524   2.237   0.530   6.911  0.3944 -0.3362 -0.0487
  187SLPC   C2221525   2.276   0.559   7.156 -0.0479 -0.7458  0.8580
  187SLPC   H2R21526   2.336   0.486   7.214  0.2666 -1.3170 -0.1756
  187SLPC   H2S21527   2.305   0.664   7.178 -0.8566 -0.9036  2.7502
  187SLPC    C321528   2.652   0.406   6.916 -0.4160  0.9295  0.2567
  187SLPC    HX21529   2.719   0.493   6.935  1.4089 -0.0639 -1.3603
  187SLPC    HY21530   2.687   0.359   6.822 -0.0281  1.3485  0.1884
  187SLPC   O3121531   2.655   0.309   7.029 -0.5884 -0.0124  0.1538
  187SLPC   C3121532   2.598   0.193   7.004  0.1036 -0.0381 -0.2687
  187SLPC   O3221533   2.537   0.157   6.899 -0.3725  0.1097 -0.3313
  187SLPC   C3221534   2.622   0.106   7.130  0.5377 -0.3428  0.6094
  187SLPC   H2X21535   2.714   0.046   7.112  1.0514  0.4721  0.5051
  187SLPC   H2Y21536   2.537   0.035   7.135 -0.6036  0.9610  0.1604
  187SLPC   C2321537   2.129   0.548   7.192 -0.1717 -0.6222  0.0241
  187SLPC   H3R21538   2.101   0.442   7.178 -0.3369 -0.7177  0.9982
  187SLPC   H3S21539   2.061   0.595   7.118 -0.0816  1.4192  1.1860
  187SLPC   C2421540   2.093   0.602   7.331 -0.1064 -0.1480  0.7696
  187SLPC   H4R21541   1.982   0.593   7.337 -0.3602  1.5089 -0.9639
  187SLPC   H4S21542   2.116   0.710   7.342  0.2148  0.1233 -2.1525
  187SLPC   C2521543   2.172   0.520   7.432  0.0939  0.6901 -0.3140
  187SLPC   H5R21544   2.282   0.528   7.419  0.0281  1.1175 -0.6535
  187SLPC   H5S21545   2.143   0.413   7.419 -0.8481  0.7486  1.1764
  187SLPC   C2621546   2.145   0.568   7.578 -0.2132 -0.7631  0.2146
  187SLPC   H6R21547   2.037   0.550   7.594  0.0202 -1.6973  0.7312
  187SLPC   H6S21548   2.174   0.675   7.586 -3.0971 -0.0256  1.2872
  187SLPC   C2721549   2.218   0.493   7.689 -0.0773 -0.4293 -0.3744
  187SLPC   H7R21550   2.326   0.511   7.672 -0.4264  0.1429 -2.1181
  187SLPC   H7S21551   2.186   0.386   7.688 -3.3351  0.4198  2.7966
  187SLPC   C2821552   2.181   0.540   7.827 -0.3621  0.0699 -1.0796
  187SLPC   H8R21553   2.070   0.537   7.839 -0.5765  0.5961 -2.8692
  187SLPC   H8S21554   2.211   0.646   7.842 -0.0454 -0.0130 -1.1366
  187SLPC   C2921555   2.231   0.470   7.951  0.6799  0.4502  0.0582
  187SLPC   H9R21556   2.325   0.416   7.936  0.7958 -0.0155  2.2758
  187SLPC  C21021557   2.181   0.470   8.075  0.0160 -0.2443 -0.2683
  187SLPC  H10R21558   2.224   0.406   8.154  0.7720  1.4693  0.7396
  187SLPC  C21121559   2.058   0.539   8.117  0.5644  0.1655 -0.6022
  187SLPC  H11R21560   1.961   0.486   8.108  1.5627 -2.1469  1.5246
  187SLPC  H11S21561   2.044   0.626   8.050 -0.1237  0.2862 -0.3034
  187SLPC  C21221562   2.084   0.588   8.258 -0.0257  0.2720 -0.3424
  187SLPC  H12R21563   2.117   0.693   8.268  1.0542 -0.0304 -0.6324
  187SLPC  C21321564   2.072   0.513   8.375 -0.6268  0.3980 -0.4229
  187SLPC  H13R21565   2.083   0.557   8.475 -0.3062  1.8267 -1.0769
  187SLPC  C21421566   2.017   0.373   8.371 -0.2345 -0.2597 -0.0280
  187SLPC  H14R21567   2.003   0.329   8.270 -1.4638 -1.0138  0.4598
  187SLPC  H14S21568   1.917   0.365   8.419  0.2512  0.1343  1.0785
  187SLPC  C21521569   2.119   0.281   8.442 -0.4549  0.8858 -0.7169
  187SLPC  H15R21570   2.117   0.291   8.552  0.6897 -3.0353 -0.2769
  187SLPC  H15S21571   2.222   0.315   8.418  0.3456 -0.3226  0.9206
  187SLPC  C21621572   2.116   0.133   8.394 -0.5474  0.3705 -0.1988
  187SLPC  H16R21573   2.201   0.085   8.446  1.2253  3.0437 -0.5253
  187SLPC  H16S21574   2.127   0.117   8.284 -2.6398 -0.4197 -0.3162
  187SLPC  C21721575   1.983   0.064   8.422  0.0412 -0.6865 -0.6792
  187SLPC  H17R21576   1.997  -0.040   8.386  0.0094 -0.5150 -1.1836
  187SLPC  H17S21577   1.901   0.123   8.376  1.4800  0.5266 -1.7528
  187SLPC  C21821578   1.959   0.049   8.574  0.8984  0.2390 -0.4324
  187SLPC  H18R21579   1.852   0.029   8.598  1.0250  0.7387  0.5713
  187SLPC  H18S21580   1.977   0.141   8.633 -0.0913 -0.4211  0.9426
  187SLPC  H18T21581   2.018  -0.035   8.617  0.5808 -0.4288 -1.2979
  187SLPC   C3321582   2.640   0.183   7.260 -0.7041  0.1595  0.1054
  187SLPC   H3X21583   2.706   0.271   7.246  0.1836 -0.3959  0.7361
  187SLPC   H3Y21584   2.682   0.114   7.336  2.2912  1.6989 -0.1017
  187SLPC   C3421585   2.502   0.239   7.320 -0.0083  0.4206 -0.0133
  187SLPC   H4X21586   2.431   0.154   7.307  1.9057 -1.1575 -0.3707
  187SLPC   H4Y21587   2.464   0.323   7.258 -1.8151 -0.1097  0.3319
  187SLPC   C3521588   2.517   0.293   7.462  0.0891  0.9456 -0.1805
  187SLPC   H5X21589   2.427   0.357   7.470 -0.4802  0.0780  0.3683
  187SLPC   H5Y21590   2.608   0.355   7.475  0.7345 -0.8377  4.5742
  187SLPC   C3621591   2.514   0.182   7.561  0.0793 -0.1254  0.2320
  187SLPC   H6X21592   2.611   0.128   7.561  1.0162  1.5409 -0.8107
  187SLPC   H6Y21593   2.430   0.111   7.544  0.8658 -0.5184 -2.0995
  187SLPC   C3721594   2.510   0.234   7.710  1.0538 -0.0921 -0.4255
  187SLPC   H7X21595   2.565   0.329   7.724 -0.4154  0.5886  0.7746
  187SLPC   H7Y21596   2.403   0.257   7.730  0.9389  0.2193 -1.4188
  187SLPC   C3821597   2.560   0.126   7.810 -0.1093  0.3175  0.0080
  187SLPC   H8X21598   2.659   0.092   7.774  0.8280 -1.0245  3.6659
  187SLPC   H8Y21599   2.497   0.036   7.794 -0.1929  0.6372 -1.5819
  187SLPC   C3921600   2.560   0.166   7.956 -0.5385 -0.1461 -0.5604
  187SLPC   H9X21601   2.462   0.216   7.974 -0.9172 -0.3652 -1.9446
  187SLPC   H9Y21602   2.646   0.230   7.986 -0.1786 -1.5369  1.4697
  187SLPC  C31021603   2.551   0.044   8.050  0.6288 -0.0331 -0.0268
  187SLPC  H10X21604   2.653   0.004   8.069  0.9616  0.0193 -1.6434
  187SLPC  H10Y21605   2.501  -0.048   8.012  1.1757 -0.5818  0.5634
  187SLPC  C31121606   2.491   0.079   8.187  0.1603  0.7452 -0.3797
  187SLPC  H11X21607   2.387   0.116   8.178 -0.2385 -0.6807 -1.6260
  187SLPC  H11Y21608   2.549   0.160   8.238  0.4785  0.0870  0.3147
  187SLPC  C31221609   2.512  -0.039   8.290  0.3153  0.4349  0.1944
  187SLPC  H12X21610   2.614  -0.084   8.279 -0.9325 -1.6603 -4.2525
  187SLPC  H12Y21611   2.437  -0.116   8.262  1.0254  0.3311 -1.5249
  187SLPC  C31321612   2.523   0.010   8.438  0.5972 -0.2673  0.2486
  187SLPC  H13X21613   2.425   0.058   8.459  0.0420 -1.3720  0.1796
  187SLPC  H13Y21614   2.601   0.089   8.452  1.1035 -0.7484  0.1591
  187SLPC  C31421615   2.541  -0.108   8.540  0.7523 -0.8086  0.1954
  187SLPC  H14X21616   2.634  -0.165   8.516  1.2803 -0.9339  2.4061
  187SLPC  H14Y21617   2.460  -0.181   8.518 -0.7905  0.7175  0.7239
  187SLPC  C31521618   2.557  -0.060   8.681 -0.5034  0.0747  0.6292
  187SLPC  H15X21619   2.664  -0.037   8.702 -0.9378  1.5946  1.2585
  187SLPC  H15Y21620   2.545  -0.141   8.756  0.5027  3.3322  4.5264
  187SLPC  C31621621   2.462   0.052   8.724  0.7024 -0.3102  0.4058
  187SLPC  H16X21622   2.472   0.140   8.658  0.7804 -1.2829 -0.8900
  187SLPC  H16Y21623   2.467   0.079   8.832 -1.0164  1.1209  0.1509
  187SLPC  C31721624   2.308   0.008   8.707  0.4331 -0.2773 -0.1425
  187SLPC  H17X21625   2.299  -0.029   8.602  0.0694 -0.2171 -0.1336
  187SLPC  H17Y21626   2.235   0.088   8.730  0.5404  0.4049 -2.0523
  187SLPC  C31821627   2.276  -0.111   8.800 -0.3371  0.3511  0.4619
  187SLPC  H18X21628   2.168  -0.130   8.780  0.2503 -1.1960 -1.2476
  187SLPC  H18Y21629   2.288  -0.079   8.906 -0.2219  0.0125  0.5496
  187SLPC  H18Z21630   2.340  -0.196   8.771  1.0652  1.2950  0.7398
  188SLPC     N21631   3.721   2.163   6.205  0.3223 -0.2873  0.5901
  188SLPC   C1321632   3.752   2.100   6.076 -0.6144 -0.1064 -0.3152
  188SLPC  H13A21633   3.734   2.165   5.992 -1.4232  0.4738  0.2933
  188SLPC  H13B21634   3.854   2.069   6.061 -0.4421  0.4672 -0.3558
  188SLPC  H13C21635   3.690   2.015   6.053  0.6382 -1.4298  1.0784
  188SLPC   C1421636   3.699   2.311   6.186 -0.1752  0.3308  0.3936
  188SLPC  H14A21637   3.611   2.308   6.123 -0.3704  0.4444  0.6603
  188SLPC  H14B21638   3.680   2.368   6.276  2.9225  3.0603 -0.5472
  188SLPC  H14C21639   3.771   2.370   6.131  1.6608 -0.9338  1.4011
  188SLPC   C1521640   3.827   2.129   6.305 -0.1613  0.5383  0.0396
  188SLPC  H15A21641   3.922   2.171   6.275 -0.2984  0.3528 -0.6583
  188SLPC  H15B21642   3.803   2.170   6.402 -0.4134 -2.7805  1.4153
  188SLPC  H15C21643   3.836   2.022   6.308 -0.8760  0.3827 -2.3097
  188SLPC   C1221644   3.590   2.111   6.257  0.7134  0.3877 -0.7196
  188SLPC  H12A21645   3.607   2.004   6.250 -1.4140 -0.1522  1.7443
  188SLPC  H12B21646   3.508   2.135   6.190 -0.4200  1.4739  1.0037
  188SLPC   C1121647   3.536   2.145   6.401 -0.0983 -0.1487  0.2445
  188SLPC  H11A21648   3.430   2.114   6.409 -0.2952  0.4031 -0.1500
  188SLPC  H11B21649   3.550   2.254   6.422  0.0700 -0.4331  1.6701
  188SLPC     P21650   3.604   1.925   6.530 -0.3006 -0.0241  0.2367
  188SLPC   O1321651   3.558   1.848   6.411 -0.3959  0.1138 -0.2587
  188SLPC   O1421652   3.728   1.885   6.592  0.1244  0.4513 -0.4710
  188SLPC   O1221653   3.612   2.076   6.505 -0.3436  0.3426 -0.6292
  188SLPC   O1121654   3.484   1.914   6.633 -0.3208  0.5067 -0.8427
  188SLPC    C121655   3.486   1.899   6.768 -0.2053 -0.2906 -0.6494
  188SLPC    HA21656   3.387   1.878   6.812  0.6565 -0.8101  1.0762
  188SLPC    HB21657   3.564   1.827   6.800 -0.3055 -0.4204 -0.6946
  188SLPC    C221658   3.531   2.041   6.839 -0.1396  0.4401 -0.2369
  188SLPC    HS21659   3.637   2.068   6.822  1.2385 -4.2243  0.3229
  188SLPC   O2121660   3.517   2.023   6.978 -0.0541 -0.1938 -0.2735
  188SLPC   C2121661   3.537   2.130   7.059 -0.0338 -0.3923 -0.6027
  188SLPC   O2221662   3.604   2.230   7.028  0.5542 -0.6220 -0.1064
  188SLPC   C2221663   3.484   2.099   7.193  0.2408  0.1988  0.4403
  188SLPC   H2R21664   3.375   2.110   7.177  0.6884  0.7037 -2.3927
  188SLPC   H2S21665   3.509   1.994   7.222  0.1459 -0.2757 -1.1939
  188SLPC    C321666   3.427   2.153   6.792 -0.8130  0.4253 -0.1726
  188SLPC    HX21667   3.442   2.140   6.683 -0.1437  0.1999 -0.0588
  188SLPC    HY21668   3.456   2.254   6.827 -2.5993  0.8624  0.0471
  188SLPC   O3121669   3.295   2.118   6.823 -0.6349 -0.2706  0.3108
  188SLPC   C3121670   3.194   2.132   6.721  0.9208 -0.5229  0.8653
  188SLPC   O3221671   3.201   2.191   6.613  0.4402  0.6507  0.5788
  188SLPC   C3221672   3.094   2.030   6.759 -0.4602  0.1713 -0.5679
  188SLPC   H2X21673   3.150   1.934   6.763 -1.0400 -0.1327  0.4318
  188SLPC   H2Y21674   3.036   2.016   6.665 -0.5697 -1.0188 -0.3320
  188SLPC   C2321675   3.542   2.199   7.298 -0.1251  0.1421  1.1155
  188SLPC   H3R21676   3.495   2.299   7.289 -2.1960 -0.8991 -0.1063
  188SLPC   H3S21677   3.651   2.214   7.283 -0.2619 -2.1076 -2.8880
  188SLPC   C2421678   3.516   2.119   7.427 -0.7103  0.0113 -1.0176
  188SLPC   H4R21679   3.564   2.019   7.425  1.8578  1.1483  0.8965
  188SLPC   H4S21680   3.409   2.092   7.435 -0.5148 -1.0622 -1.8573
  188SLPC   C2521681   3.558   2.184   7.558  0.3592 -0.2979 -0.4515
  188SLPC   H5R21682   3.533   2.290   7.537 -1.1855 -0.4871  0.4374
  188SLPC   H5S21683   3.668   2.180   7.575  0.5527 -2.1784 -1.8682
  188SLPC   C2621684   3.478   2.136   7.682  0.5246 -0.3067 -0.1392
  188SLPC   H6R21685   3.513   2.031   7.688 -0.7292 -0.7249  0.1493
  188SLPC   H6S21686   3.367   2.150   7.679  0.5401  1.3201  3.7551
  188SLPC   C2721687   3.526   2.206   7.814  0.1758 -0.0344 -0.0981
  188SLPC   H7R21688   3.531   2.317   7.802 -2.5498  0.0889 -0.2385
  188SLPC   H7S21689   3.628   2.164   7.832  0.6376  0.6717 -1.0139
  188SLPC   C2821690   3.428   2.169   7.931  0.5823 -0.2785 -0.7717
  188SLPC   H8R21691   3.422   2.059   7.941 -1.8354  0.0208  1.8448
  188SLPC   H8S21692   3.326   2.194   7.895 -0.1683 -2.0798  0.0691
  188SLPC   C2921693   3.466   2.248   8.056 -0.1003  0.2030 -0.1598
  188SLPC   H9R21694   3.510   2.347   8.038 -0.6063  0.7990  1.7696
  188SLPC  C21021695   3.460   2.205   8.186 -0.2558  0.6453  0.1721
  188SLPC  H10R21696   3.477   2.279   8.265 -0.1217  2.2656 -1.3330
  188SLPC  C21121697   3.400   2.082   8.238  0.5998  0.5508  0.3540
  188SLPC  H11R21698   3.440   2.066   8.341 -0.8974  2.2042  1.2120
  188SLPC  H11S21699   3.426   2.004   8.164  0.7657  1.5347 -0.6388
  188SLPC  C21221700   3.246   2.095   8.243 -0.3514  0.4370  0.4484
  188SLPC  H12R21701   3.204   2.145   8.154 -2.3417 -0.4572  0.8599
  188SLPC  C21321702   3.167   2.038   8.336  0.2352  0.7140 -0.1453
  188SLPC  H13R21703   3.059   2.047   8.316  0.1896 -1.3139 -0.9607
  188SLPC  C21421704   3.211   1.950   8.455 -0.1853  0.4103 -0.1506
  188SLPC  H14R21705   3.175   1.989   8.552 -0.9936  0.3121 -0.4020
  188SLPC  H14S21706   3.321   1.961   8.462 -0.1812  2.2188 -2.4080
  188SLPC  C21521707   3.164   1.803   8.440 -0.1661  0.1960  0.1431
  188SLPC  H15R21708   3.066   1.782   8.490 -0.4880  0.9655 -0.1691
  188SLPC  H15S21709   3.229   1.740   8.504 -0.0032  1.7799  1.5775
  188SLPC  C21621710   3.155   1.749   8.292  0.2007 -0.3422 -1.1301
  188SLPC  H16R21711   3.085   1.805   8.227 -0.2722 -1.0844 -1.2686
  188SLPC  H16S21712   3.113   1.647   8.298 -4.1366  1.4720  1.5069
  188SLPC  C21721713   3.299   1.739   8.226  0.1288  0.0656  0.2660
  188SLPC  H17R21714   3.364   1.810   8.281  0.1700  0.8826 -0.8211
  188SLPC  H17S21715   3.300   1.771   8.120 -0.2175  1.0044  0.5402
  188SLPC  C21821716   3.369   1.600   8.229 -0.0767 -0.3126  0.1072
  188SLPC  H18R21717   3.386   1.552   8.328  0.0532 -2.5417 -0.9554
  188SLPC  H18S21718   3.461   1.606   8.167  0.9654 -1.4411  1.5034
  188SLPC  H18T21719   3.302   1.540   8.164 -0.4082 -0.1215  0.2776
  188SLPC   C3321720   3.003   2.056   6.878 -0.4539  0.0110 -0.0245
  188SLPC   H3X21721   3.062   2.033   6.970 -1.9466  0.3445  1.0371
  188SLPC   H3Y21722   2.914   1.990   6.879 -0.9205  0.6454  0.5949
  188SLPC   C3421723   2.950   2.197   6.902  0.2187  0.2221 -0.2736
  188SLPC   H4X21724   2.860   2.187   6.966 -1.2320  0.8147 -2.1918
  188SLPC   H4Y21725   2.904   2.241   6.811  2.6137  0.1539 -1.5632
  188SLPC   C3521726   3.039   2.299   6.971 -0.2533  0.2110 -0.4647
  188SLPC   H5X21727   2.980   2.387   7.005  0.0226 -0.3960  1.6580
  188SLPC   H5Y21728   3.115   2.336   6.899  0.3942 -3.7819 -1.9401
  188SLPC   C3621729   3.130   2.246   7.092  0.2950 -0.3743 -0.2204
  188SLPC   H6X21730   3.203   2.326   7.117  0.0917 -0.5267  0.8864
  188SLPC   H6Y21731   3.190   2.163   7.051  1.0152 -0.3338  0.7424
  188SLPC   C3721732   3.062   2.205   7.223 -0.3046  0.0590  0.5867
  188SLPC   H7X21733   3.054   2.095   7.234  0.8906  0.0577  1.4119
  188SLPC   H7Y21734   2.960   2.249   7.221 -0.4669 -0.3517 -0.3904
  188SLPC   C3821735   3.145   2.255   7.344  0.2202  0.2072 -0.0688
  188SLPC   H8X21736   3.151   2.363   7.318 -1.7051  0.1841 -0.7458
  188SLPC   H8Y21737   3.242   2.200   7.346  1.1863  1.9167  0.8391
  188SLPC   C3921738   3.077   2.231   7.474  0.3697 -0.5887 -0.6307
  188SLPC   H9X21739   3.100   2.127   7.505  2.4669  0.0417 -0.0152
  188SLPC   H9Y21740   2.968   2.255   7.468  0.1955 -0.2216  2.7779
  188SLPC  C31021741   3.138   2.318   7.590 -0.1591 -0.0283 -0.4713
  188SLPC  H10X21742   3.112   2.426   7.582 -0.1890 -0.0989 -1.3634
  188SLPC  H10Y21743   3.248   2.313   7.600 -0.4816  0.2504  4.3708
  188SLPC  C31121744   3.093   2.296   7.742  0.2487 -0.3466  0.0645
  188SLPC  H11X21745   3.121   2.190   7.758 -1.8097 -0.8794  0.3635
  188SLPC  H11Y21746   2.982   2.296   7.748  0.0167 -1.7381 -3.4272
  188SLPC  C31221747   3.161   2.397   7.837 -0.4816  0.3985  0.2100
  188SLPC  H12X21748   3.141   2.493   7.785 -2.2220 -0.3306 -0.4915
  188SLPC  H12Y21749   3.269   2.372   7.826 -1.2228 -2.7024 -0.3747
  188SLPC  C31321750   3.129   2.409   7.987 -0.0038  0.2975 -0.2198
  188SLPC  H13X21751   3.152   2.511   8.024  2.0028 -0.8024  1.6643
  188SLPC  H13Y21752   3.194   2.337   8.041  0.4936  0.9234  0.0088
  188SLPC  C31421753   2.976   2.389   8.008  0.3399 -0.9100 -0.2277
  188SLPC  H14X21754   2.941   2.302   7.948  0.2668  0.2275 -1.8685
  188SLPC  H14Y21755   2.914   2.470   7.964 -0.8335 -0.1794  2.6478
  188SLPC  C31521756   2.935   2.396   8.154  0.7186  1.1886  0.8681
  188SLPC  H15X21757   2.972   2.495   8.189 -2.2576  2.1162  1.5830
  188SLPC  H15Y21758   2.993   2.314   8.201  2.3646  2.0803  0.4334
  188SLPC  C31621759   2.783   2.392   8.185 -0.5033  0.2144  0.8037
  188SLPC  H16X21760   2.739   2.301   8.138 -0.2135  1.8105 -2.6803
  188SLPC  H16Y21761   2.740   2.485   8.142 -2.8672 -0.7489  0.9770
  188SLPC  C31721762   2.747   2.382   8.337  0.3029 -0.4896 -0.0733
  188SLPC  H17X21763   2.803   2.465   8.385  1.1736 -1.4140  0.5058
  188SLPC  H17Y21764   2.784   2.285   8.376  0.1915 -0.0338  1.1766
  188SLPC  C31821765   2.600   2.382   8.372 -1.0793 -0.1929 -0.2774
  188SLPC  H18X21766   2.581   2.388   8.481 -1.0776 -1.4248 -0.1996
  188SLPC  H18Y21767   2.536   2.310   8.316  1.6039 -1.1293 -2.2892
  188SLPC  H18Z21768   2.554   2.476   8.336  0.8421  0.7276 -0.3813
  189SLPC     N21769   5.933   3.110   6.297  0.2950 -0.2839 -0.0473
  189SLPC   C1321770   5.944   3.049   6.165 -0.4171 -0.2770 -0.1826
  189SLPC  H13A21771   6.034   2.990   6.154 -0.2902 -0.4708  1.6462
  189SLPC  H13B21772   5.867   2.979   6.137  0.2930 -0.6512 -1.2383
  189SLPC  H13C21773   5.956   3.128   6.093  0.3800 -1.2714 -1.1672
  189SLPC   C1421774   6.060   3.193   6.324  0.4079  0.8075 -0.2728
  189SLPC  H14A21775   6.064   3.257   6.237  1.4443 -0.8611 -1.4991
  189SLPC  H14B21776   6.057   3.243   6.420  0.1562  3.2320 -1.4892
  189SLPC  H14C21777   6.151   3.134   6.325  0.5320  1.0048 -0.0289
  189SLPC   C1521778   5.913   3.006   6.400  0.3877  0.7744  0.3364
  189SLPC  H15A21779   5.925   3.029   6.505  4.1738  0.8207 -0.0560
  189SLPC  H15B21780   5.822   2.948   6.389 -1.0373  2.6534  1.8824
  189SLPC  H15C21781   5.986   2.928   6.384 -0.9485  0.0329 -2.5312
  189SLPC   C1221782   5.805   3.197   6.294 -0.1725 -0.1003  0.5224
  189SLPC  H12A21783   5.720   3.140   6.261 -0.9305  1.6340 -0.6026
  189SLPC  H12B21784   5.818   3.278   6.223 -2.3988 -0.6034 -0.5020
  189SLPC   C1121785   5.766   3.260   6.430  0.1920 -0.4981  0.1511
  189SLPC  H11A21786   5.752   3.172   6.497 -0.9893 -1.4014 -1.2561
  189SLPC  H11B21787   5.666   3.305   6.414 -0.0301 -1.7125 -2.1173
  189SLPC     P21788   5.895   3.492   6.392  0.0189  0.1115  0.4525
  189SLPC   O1321789   6.041   3.502   6.376  0.1574  0.3494  0.0802
  189SLPC   O1421790   5.820   3.493   6.267  0.2117 -0.2135  0.4034
  189SLPC   O1221791   5.858   3.362   6.482 -0.4072 -0.5351 -0.5090
  189SLPC   O1121792   5.845   3.609   6.492 -0.4572  0.2144 -0.3052
  189SLPC    C121793   5.715   3.597   6.548 -0.0389  0.5230 -0.2228
  189SLPC    HA21794   5.637   3.569   6.474 -0.9180 -1.3299  1.3476
  189SLPC    HB21795   5.708   3.511   6.618 -1.6131 -0.5677 -1.6830
  189SLPC    C221796   5.677   3.718   6.634  0.4189  0.1951  1.1378
  189SLPC    HS21797   5.702   3.812   6.581 -1.7759  0.5779  0.7450
  189SLPC   O2121798   5.748   3.707   6.757  0.6037 -0.0797  0.0508
  189SLPC   C2121799   5.773   3.809   6.842 -0.0134  0.0993 -0.3683
  189SLPC   O2221800   5.764   3.929   6.819  0.2400 -0.0619 -0.9972
  189SLPC   C2221801   5.837   3.749   6.966 -0.6007  0.8138  0.0281
  189SLPC   H2R21802   5.810   3.643   6.986  0.7399 -0.0826 -2.5700
  189SLPC   H2S21803   5.948   3.760   6.957 -0.5555 -0.0808 -0.6093
  189SLPC    C321804   5.526   3.725   6.661 -0.3642  0.1526  0.2517
  189SLPC    HX21805   5.488   3.640   6.723  2.4531 -1.1870  0.2097
  189SLPC    HY21806   5.474   3.726   6.563 -1.0017 -2.2553  0.5292
  189SLPC   O3121807   5.486   3.834   6.731 -0.6820  0.4960 -0.4947
  189SLPC   C3121808   5.482   3.951   6.668  0.0504 -0.3441  0.4102
  189SLPC   O3221809   5.484   3.964   6.545  0.3584 -0.2281 -0.4600
  189SLPC   C3221810   5.460   4.072   6.766  0.0161 -0.0521 -0.3392
  189SLPC   H2X21811   5.557   4.118   6.795 -1.7199  2.5245  1.6167
  189SLPC   H2Y21812   5.414   4.030   6.858 -0.7170  1.5021  0.0160
  189SLPC   C2321813   5.800   3.828   7.093  0.2864 -0.2894 -0.7985
  189SLPC   H3R21814   5.700   3.799   7.131  0.4585  2.0900  1.6091
  189SLPC   H3S21815   5.806   3.936   7.067 -2.1307 -0.0443 -0.4625
  189SLPC   C2421816   5.898   3.786   7.198  0.1239  0.0030 -0.1748
  189SLPC   H4R21817   5.989   3.849   7.190  1.7405 -2.1047  0.9059
  189SLPC   H4S21818   5.932   3.680   7.201  0.5581  0.1802  2.6471
  189SLPC   C2521819   5.846   3.827   7.337 -0.4157  0.0315  0.3442
  189SLPC   H5R21820   5.795   3.736   7.377  0.4938 -1.8666 -2.6929
  189SLPC   H5S21821   5.781   3.916   7.327 -1.2194 -0.4542  1.1632
  189SLPC   C2621822   5.958   3.867   7.438 -0.0446  0.2649  0.1977
  189SLPC   H6R21823   6.000   3.965   7.407  0.0074  0.2584  0.2466
  189SLPC   H6S21824   6.046   3.800   7.431 -0.2132  0.2073 -1.4694
  189SLPC   C2721825   5.909   3.883   7.584  0.0401  0.2640  0.0722
  189SLPC   H7R21826   5.985   3.951   7.628  1.6377 -1.3666 -0.1557
  189SLPC   H7S21827   5.920   3.781   7.625  1.0900  0.6228  0.7033
  189SLPC   C2821828   5.769   3.948   7.594 -0.5105 -0.2374  0.4629
  189SLPC   H8R21829   5.698   3.881   7.541  0.8954 -0.0239 -1.7756
  189SLPC   H8S21830   5.772   4.047   7.545  0.2435 -0.6385 -0.3201
  189SLPC   C2921831   5.739   3.950   7.738 -0.8520  0.3558  0.2062
  189SLPC   H9R21832   5.753   3.862   7.802  1.9767  0.5021 -0.1553
  189SLPC  C21021833   5.701   4.057   7.811  0.2766  0.4264  0.4829
  189SLPC  H10R21834   5.668   4.037   7.914 -1.0317  0.8465  0.1469
  189SLPC  C21121835   5.689   4.205   7.765 -0.2859 -0.0856 -0.2119
  189SLPC  H11R21836   5.598   4.252   7.808 -0.3980 -0.1145 -0.4149
  189SLPC  H11S21837   5.676   4.214   7.655 -0.4343 -1.2441 -0.2991
  189SLPC  C21221838   5.821   4.280   7.800 -0.6549 -0.0997  0.2751
  189SLPC  H12R21839   5.902   4.251   7.732 -1.0477  1.7519 -1.0041
  189SLPC  C21321840   5.834   4.378   7.886 -0.0344 -0.2382  0.5872
  189SLPC  H13R21841   5.932   4.425   7.904 -0.4489  1.4994 -1.4255
  189SLPC  C21421842   5.727   4.432   7.975  0.0331  0.5939 -0.0111
  189SLPC  H14R21843   5.712   4.361   8.059 -0.2038 -0.9934 -1.3677
  189SLPC  H14S21844   5.630   4.431   7.922 -0.6095  1.6787  1.1255
  189SLPC  C21521845   5.770   4.571   8.033  0.0885 -0.3561  0.3850
  189SLPC  H15R21846   5.796   4.636   7.946 -4.2307  1.0818  0.0858
  189SLPC  H15S21847   5.866   4.572   8.089  0.4092  1.5913 -0.1558
  189SLPC  C21621848   5.663   4.629   8.117  0.1561  0.4852 -0.8656
  189SLPC  H16R21849   5.588   4.553   8.148 -0.4094  2.3406  2.5777
  189SLPC  H16S21850   5.622   4.712   8.057  0.0801  0.9180 -0.2173
  189SLPC  C21721851   5.720   4.690   8.244 -0.5249  0.4849 -0.1843
  189SLPC  H17R21852   5.794   4.772   8.232  1.8661 -1.0491  3.2704
  189SLPC  H17S21853   5.771   4.606   8.296  0.2843  0.3842 -1.1342
  189SLPC  C21821854   5.615   4.738   8.338 -0.0176  0.8739 -0.6012
  189SLPC  H18R21855   5.550   4.651   8.365  1.9477  0.3617  2.7945
  189SLPC  H18S21856   5.558   4.819   8.288 -1.0315  0.3565 -0.3217
  189SLPC  H18T21857   5.657   4.774   8.434 -1.1112  0.3019  0.1138
  189SLPC   C3321858   5.358   4.174   6.699 -0.6803  0.1975  0.1156
  189SLPC   H3X21859   5.255   4.135   6.683 -0.3911 -1.4247  1.9676
  189SLPC   H3Y21860   5.405   4.214   6.606  2.6968 -0.4657  1.4532
  189SLPC   C3421861   5.344   4.311   6.783  0.0029  0.4134 -0.5400
  189SLPC   H4X21862   5.290   4.389   6.726 -0.7503 -1.5551 -2.5886
  189SLPC   H4Y21863   5.446   4.346   6.808  0.2954 -1.0945  0.4835
  189SLPC   C3521864   5.268   4.281   6.913 -0.9319 -0.2002 -0.3712
  189SLPC   H5X21865   5.321   4.200   6.968  0.7769  2.3443  1.8676
  189SLPC   H5Y21866   5.167   4.247   6.882 -0.5777 -0.0677 -1.6794
  189SLPC   C3621867   5.244   4.399   7.009  0.2940  0.3024 -0.3699
  189SLPC   H6X21868   5.188   4.481   6.959 -1.4007 -0.9655 -0.5880
  189SLPC   H6Y21869   5.340   4.438   7.050  0.5844  0.0895 -0.8521
  189SLPC   C3721870   5.150   4.338   7.119 -1.1009  0.5594  0.4734
  189SLPC   H7X21871   5.201   4.246   7.154 -2.0929 -0.4659 -0.7028
  189SLPC   H7Y21872   5.051   4.301   7.084  0.3432 -1.2932 -1.7381
  189SLPC   C3821873   5.128   4.429   7.241  0.7501 -0.1043 -0.4203
  189SLPC   H8X21874   5.227   4.445   7.289  1.6415  0.7088 -2.4854
  189SLPC   H8Y21875   5.067   4.375   7.316  1.2615 -0.4030 -0.2193
  189SLPC   C3921876   5.054   4.564   7.214 -0.2718  0.0798  0.1532
  189SLPC   H9X21877   4.953   4.545   7.170  1.8977 -1.2442 -4.5461
  189SLPC   H9Y21878   5.106   4.622   7.135  2.1617 -0.4952  1.3075
  189SLPC  C31021879   5.035   4.660   7.330 -0.6454 -0.2284  0.0563
  189SLPC  H10X21880   4.975   4.752   7.314  2.6441  1.9279 -0.4641
  189SLPC  H10Y21881   5.133   4.709   7.349  0.1345 -2.0068  0.7279
  189SLPC  C31121882   4.974   4.600   7.455 -0.0044 -0.1608  0.3011
  189SLPC  H11X21883   5.045   4.528   7.501  2.7334  1.9131 -0.6052
  189SLPC  H11Y21884   4.875   4.555   7.430 -0.7218  1.3735  0.3037
  189SLPC  C31221885   4.952   4.712   7.559 -0.1744  0.4111  0.2688
  189SLPC  H12X21886   4.871   4.776   7.518 -1.2761 -0.3292  1.2477
  189SLPC  H12Y21887   5.038   4.780   7.577 -0.0518  1.0724 -2.6469
  189SLPC  C31321888   4.905   4.660   7.697 -0.0587  0.2556 -0.0561
  189SLPC  H13X21889   4.989   4.591   7.720  0.7360  1.5926  1.1211
  189SLPC  H13Y21890   4.811   4.602   7.681 -0.3229  0.6248  0.1626
  189SLPC  C31421891   4.897   4.764   7.794  0.4598 -0.9991 -1.0785
  189SLPC  H14X21892   4.991   4.825   7.796 -1.3545  1.8642 -0.3000
  189SLPC  H14Y21893   4.877   4.733   7.898  1.0245  2.0565 -0.0079
  189SLPC  C31521894   4.777   4.861   7.761 -0.0614  0.3370 -0.2613
  189SLPC  H15X21895   4.688   4.798   7.737  0.4758 -1.0386  1.3301
  189SLPC  H15Y21896   4.804   4.932   7.680  0.3029 -0.2575 -0.6679
  189SLPC  C31621897   4.743   4.946   7.879 -0.1235 -0.6722  0.1128
  189SLPC  H16X21898   4.841   4.995   7.896 -0.3306 -0.2451  0.0718
  189SLPC  H16Y21899   4.712   4.891   7.970  2.4242 -0.9009  0.8882
  189SLPC  C31721900   4.630   5.044   7.850  0.1950  0.4440  0.1815
  189SLPC  H17X21901   4.556   4.999   7.781 -1.2124  2.1171  0.5757
  189SLPC  H17Y21902   4.673   5.128   7.791 -0.8102  1.9815  1.6011
  189SLPC  C31821903   4.566   5.107   7.981 -1.0502  0.0415 -0.0275
  189SLPC  H18X21904   4.495   5.185   7.944 -0.5008  0.9321  0.7851
  189SLPC  H18Y21905   4.640   5.163   8.042  0.4078 -1.3166 -0.5156
  189SLPC  H18Z21906   4.510   5.035   8.044  1.1658 -0.3681  1.4920
  190SLPC     N21907   6.562   2.496   6.291 -0.4439 -0.5097 -0.0408
  190SLPC   C1321908   6.603   2.580   6.404  0.0735  0.6017  0.5815
  190SLPC  H13A21909   6.548   2.555   6.494  1.2118  1.0741  1.4357
  190SLPC  H13B21910   6.711   2.575   6.416  0.0899 -0.0309  0.1926
  190SLPC  H13C21911   6.584   2.682   6.375 -2.2815  0.2055  0.6860
  190SLPC   C1421912   6.597   2.355   6.330  0.6700  0.0938 -0.1573
  190SLPC  H14A21913   6.704   2.358   6.347  0.3437  1.2653  1.9208
  190SLPC  H14B21914   6.560   2.323   6.426  0.8696 -0.2066 -0.1777
  190SLPC  H14C21915   6.562   2.287   6.254  0.7648  0.9804 -1.0047
  190SLPC   C1521916   6.643   2.529   6.170  0.4622 -0.0473  0.0158
  190SLPC  H15A21917   6.597   2.497   6.078  2.6463 -0.4494 -0.9763
  190SLPC  H15B21918   6.666   2.635   6.166 -0.8909  0.2858  0.7550
  190SLPC  H15C21919   6.738   2.477   6.168  0.5654  0.0977  0.8675
  190SLPC   C1221920   6.415   2.518   6.264  0.3753  0.5809 -0.2430
  190SLPC  H12A21921   6.348   2.474   6.337 -1.3291  2.6064 -0.5395
  190SLPC  H12B21922   6.390   2.472   6.169 -2.6152 -0.7192  1.1127
  190SLPC   C1121923   6.375   2.670   6.243  0.3129  0.1209  0.7267
  190SLPC  H11A21924   6.274   2.678   6.197  1.4515  3.3783 -1.4223
  190SLPC  H11B21925   6.437   2.717   6.164  0.2779  3.0924  2.4030
  190SLPC     P21926   6.285   2.876   6.374  0.3214 -0.1010  0.0201
  190SLPC   O1321927   6.317   2.934   6.504 -0.3957  0.5381 -0.2501
  190SLPC   O1421928   6.292   2.965   6.253 -0.4511  0.0497 -0.1918
  190SLPC   O1221929   6.388   2.751   6.358  0.3539  0.3589  0.4363
  190SLPC   O1121930   6.132   2.815   6.372 -0.2063 -0.1921 -0.3250
  190SLPC    C121931   6.106   2.693   6.427 -0.1069 -0.0761  0.3661
  190SLPC    HA21932   6.033   2.631   6.370  1.9540 -3.2750  1.0382
  190SLPC    HB21933   6.194   2.629   6.451  0.6298  0.6279 -0.4098
  190SLPC    C221934   6.027   2.715   6.562  0.0597  0.6514 -0.5491
  190SLPC    HS21935   5.938   2.778   6.538 -1.4105 -0.8259  0.9377
  190SLPC   O2121936   6.103   2.773   6.664 -0.4161 -0.5952 -0.6653
  190SLPC   C2121937   6.061   2.885   6.725  0.1347 -0.0086  0.4698
  190SLPC   O2221938   5.962   2.950   6.686  0.4212  0.7812  0.2746
  190SLPC   C2221939   6.145   2.898   6.846 -0.8250 -0.1839 -0.0008
  190SLPC   H2R21940   6.184   2.798   6.870 -1.2969 -0.2838  0.3514
  190SLPC   H2S21941   6.231   2.964   6.823 -1.1418 -0.6275 -2.5901
  190SLPC    C321942   5.969   2.582   6.617  0.7415  0.0411 -0.5497
  190SLPC    HX21943   6.053   2.518   6.651  0.1460  0.1981  1.2792
  190SLPC    HY21944   5.908   2.534   6.538 -2.0774  2.6110 -0.0487
  190SLPC   O3121945   5.874   2.604   6.726  0.4322  0.2685  0.6988
  190SLPC   C3121946   5.811   2.501   6.765 -1.0511  0.1325 -0.5739
  190SLPC   O3221947   5.842   2.382   6.744 -0.0411  0.4196  0.1870
  190SLPC   C3221948   5.685   2.545   6.844  0.1467  0.2018  0.5984
  190SLPC   H2X21949   5.603   2.539   6.769  0.9730  0.5620 -0.3372
  190SLPC   H2Y21950   5.702   2.650   6.876 -0.1356  0.1506  0.9263
  190SLPC   C2321951   6.073   2.945   6.972 -0.5721 -0.1931 -1.0263
  190SLPC   H3R21952   6.034   3.049   6.965 -2.0417 -0.2997  3.9747
  190SLPC   H3S21953   6.144   2.938   7.056  0.9048 -0.7195 -2.2981
  190SLPC   C2421954   5.958   2.851   7.019  0.1501 -0.4346 -0.4167
  190SLPC   H4R21955   6.017   2.757   7.032 -1.9654 -1.8637 -0.9501
  190SLPC   H4S21956   5.885   2.836   6.937 -0.0453 -1.8831  0.0121
  190SLPC   C2521957   5.894   2.898   7.148 -0.5689  0.5071 -0.0341
  190SLPC   H5R21958   5.797   2.844   7.140  0.0000 -0.1665 -3.1532
  190SLPC   H5S21959   5.873   3.007   7.154 -0.6404  0.4217  1.5696
  190SLPC   C2621960   5.954   2.854   7.283 -0.0008 -0.0677  0.7842
  190SLPC   H6R21961   6.062   2.881   7.279 -0.0781  0.2579  0.8769
  190SLPC   H6S21962   5.956   2.745   7.304 -2.2681 -0.0341  1.2509
  190SLPC   C2721963   5.897   2.926   7.402 -0.0513  0.9820  0.3301
  190SLPC   H7R21964   5.921   3.032   7.382  1.5632  0.2939 -1.4628
  190SLPC   H7S21965   5.948   2.899   7.497  0.1139 -0.7502 -0.2402
  190SLPC   C2821966   5.741   2.914   7.431  0.4831 -0.5009 -0.4299
  190SLPC   H8R21967   5.679   2.937   7.342  0.9607 -0.7175 -0.8174
  190SLPC   H8S21968   5.721   2.991   7.509 -0.1713  1.4788 -2.5125
  190SLPC   C2921969   5.723   2.774   7.481 -0.4607 -0.2812  0.3828
  190SLPC   H9R21970   5.706   2.710   7.393 -2.0297  2.6986 -1.5684
  190SLPC  C21021971   5.727   2.721   7.607 -0.5533 -0.5045  0.6857
  190SLPC  H10R21972   5.711   2.613   7.619  4.1734 -1.3141  0.4506
  190SLPC  C21121973   5.743   2.793   7.746 -0.5917  0.5538 -0.6868
  190SLPC  H11R21974   5.698   2.894   7.738  1.4338  1.4396 -1.3580
  190SLPC  H11S21975   5.852   2.808   7.766 -0.9291  2.1787 -0.0743
  190SLPC  C21221976   5.684   2.715   7.866  0.6618 -0.7603  0.1469
  190SLPC  H12R21977   5.582   2.682   7.842  0.1498  2.1724 -1.9609
  190SLPC  C21321978   5.729   2.694   7.990  0.2883 -0.0593 -0.2709
  190SLPC  H13R21979   5.659   2.645   8.059 -1.2187  0.1640 -1.6050
  190SLPC  C21421980   5.865   2.746   8.046  0.0520  0.4089  0.4249
  190SLPC  H14R21981   5.906   2.829   7.985 -0.4281 -0.3925 -1.0047
  190SLPC  H14S21982   5.940   2.667   8.022  0.0277  0.2538  0.8571
  190SLPC  C21521983   5.852   2.765   8.195 -0.5658 -0.7404 -0.3583
  190SLPC  H15R21984   5.843   2.670   8.252  1.6843 -0.9951 -0.3616
  190SLPC  H15S21985   5.761   2.824   8.220 -0.8853 -1.5071  0.3230
  190SLPC  C21621986   5.980   2.831   8.260 -0.4189  0.3159 -0.1076
  190SLPC  H16R21987   5.986   2.935   8.223 -1.3558  0.8508  1.2322
  190SLPC  H16S21988   6.069   2.781   8.216 -0.6910  0.9770 -1.4074
  190SLPC  C21721989   5.973   2.828   8.415  0.4498 -0.3384 -0.1830
  190SLPC  H17R21990   6.059   2.887   8.453 -1.1278  2.0090 -0.1445
  190SLPC  H17S21991   5.990   2.730   8.465 -1.3490 -2.0235 -2.7245
  190SLPC  C21821992   5.840   2.891   8.475  0.4391 -0.0439 -0.2957
  190SLPC  H18R21993   5.825   2.891   8.585 -2.1579 -0.6716 -0.6202
  190SLPC  H18S21994   5.750   2.830   8.452  0.4969 -0.8415  1.4936
  190SLPC  H18T21995   5.831   2.990   8.425  0.2259  0.3529  0.5234
  190SLPC   C3321996   5.647   2.453   6.958 -0.3488 -0.5556 -0.3375
  190SLPC   H3X21997   5.688   2.350   6.958  1.5154  0.0997  3.3303
  190SLPC   H3Y21998   5.537   2.458   6.970 -0.1421  1.1377  1.0829
  190SLPC   C3421999   5.691   2.520   7.087  0.1414 -0.1448  0.0859
  190SLPC   H4X22000   5.637   2.615   7.109 -0.1909 -0.6809  1.6878
  190SLPC   H4Y22001   5.802   2.532   7.085  0.2632 -0.8877  1.5702
  190SLPC   C3522002   5.653   2.436   7.205  0.3056 -0.4616  0.0994
  190SLPC   H5X22003   5.555   2.390   7.183  0.8762 -2.3061  1.2817
  190SLPC   H5Y22004   5.639   2.499   7.296  1.8521 -1.2292  0.8974
  190SLPC   C3622005   5.756   2.329   7.230  0.5679 -0.3558 -0.0292
  190SLPC   H6X22006   5.853   2.381   7.223  0.9158 -0.9416  0.4016
  190SLPC   H6Y22007   5.749   2.245   7.157 -0.7070  0.7322 -1.1901
  190SLPC   C3722008   5.730   2.244   7.358 -0.0334  0.0990 -0.4333
  190SLPC   H7X22009   5.799   2.159   7.341  0.6366  0.3666  0.8595
  190SLPC   H7Y22010   5.626   2.207   7.351  0.3500 -1.1996  0.5521
  190SLPC   C3822011   5.759   2.320   7.487 -0.5873 -0.3780 -0.0596
  190SLPC   H8X22012   5.689   2.407   7.490  1.7772  1.6568 -2.1953
  190SLPC   H8Y22013   5.854   2.377   7.488 -0.0450 -1.2655 -0.0204
  190SLPC   C3922014   5.743   2.239   7.612 -0.0797  0.2651  1.1191
  190SLPC   H9X22015   5.824   2.163   7.613 -0.1078  0.2211  0.2705
  190SLPC   H9Y22016   5.651   2.178   7.600 -0.1031  0.2376  1.4314
  190SLPC  C31022017   5.734   2.321   7.743  0.0825  0.6783 -0.1198
  190SLPC  H10X22018   5.637   2.374   7.732  0.3939  0.9973 -1.4524
  190SLPC  H10Y22019   5.812   2.401   7.748  0.3660  0.5114 -1.5984
  190SLPC  C31122020   5.730   2.244   7.871 -0.0440 -0.3377 -0.2982
  190SLPC  H11X22021   5.836   2.226   7.902 -0.4492 -0.3596  1.1423
  190SLPC  H11Y22022   5.683   2.145   7.855  0.8456 -0.7961 -0.1007
  190SLPC  C31222023   5.675   2.321   7.995 -0.5860  0.1616  1.0515
  190SLPC  H12X22024   5.566   2.336   7.981 -0.2861  1.5759 -0.0035
  190SLPC  H12Y22025   5.716   2.424   8.007 -2.3009  0.9829 -0.0010
  190SLPC  C31322026   5.709   2.252   8.125  0.5794  0.5086 -0.5453
  190SLPC  H13X22027   5.819   2.250   8.142  0.5637 -1.8094 -0.5302
  190SLPC  H13Y22028   5.682   2.145   8.111  0.4733  0.6411 -1.3656
  190SLPC  C31422029   5.635   2.295   8.246  0.0561 -0.4478 -0.2954
  190SLPC  H14X22030   5.525   2.286   8.238  0.1814 -1.0406 -1.5588
  190SLPC  H14Y22031   5.665   2.397   8.277  2.5572 -1.1910 -0.1741
  190SLPC  C31522032   5.683   2.214   8.368 -0.0911  0.5465 -0.7069
  190SLPC  H15X22033   5.794   2.209   8.375 -0.2980 -1.0333  2.1780
  190SLPC  H15Y22034   5.667   2.104   8.362 -0.2803  0.4449  1.2816
  190SLPC  C31622035   5.621   2.262   8.504  0.0697 -0.0475  0.0740
  190SLPC  H16X22036   5.667   2.361   8.523 -1.0674  0.3434  0.8616
  190SLPC  H16Y22037   5.650   2.201   8.592 -1.0441  0.6676  0.9439
  190SLPC  C31722038   5.466   2.286   8.507  1.0413 -0.0344 -0.2255
  190SLPC  H17X22039   5.434   2.338   8.414  0.3368  3.3504  1.8060
  190SLPC  H17Y22040   5.438   2.350   8.593 -0.5537 -0.7812 -0.1704
  190SLPC  C31822041   5.382   2.150   8.516  0.2991 -0.6079  0.2953
  190SLPC  H18X22042   5.409   2.076   8.437 -1.8391 -0.8795 -0.2206
  190SLPC  H18Y22043   5.273   2.170   8.504  0.0542 -2.8707 -1.6091
  190SLPC  H18Z22044   5.387   2.106   8.618 -5.2675 -1.8062  0.2150
  191SLPC     N22045   5.648   4.425   6.064  0.2023  0.2470  0.4017
  191SLPC   C1322046   5.736   4.374   6.170  0.2296 -0.3369 -0.3998
  191SLPC  H13A22047   5.682   4.379   6.263  0.2650  1.0621 -0.4540
  191SLPC  H13B22048   5.761   4.269   6.157  1.7873  0.3016 -2.9080
  191SLPC  H13C22049   5.830   4.423   6.189 -0.0031 -0.8861  2.4182
  191SLPC   C1422050   5.533   4.316   6.060  0.0555 -0.2386 -0.6294
  191SLPC  H14A22051   5.459   4.341   5.986 -1.5157 -1.6622  0.4329
  191SLPC  H14B22052   5.572   4.216   6.047 -0.0650 -0.4119  0.3198
  191SLPC  H14C22053   5.493   4.312   6.160  1.3274  1.2818 -0.0422
  191SLPC   C1522054   5.714   4.416   5.934 -0.5009  0.7525  0.4085
  191SLPC  H15A22055   5.797   4.485   5.937 -0.9129  1.2035  2.0275
  191SLPC  H15B22056   5.757   4.318   5.924  0.2478  1.2219 -1.1627
  191SLPC  H15C22057   5.649   4.439   5.851 -0.8249  1.3491  0.8259
  191SLPC   C1222058   5.592   4.564   6.103  0.3393  0.1172 -0.7126
  191SLPC  H12A22059   5.516   4.556   6.179 -0.3131 -1.6598 -1.5345
  191SLPC  H12B22060   5.553   4.609   6.013  1.9263  1.0627 -0.9429
  191SLPC   C1122061   5.696   4.667   6.157  0.2214  1.3560 -0.6523
  191SLPC  H11A22062   5.737   4.626   6.251 -1.6056  0.2450 -0.3223
  191SLPC  H11B22063   5.647   4.760   6.192 -0.5344  1.2927 -1.5113
  191SLPC     P22064   5.785   4.818   5.968  0.0192  0.1813  0.3904
  191SLPC   O1322065   5.861   4.787   5.841  0.3963  0.2484  0.5744
  191SLPC   O1422066   5.647   4.864   5.951 -0.4539 -0.4901 -0.1066
  191SLPC   O1222067   5.800   4.695   6.064  0.8252 -0.0320  0.3779
  191SLPC   O1122068   5.865   4.928   6.049 -0.1336 -0.3284  0.1360
  191SLPC    C122069   5.968   4.902   6.149  0.0078  0.2937  0.0960
  191SLPC    HA22070   6.009   4.802   6.126  0.8821  0.5808  0.3726
  191SLPC    HB22071   6.054   4.970   6.134  0.3288 -0.0635  0.3306
  191SLPC    C222072   5.919   4.906   6.300  0.3445  0.4125  0.1658
  191SLPC    HS22073   5.870   4.809   6.322 -0.7048  1.5419  3.1133
  191SLPC   O2122074   5.827   5.014   6.321 -0.1329 -0.0912  0.4052
  191SLPC   C2122075   5.728   4.975   6.407  0.5461  0.4070 -0.4903
  191SLPC   O2222076   5.708   4.864   6.449  0.7077  0.2002  0.1397
  191SLPC   C2222077   5.659   5.097   6.454 -0.4065  0.6423  0.1576
  191SLPC   H2R22078   5.726   5.185   6.439 -0.4234  0.6648  0.2162
  191SLPC   H2S22079   5.565   5.119   6.399 -0.6057 -0.0824  0.2092
  191SLPC    C322080   6.051   4.909   6.389 -0.2776 -0.4142 -0.3871
  191SLPC    HX22081   6.107   5.001   6.361 -1.7037  1.0233  1.3726
  191SLPC    HY22082   6.114   4.822   6.360  0.4029 -0.6545  1.7260
  191SLPC   O3122083   6.019   4.918   6.531  0.5497  0.4642  0.4174
  191SLPC   C3122084   6.049   4.808   6.599  0.6880 -0.2908  0.0151
  191SLPC   O3222085   6.063   4.699   6.549 -0.2876  0.1792  0.0736
  191SLPC   C3222086   6.063   4.841   6.745  0.2937  0.1218  0.6593
  191SLPC   H2X22087   6.100   4.946   6.743  1.5114 -0.3034 -1.6484
  191SLPC   H2Y22088   6.152   4.781   6.774  0.4212  0.2350  0.5057
  191SLPC   C2322089   5.626   5.082   6.601 -0.2544  0.2140 -0.2292
  191SLPC   H3R22090   5.721   5.079   6.659 -0.6635  2.0108  0.5827
  191SLPC   H3S22091   5.567   4.991   6.622  1.2890 -0.9393 -0.8087
  191SLPC   C2422092   5.549   5.208   6.640 -0.3773 -0.2993 -0.1859
  191SLPC   H4R22093   5.459   5.218   6.576 -0.6360  1.6204  0.4482
  191SLPC   H4S22094   5.618   5.294   6.628  0.4225 -0.4731  2.6243
  191SLPC   C2522095   5.518   5.211   6.786 -0.0530  0.4851 -0.0095
  191SLPC   H5R22096   5.612   5.220   6.844 -0.0445  1.9494 -0.2249
  191SLPC   H5S22097   5.456   5.124   6.816  0.4864 -0.5385 -1.8171
  191SLPC   C2622098   5.442   5.334   6.830 -0.3176  0.2829 -0.0777
  191SLPC   H6R22099   5.345   5.329   6.775  0.5016 -0.8224 -1.4471
  191SLPC   H6S22100   5.491   5.429   6.800 -0.1705  0.7353  1.5752
  191SLPC   C2722101   5.424   5.346   6.981 -0.0159 -0.1576  0.3721
  191SLPC   H7R22102   5.519   5.332   7.038  0.0936  1.7843  0.7000
  191SLPC   H7S22103   5.364   5.264   7.026  0.5007 -0.3653  0.6900
  191SLPC   C2822104   5.352   5.481   7.019 -1.0509  0.7796  0.3037
  191SLPC   H8R22105   5.251   5.468   6.975 -0.2801 -0.0903 -1.2713
  191SLPC   H8S22106   5.393   5.566   6.961  0.7588  1.8594  3.0717
  191SLPC   C2922107   5.351   5.501   7.171  1.0796 -0.3967 -0.0226
  191SLPC   H9R22108   5.449   5.532   7.209 -0.2074  2.6136  1.0659
  191SLPC  C21022109   5.242   5.505   7.247  0.3275  0.1512  0.1934
  191SLPC  H10R22110   5.247   5.515   7.356  1.1331  3.2153 -0.0498
  191SLPC  C21122111   5.108   5.462   7.190  0.3325 -0.5882  0.2436
  191SLPC  H11R22112   5.121   5.357   7.155  0.7486 -0.9354  1.3996
  191SLPC  H11S22113   5.074   5.528   7.108 -3.8117 -1.6874  0.9614
  191SLPC  C21222114   5.004   5.477   7.296 -0.7286 -1.0310 -0.3779
  191SLPC  H12R22115   4.972   5.382   7.342 -2.2185 -0.0215  0.7134
  191SLPC  C21322116   4.943   5.591   7.320  0.2616  0.5265 -0.1618
  191SLPC  H13R22117   4.874   5.613   7.403 -1.0887 -1.5315 -0.6969
  191SLPC  C21422118   4.968   5.724   7.250 -0.2249  0.6812 -0.2501
  191SLPC  H14R22119   5.023   5.715   7.153  0.5900 -0.8281  0.3538
  191SLPC  H14S22120   5.047   5.782   7.302 -0.6437  1.3153 -0.3067
  191SLPC  C21522121   4.836   5.808   7.234  0.1424  0.5940  0.2571
  191SLPC  H15R22122   4.862   5.900   7.178 -0.3721  0.4628 -0.2078
  191SLPC  H15S22123   4.798   5.819   7.338 -2.1469 -2.8466 -0.1091
  191SLPC  C21622124   4.724   5.732   7.154 -0.1561 -0.0789 -0.1584
  191SLPC  H16R22125   4.623   5.775   7.172 -0.0426 -0.2806  0.9998
  191SLPC  H16S22126   4.714   5.631   7.200  4.1208  0.9635  3.4909
  191SLPC  C21722127   4.741   5.731   7.003 -0.7700 -0.1604  0.4542
  191SLPC  H17R22128   4.828   5.666   6.978  0.0404  0.0325  2.6569
  191SLPC  H17S22129   4.775   5.831   6.969  3.0055 -2.2133 -2.2714
  191SLPC  C21822130   4.620   5.687   6.920 -0.2162 -0.0621 -0.4707
  191SLPC  H18R22131   4.643   5.695   6.812 -0.9871 -1.4138 -0.7484
  191SLPC  H18S22132   4.527   5.742   6.941  0.1479  0.9121 -1.3962
  191SLPC  H18T22133   4.587   5.582   6.935 -0.6568  0.2881  1.1589
  191SLPC   C3322134   5.941   4.803   6.828 -0.2179 -1.2278 -0.0132
  191SLPC   H3X22135   5.905   4.704   6.792 -3.1644 -0.6564  1.2555
  191SLPC   H3Y22136   5.870   4.886   6.814  0.3111 -0.8109 -0.2442
  191SLPC   C3422137   5.978   4.787   6.978 -0.5110 -0.2609 -0.2241
  191SLPC   H4X22138   6.044   4.698   6.984 -3.0041 -2.1130  0.3035
  191SLPC   H4Y22139   5.887   4.749   7.028 -1.0515 -1.1600 -1.8481
  191SLPC   C3522140   6.034   4.919   7.048  0.1224 -0.4611  0.5419
  191SLPC   H5X22141   5.970   5.000   7.005 -1.1254 -1.5520  0.2964
  191SLPC   H5Y22142   6.141   4.945   7.036 -0.3377  1.6504  0.7584
  191SLPC   C3622143   5.990   4.908   7.196 -0.3733  1.2963  0.4422
  191SLPC   H6X22144   6.043   4.830   7.255 -2.5585 -0.9549 -0.4945
  191SLPC   H6Y22145   5.881   4.885   7.194 -0.1290 -0.1730  2.3573
  191SLPC   C3722146   6.017   5.034   7.280  0.4547 -0.3045 -0.5548
  191SLPC   H7X22147   5.978   5.122   7.223 -0.2494 -0.5792 -0.4902
  191SLPC   H7Y22148   6.127   5.045   7.293  0.3844 -1.8782  1.4736
  191SLPC   C3822149   5.951   5.041   7.418 -0.0647 -0.8465 -0.3049
  191SLPC   H8X22150   5.840   5.040   7.410 -0.0178  1.3165 -1.7147
  191SLPC   H8Y22151   5.982   5.134   7.470 -0.4672 -1.0155  0.2385
  191SLPC   C3922152   6.004   4.926   7.507  0.3326  0.1394 -0.2146
  191SLPC   H9X22153   6.115   4.927   7.504  0.3425  2.8984 -0.0615
  191SLPC   H9Y22154   5.957   4.826   7.492 -2.2189  1.0058  1.6766
  191SLPC  C31022155   5.964   4.963   7.652 -0.3719 -0.3677  0.4791
  191SLPC  H10X22156   5.854   4.963   7.665 -0.2421  0.4275  1.6849
  191SLPC  H10Y22157   6.003   5.067   7.664 -0.2153 -0.4194  0.4194
  191SLPC  C31122158   6.034   4.869   7.752  0.1960  0.2734  0.1261
  191SLPC  H11X22159   6.144   4.879   7.738  0.0118  1.1421 -0.7494
  191SLPC  H11Y22160   6.008   4.766   7.719  0.2078  0.5418 -0.7526
  191SLPC  C31222161   6.014   4.895   7.897 -1.2460 -0.8818 -0.1855
  191SLPC  H12X22162   5.904   4.904   7.909 -1.4837 -2.3306 -1.1605
  191SLPC  H12Y22163   6.061   4.995   7.913 -0.9822 -0.7805 -1.5030
  191SLPC  C31322164   6.076   4.797   7.986 -0.2003  0.1940 -0.8521
  191SLPC  H13X22165   6.026   4.702   7.959  0.3425 -1.1943  2.7365
  191SLPC  H13Y22166   6.045   4.797   8.093  0.4706 -0.6758 -0.6418
  191SLPC  C31422167   6.223   4.786   7.968  0.7805 -0.0264 -0.7630
  191SLPC  H14X22168   6.271   4.876   7.925  1.5905  0.0922  0.3447
  191SLPC  H14Y22169   6.244   4.713   7.887 -0.2104 -0.9637 -0.1885
  191SLPC  C31522170   6.299   4.768   8.107  1.0414 -0.2949 -0.3513
  191SLPC  H15X22171   6.252   4.681   8.157  0.4849  0.6661  0.8101
  191SLPC  H15Y22172   6.270   4.851   8.174  1.0954 -0.3767 -0.2263
  191SLPC  C31622173   6.454   4.756   8.093 -0.3521  0.7866 -0.2237
  191SLPC  H16X22174   6.491   4.846   8.039  1.1438 -0.9242 -2.1774
  191SLPC  H16Y22175   6.471   4.666   8.031  0.5470  0.1961  0.8622
  191SLPC  C31722176   6.525   4.717   8.227  0.8438 -0.2872  0.1993
  191SLPC  H17X22177   6.633   4.694   8.216  0.8175  1.0357 -3.7293
  191SLPC  H17Y22178   6.474   4.633   8.278 -0.6375  1.1513  1.1726
  191SLPC  C31822179   6.518   4.833   8.317 -0.2125 -0.5851  0.3394
  191SLPC  H18X22180   6.579   4.912   8.268 -1.0830  0.9396  1.6885
  191SLPC  H18Y22181   6.556   4.803   8.417 -0.9691 -0.2472  0.7290
  191SLPC  H18Z22182   6.421   4.881   8.342  0.1738  1.2505 -1.5958
  192SLPC     N22183   5.635   6.126   6.143  0.5097  0.0925  0.6893
  192SLPC   C1322184   5.679   6.172   6.007  1.2922 -0.0684 -0.3555
  192SLPC  H13A22185   5.782   6.151   5.985  1.4312 -0.5120  0.6619
  192SLPC  H13B22186   5.620   6.136   5.925  0.4032  0.9942 -0.1991
  192SLPC  H13C22187   5.678   6.280   6.014  0.7858 -0.2303  2.8019
  192SLPC   C1422188   5.642   5.979   6.146  0.2794  0.3651  0.8345
  192SLPC  H14A22189   5.568   5.938   6.079 -0.4296  1.8880  0.6782
  192SLPC  H14B22190   5.738   5.936   6.120 -0.3739 -0.6800  0.1160
  192SLPC  H14C22191   5.629   5.940   6.246  1.0628  1.9130  1.5529
  192SLPC   C1522192   5.493   6.161   6.158  0.2641  0.6308  0.5362
  192SLPC  H15A22193   5.480   6.269   6.160 -0.6634  0.7050 -3.5773
  192SLPC  H15B22194   5.439   6.134   6.068 -0.1567  1.8476  0.4104
  192SLPC  H15C22195   5.456   6.120   6.250  0.8384 -1.9075 -0.3385
  192SLPC   C1222196   5.714   6.188   6.254  0.3943 -0.6781 -0.1995
  192SLPC  H12A22197   5.690   6.137   6.346  0.9073 -1.7322 -0.6426
  192SLPC  H12B22198   5.685   6.292   6.261 -1.4760 -1.2365  0.8181
  192SLPC   C1122199   5.873   6.194   6.247  0.2633  0.3691  0.0168
  192SLPC  H11A22200   5.903   6.242   6.343 -0.4421 -0.3353  0.5946
  192SLPC  H11B22201   5.908   6.255   6.161 -1.5824  1.2128 -0.1570
  192SLPC     P22202   6.022   5.993   6.161 -0.0214 -0.0313  0.2682
  192SLPC   O1322203   5.954   5.953   6.034  0.1989 -0.1820 -0.6619
  192SLPC   O1422204   6.133   6.092   6.159 -0.3013 -0.4036 -0.1017
  192SLPC   O1222205   5.917   6.057   6.255 -0.4748  1.2931 -0.2087
  192SLPC   O1122206   6.072   5.867   6.235  0.2244  0.3628  0.1383
  192SLPC    C122207   5.996   5.740   6.217  0.1330  0.4701 -0.5930
  192SLPC    HA22208   5.888   5.766   6.213  0.7211  2.7358 -2.4114
  192SLPC    HB22209   6.034   5.682   6.130  0.2941 -0.4035  0.0446
  192SLPC    C222210   6.005   5.646   6.345  0.5455  0.0934  0.0037
  192SLPC    HS22211   5.968   5.546   6.314  0.0725 -0.8515  3.4077
  192SLPC   O2122212   5.935   5.708   6.452 -0.1326 -0.3203 -0.1970
  192SLPC   C2122213   5.810   5.659   6.469 -0.0952 -1.2521  0.1605
  192SLPC   O2222214   5.763   5.572   6.397 -0.4430  0.7531 -0.0220
  192SLPC   C2222215   5.729   5.718   6.592 -0.2775 -0.3626 -0.1123
  192SLPC   H2R22216   5.802   5.718   6.676  0.1830  0.0944 -0.5077
  192SLPC   H2S22217   5.720   5.826   6.571  0.9723 -0.0967  0.6928
  192SLPC    C322218   6.153   5.617   6.384 -0.0568 -0.6905 -0.6001
  192SLPC    HX22219   6.200   5.705   6.433  0.1427  0.1301 -2.2265
  192SLPC    HY22220   6.224   5.599   6.301  0.0128 -0.8418 -0.5060
  192SLPC   O3122221   6.159   5.507   6.478  0.4328  0.2563  0.2651
  192SLPC   C3122222   6.138   5.381   6.421  0.2838  0.3663  0.2958
  192SLPC   O3222223   6.149   5.358   6.304  0.3644  0.4772  0.1564
  192SLPC   C3222224   6.113   5.279   6.528  0.0661  0.5847  0.3899
  192SLPC   H2X22225   6.185   5.307   6.608  1.9352 -3.0545  0.0965
  192SLPC   H2Y22226   6.148   5.179   6.494  0.4020 -0.2570  3.1569
  192SLPC   C2322227   5.591   5.640   6.635 -0.1081  0.6271  0.4416
  192SLPC   H3R22228   5.619   5.534   6.653 -2.3941  0.1871  1.5824
  192SLPC   H3S22229   5.528   5.643   6.543  1.8653  0.1455 -0.9586
  192SLPC   C2422230   5.508   5.700   6.753  0.7116 -0.3823 -0.0866
  192SLPC   H4R22231   5.422   5.631   6.766 -0.7514  1.3967 -0.1301
  192SLPC   H4S22232   5.478   5.804   6.725 -0.0561 -0.7293 -0.5687
  192SLPC   C2522233   5.583   5.721   6.887  0.1129  0.8564 -0.0026
  192SLPC   H5R22234   5.688   5.748   6.865  1.1260 -1.6152  1.6008
  192SLPC   H5S22235   5.601   5.619   6.927 -0.9794  0.4176 -0.5895
  192SLPC   C2622236   5.521   5.827   6.979  0.0884  0.6246 -0.0747
  192SLPC   H6R22237   5.416   5.799   7.003 -0.1376  1.2550 -0.3314
  192SLPC   H6S22238   5.524   5.928   6.933 -0.0104 -1.0436 -3.9430
  192SLPC   C2722239   5.595   5.840   7.113  0.6747  0.8610  0.4029
  192SLPC   H7R22240   5.684   5.899   7.083  0.7811  0.9273  0.8550
  192SLPC   H7S22241   5.631   5.739   7.143 -0.0751  0.7108  0.8058
  192SLPC   C2822242   5.519   5.927   7.224  0.1664 -0.3000 -0.0729
  192SLPC   H8R22243   5.465   6.012   7.177  3.0136  2.6659  1.8510
  192SLPC   H8S22244   5.604   5.971   7.280 -0.6274  2.3494 -0.9217
  192SLPC   C2922245   5.437   5.838   7.310 -0.0746 -0.3805  0.7076
  192SLPC   H9R22246   5.341   5.819   7.261  0.4773  2.4021 -1.6114
  192SLPC  C21022247   5.468   5.795   7.434 -0.2047  0.0965  0.3099
  192SLPC  H10R22248   5.393   5.738   7.491  0.5303 -0.0427  1.1513
  192SLPC  C21122249   5.597   5.825   7.519  0.3058 -0.0043 -0.3933
  192SLPC  H11R22250   5.668   5.870   7.447  0.9542 -1.3410 -0.6091
  192SLPC  H11S22251   5.651   5.739   7.563 -0.3860 -0.0313  0.4068
  192SLPC  C21222252   5.560   5.921   7.627  0.2901 -0.7585  0.8684
  192SLPC  H12R22253   5.493   6.003   7.597 -0.0784 -0.8262  1.4915
  192SLPC  C21322254   5.601   5.918   7.753  0.1590 -0.2477  0.3686
  192SLPC  H13R22255   5.564   5.996   7.821  0.4377  0.5859 -0.4234
  192SLPC  C21422256   5.688   5.813   7.819  0.7744 -0.1394 -0.1850
  192SLPC  H14R22257   5.795   5.834   7.798  1.1739 -2.1266 -0.2841
  192SLPC  H14S22258   5.687   5.722   7.755 -1.1398  0.7364 -1.4197
  192SLPC  C21522259   5.658   5.777   7.965 -0.1780 -0.1655 -0.8751
  192SLPC  H15R22260   5.710   5.681   7.984  0.0037  0.0466 -0.2945
  192SLPC  H15S22261   5.548   5.768   7.980  0.2390  0.5497  3.3870
  192SLPC  C21622262   5.713   5.876   8.070  0.5595 -0.1096  0.1038
  192SLPC  H16R22263   5.666   5.976   8.059  2.2992  0.3405 -4.3812
  192SLPC  H16S22264   5.819   5.884   8.037  0.6451  1.7412  0.7835
  192SLPC  C21722265   5.692   5.819   8.210 -0.4322  0.2088 -0.8080
  192SLPC  H17R22266   5.595   5.766   8.215  0.3454 -1.0806  0.9072
  192SLPC  H17S22267   5.777   5.756   8.244 -0.3783  1.2871  1.1029
  192SLPC  C21822268   5.686   5.937   8.311  0.0861  0.1613  0.0929
  192SLPC  H18R22269   5.671   5.895   8.413 -0.3888 -0.5899 -0.2888
  192SLPC  H18S22270   5.607   6.013   8.297  1.5167  2.0421  1.9243
  192SLPC  H18T22271   5.780   5.997   8.303 -1.7963  3.5629  2.1298
  192SLPC   C3322272   5.966   5.294   6.561  0.1324  0.5168  0.5488
  192SLPC   H3X22273   5.928   5.192   6.580  1.4852  0.2616  1.9282
  192SLPC   H3Y22274   5.894   5.334   6.487 -0.9983 -0.2322  1.2213
  192SLPC   C3422275   5.956   5.389   6.688 -0.2364 -0.2635 -0.5177
  192SLPC   H4X22276   5.851   5.412   6.714 -0.3085 -1.0240 -0.1129
  192SLPC   H4Y22277   6.004   5.485   6.660 -1.3695  0.5573  0.2913
  192SLPC   C3522278   6.031   5.327   6.809  0.0668  0.1437  0.1404
  192SLPC   H5X22279   6.140   5.328   6.793  0.2120 -1.8758  0.9593
  192SLPC   H5Y22280   5.993   5.223   6.808 -1.1023  0.5609 -1.7825
  192SLPC   C3622281   5.989   5.395   6.940  0.1574 -0.0751 -0.2361
  192SLPC   H6X22282   6.004   5.505   6.941  1.6361 -0.2745  0.5147
  192SLPC   H6Y22283   6.056   5.360   7.021 -0.5249  0.4941  0.5773
  192SLPC   C3722284   5.849   5.376   6.985 -0.3186  0.2959  0.0661
  192SLPC   H7X22285   5.840   5.267   6.968  0.0635  0.0423  1.4344
  192SLPC   H7Y22286   5.777   5.431   6.922  0.2647  1.8503  0.7378
  192SLPC   C3822287   5.833   5.409   7.132  0.2855 -1.1072 -0.4254
  192SLPC   H8X22288   5.913   5.355   7.187  0.9538 -0.6414 -0.9417
  192SLPC   H8Y22289   5.735   5.375   7.173 -0.1450  0.1052 -0.4270
  192SLPC   C3922290   5.851   5.552   7.169 -0.3634  0.3012 -0.5742
  192SLPC   H9X22291   5.795   5.619   7.100 -0.5473 -0.1567 -0.8728
  192SLPC   H9Y22292   5.960   5.575   7.167  0.0224 -1.2433  1.2853
  192SLPC  C31022293   5.819   5.586   7.317  0.0983 -0.2454 -0.1296
  192SLPC  H10X22294   5.710   5.572   7.335  0.3305 -1.2036  0.5245
  192SLPC  H10Y22295   5.848   5.693   7.331 -0.5556 -0.1633  0.6680
  192SLPC  C31122296   5.904   5.510   7.426  0.6594  0.2253 -0.1706
  192SLPC  H11X22297   6.008   5.523   7.389  0.7621  1.6313  0.5860
  192SLPC  H11Y22298   5.892   5.400   7.425  0.4650  0.2462 -2.5692
  192SLPC  C31222299   5.882   5.555   7.568 -0.0933  0.1986  0.3648
  192SLPC  H12X22300   5.773   5.572   7.582 -0.6740 -0.6890 -2.5957
  192SLPC  H12Y22301   5.930   5.655   7.582  2.8301 -0.9997 -0.6229
  192SLPC  C31322302   5.946   5.459   7.669 -0.2709  0.0715  0.4862
  192SLPC  H13X22303   6.055   5.475   7.658 -0.7531  4.2130  1.0464
  192SLPC  H13Y22304   5.919   5.353   7.649  0.0203 -0.1801  1.4127
  192SLPC  C31422305   5.909   5.479   7.814  0.3268  0.0682  0.9649
  192SLPC  H14X22306   5.809   5.433   7.831 -0.2572  1.1847  0.6045
  192SLPC  H14Y22307   5.896   5.583   7.849  0.0541  0.3919 -0.0709
  192SLPC  C31522308   6.006   5.397   7.908  0.6084 -0.4099  0.1616
  192SLPC  H15X22309   6.081   5.466   7.952 -0.3737  0.3928  0.6075
  192SLPC  H15Y22310   6.057   5.332   7.833  1.2151  2.0011 -1.5947
  192SLPC  C31622311   5.937   5.322   8.021  0.6040  0.2087 -0.7144
  192SLPC  H16X22312   5.848   5.260   7.996  1.8502 -1.1628 -1.8559
  192SLPC  H16Y22313   5.885   5.391   8.090  2.2025  0.5611  0.1537
  192SLPC  C31722314   6.023   5.236   8.112  0.6163 -0.2300  0.2429
  192SLPC  H17X22315   6.114   5.294   8.137  0.2243  0.4374  0.1448
  192SLPC  H17Y22316   6.060   5.149   8.053  0.7734  0.3807 -0.5650
  192SLPC  C31822317   5.955   5.177   8.238 -0.2146 -0.6590 -0.5084
  192SLPC  H18X22318   5.906   5.267   8.282  1.0107 -0.8449  1.2339
  192SLPC  H18Y22319   6.031   5.134   8.305  0.0271  0.8114  0.1793
  192SLPC  H18Z22320   5.870   5.108   8.217  0.8377 -1.9537 -0.5341
  193SOD    SOD22321   6.489   3.324   3.465  0.0126 -0.5966  0.0360
  194SOD    SOD22322   1.879   1.254  15.041 -0.1946  0.1555  0.9037
  195SOD    SOD22323   1.189   5.273   4.615 -0.1898  0.7169 -0.1551
  196SOD    SOD22324   2.403   0.816   2.897 -0.3428  0.5174  0.1843
  197SOD    SOD22325   3.439   5.645  10.986  0.3119 -0.0949 -0.1391
  198SOD    SOD22326   5.826   6.211   1.133 -0.6773 -0.0134 -0.1883
  199SOD    SOD22327   2.800   0.064   6.194  0.7167 -0.3701 -0.2697
  200SOD    SOD22328   4.141   4.875  10.882 -0.4438 -0.4043 -0.1476
  201SOD    SOD22329   0.518   6.312   1.281  0.1688  0.2995  0.4262
  202SOD    SOD22330   0.435   2.258  15.530 -0.0699 -0.7493  0.1507
  203SOD    SOD22331   5.834   6.713  13.347 -0.1184 -0.2596 -0.0580
  204SOD    SOD22332   1.484   0.038   1.773 -0.7032  0.1533  0.7138
  205SOD    SOD22333   4.405   2.737   4.880  0.1014  0.2566 -0.3174
  206SOD    SOD22334   2.433   4.786  10.516 -0.3190 -0.1666  0.0068
  207SOD    SOD22335   3.574   3.470  13.983 -0.3472 -0.0977 -0.0562
  208SOD    SOD22336   2.579   1.661  13.224  0.4286 -0.1621  0.2034
  209SOD    SOD22337   1.046   4.829  14.167  0.2753 -0.3237  0.2419
  210SOD    SOD22338   4.957   6.763   4.918  0.3324 -0.3300  0.2651
  211SOD    SOD22339   2.766   3.671  12.864  0.0053 -0.0703 -0.6091
  212SOD    SOD22340   0.327   2.543  11.029 -0.1544 -0.2232 -0.1333
  213SOD    SOD22341   2.457   6.532  10.907  0.1802  0.0274 -1.1685
  214SOD    SOD22342   3.087   6.500  16.568  0.0312 -0.4163 -0.5384
  215SOD    SOD22343   1.227   2.742  10.590 -0.2775 -0.2988 -0.1371
  216SOD    SOD22344   1.836   0.946  14.352 -0.0201 -0.1785 -0.3949
  217SOD    SOD22345   4.063   2.125   3.966  0.2095  0.0138 -0.1648
  218SOD    SOD22346   1.976   1.807   1.714  0.0037  0.1970 -0.3199
  219SOD    SOD22347   2.951   1.293   4.442  0.1348  0.0689 -0.6661
  220SOD    SOD22348   1.740   3.395  10.751  0.1698  0.2337  0.0063
  221SOD    SOD22349   2.894   6.577   2.144 -0.2842 -0.0824 -0.0374
  222SOD    SOD22350   4.874   2.141  11.626  0.4050  0.1558 -0.1917
  223SOD    SOD22351   1.790   4.412   5.302 -0.1883 -0.2484 -0.2876
  224SOD    SOD22352   3.025   3.223   0.227 -0.2842  0.0030 -0.3951
  225SOD    SOD22353   5.615   1.929  10.804  0.5435  0.1328  0.3805
  226SOD    SOD22354   6.443   6.637   3.558  0.6127 -0.0553  0.3087
  227SOD    SOD22355   5.835   0.315   1.491 -0.6891 -0.0952 -0.5408
  228SOD    SOD22356   0.243   3.062   1.812  0.1002 -0.1472 -0.5111
  229SOD    SOD22357   2.650   1.555  10.870  0.4442  0.0818 -0.0654
  230SOD    SOD22358   4.933   3.255   1.268  0.0238 -0.2141  0.0597
  231SOD    SOD22359   6.726   3.209  11.263  0.1209  0.3135  0.0247
  232SOD    SOD22360   4.162   1.367   5.112 -0.0484  0.2826 -0.2602
  233SOD    SOD22361   6.678   3.206  16.830  0.0088  0.1028 -0.2274
  234SOD    SOD22362   0.128   4.456  14.696 -0.3015  0.2836  0.1868
  235SOD    SOD22363   3.823   5.225   5.569  0.5848 -0.2605  0.0924
  236SOD    SOD22364   4.326   0.997  16.804  0.0500  0.2922  0.6209
  237SOD    SOD22365   5.720   6.565  13.882 -0.1544 -0.0778  0.2119
  238SOD    SOD22366   1.244   3.401   5.946 -0.3824 -0.4017  0.1095
  239SOD    SOD22367   6.441   3.887   4.479 -0.0777 -0.1623  0.0099
  240SOD    SOD22368   2.587   5.534  15.832 -0.4870 -0.6411  0.1938
  241SOD    SOD22369   5.269   3.434  11.288  0.1744 -0.3754 -0.2256
  242SOD    SOD22370   3.914   1.406   2.412  0.2860  0.4230 -0.3679
  243SOD    SOD22371   0.667   0.887   6.519 -1.2102  0.2902  0.1390
  244SOD    SOD22372   5.800   5.138   6.082 -0.1824 -0.0075 -0.2381
  245SOD    SOD22373   2.351   5.333   1.025 -0.5894  0.0187  0.1149
  246SOD    SOD22374   0.233   4.409   6.469  0.3468 -0.2062  0.0605
  247SOD    SOD22375   0.948   0.891   2.611 -0.1024 -0.0443 -0.0606
  248SOD    SOD22376   3.170   4.733  15.217 -0.0431  0.2974 -0.1508
  249SOD    SOD22377   3.346   1.358  16.188  0.3327  0.2761 -0.1803
  250SOD    SOD22378   5.675   1.164  14.872 -0.1410 -0.0442  0.1723
  251SOD    SOD22379   2.095   1.835   5.716  0.2024  0.1164  0.1760
  252SOD    SOD22380   5.046   2.884   4.055 -0.3477 -0.3995  0.3117
  253SOD    SOD22381   2.018   2.353   6.130  0.1079 -0.4296  0.0157
  254SOD    SOD22382   5.313   4.408   5.075  0.0706 -0.3164  0.2477
  255SOD    SOD22383   4.137   2.430   1.586 -0.1633 -0.3946  0.3327
  256SOD    SOD22384   3.974   1.156  16.055 -0.0368 -0.1963  0.1050
  257SOD    SOD22385   6.363   2.398   2.798  0.5751 -0.0386  0.4481
  258SOD    SOD22386   2.929   0.229  12.916  0.0086 -0.1126 -0.1316
  259SOD    SOD22387   1.948   5.895   0.974 -0.0435 -0.2931 -0.0140
  260SOD    SOD22388   2.705   0.185   4.697 -0.1696 -0.2629  0.2472
  261SOD    SOD22389   1.790   0.306   6.459 -0.0129 -0.0736  0.6255
  262SOD    SOD22390   1.291   5.147   4.155  0.1877 -0.0336 -0.6623
  263SOD    SOD22391   3.052   2.773   5.736 -0.2822 -0.2542  0.1365
  264SOD    SOD22392   1.821   2.801  14.892  0.2257  0.2201 -0.0937
  265SOD    SOD22393   5.445   6.144   4.633  0.5114  0.3341  0.1035
  266CLA    CLA22394   1.736   1.988  13.210 -0.0824  0.0897  0.3400
  267CLA    CLA22395   1.194   1.050  15.146 -0.8282  0.1167  0.2788
  268CLA    CLA22396   2.034   5.895   2.056 -0.1406  0.0661 -0.5639
  269CLA    CLA22397   5.018   2.302   1.775 -0.1252 -0.2695 -0.3026
  270CLA    CLA22398   3.322   0.924   5.933  0.1232  0.2354 -0.0980
  271CLA    CLA22399   0.919   5.566   1.040 -0.0449  0.5675 -0.5321
  272CLA    CLA22400   0.300   1.515   1.726 -0.4602 -0.0849 -0.3849
  273CLA    CLA22401   5.656   1.374  16.147 -0.5057  0.1447  0.2388
  274CLA    CLA22402   5.111   5.921   3.084 -0.1333 -0.1281 -0.0582
  275CLA    CLA22403   6.465   1.935  16.930  0.3416  0.3355  0.2828
  276CLA    CLA22404   2.163   3.758   0.877  0.0562 -0.2323 -0.0940
  277CLA    CLA22405   0.768   2.888  14.971  0.1876 -0.2768  0.2904
  278CLA    CLA22406   2.733   1.905   0.032 -0.2392  0.5952  0.0774
  279CLA    CLA22407   6.749   3.061   2.396  0.1814  0.7132 -0.1359
  280CLA    CLA22408   6.260   4.168   4.878  0.1828 -0.0810  0.3851
  281CLA    CLA22409   3.330   3.818  13.820  0.0451 -0.6013 -0.1195
  282CLA    CLA22410   2.955   1.032   4.844  0.6656 -0.3948  0.1283
  283CLA    CLA22411   5.180   0.776  13.559  0.0816  0.2488  0.0416
  284CLA    CLA22412   4.559   2.139   1.739  0.6726  0.3859  0.1549
  285CLA    CLA22413   4.516   2.100   3.346 -0.3479  0.0608 -0.0616
  286CLA    CLA22414   5.655   4.950  14.951 -0.0334  0.1322  0.4405
  287CLA    CLA22415   1.508   0.403   4.486 -0.0052 -0.2749  0.1157
  288CLA    CLA22416   5.698   2.958   3.777  0.4348 -0.2969  0.0517
  289CLA    CLA22417   1.231   5.418  15.022  0.1038 -0.3425 -0.3686
  290CLA    CLA22418   2.006   6.095  11.712  0.2625 -0.0350  0.1823
  291CLA    CLA22419   1.011   1.045   6.220  0.0152  0.2023  0.2183
  292CLA    CLA22420   1.375   5.807   1.295  0.0234  0.1392  0.2578
  293CLA    CLA22421   6.192   1.891  16.035  0.2133  0.2063 -0.5538
  294CLA    CLA22422   2.739   1.197  14.319 -0.0048 -0.1412 -0.3643
  295CLA    CLA22423   1.005   4.169  16.834  0.0867 -0.1869 -0.3720
  296CLA    CLA22424   1.443   5.360   4.551 -0.3047 -0.2070  0.5622
  297CLA    CLA22425   1.983   4.056   5.104  0.5010 -0.2635 -0.0909
  298CLA    CLA22426   5.499   2.881   0.663 -0.1847 -0.6482 -0.0803
  299CLA    CLA22427   5.318   2.341   4.581  0.4207  0.4136 -0.1000
  300CLA    CLA22428   2.419   2.337  17.109 -0.2289 -0.1094  0.0269
  301CLA    CLA22429   0.715   5.115   4.846 -0.3528 -0.2615  0.3251
  302CLA    CLA22430   6.817   2.671   5.193  0.1865 -0.1417  0.0206
  303CLA    CLA22431   5.989   1.918  13.133 -0.5759 -0.3803 -0.2256
  304CLA    CLA22432   2.690   5.787  15.403 -0.3409  0.4058 -0.0344
  305CLA    CLA22433   6.601   3.732  16.818 -0.2591 -0.3441 -0.0924
  306CLA    CLA22434   5.499   3.877  13.187  0.6542 -0.1807  0.0974
  307CLA    CLA22435   2.798   3.579  14.359 -0.2295  0.3332 -0.0993
  308CLA    CLA22436   3.376   4.102  11.190 -0.2069  0.1512  0.2000
  309CLA    CLA22437   3.008   0.426  12.748  0.0416  0.2021  0.1212
  310CLA    CLA22438   4.205   2.334   5.027  0.1495 -0.2956 -0.2118
  311CLA    CLA22439   1.720   1.202   0.719 -0.1113 -0.1475 -0.0629
  312CLA    CLA22440   2.716   0.722   3.123  0.0037  0.0584  0.0792
  313CLA    CLA22441   2.229   3.704  12.739 -0.3249 -0.2341 -0.2179
  314CLA    CLA22442   4.251   5.170  13.890  0.0160  0.0791 -0.3428
  315CLA    CLA22443   4.352   0.760   3.048 -0.0609  0.3113 -0.2080
  316CLA    CLA22444   5.447   5.076   4.008 -0.1406 -0.1451 -0.2537
  317CLA    CLA22445   4.883   1.155  14.138 -0.2584 -0.0856 -0.3553
  318CLA    CLA22446   6.085   1.242  16.979 -0.1462  0.2137  0.3981
  319TIP3   OH222447   4.322   2.282  13.180  0.2628  0.0267 -0.3802
  319TIP3    H122448   4.404   2.318  13.216  0.6062  0.5249 -1.6288
  319TIP3    H222449   4.262   2.356  13.181 -0.2836 -0.4203  0.8320
  320TIP3   OH222450   3.065   2.058   4.127 -0.2943  0.4472  0.6414
  320TIP3    H122451   3.008   2.133   4.107  0.8174  0.6522 -2.0613
  320TIP3    H222452   3.130   2.093   4.188 -0.8134  1.2324  0.7555
  321TIP3   OH222453   5.367   3.828   0.320 -0.6866 -0.3655 -0.3862
  321TIP3    H122454   5.432   3.787   0.377  0.6813  2.7274  0.3864
  321TIP3    H222455   5.303   3.865   0.380  0.2152  2.0290 -0.8574
  322TIP3   OH222456   1.998   4.215   6.411  0.1749 -0.1131  0.7467
  322TIP3    H122457   2.069   4.245   6.354  0.6375 -2.0907  0.2375
  322TIP3    H222458   2.035   4.140   6.458 -1.1814 -0.3921  1.4002
  323TIP3   OH222459   2.651   4.914  10.936 -0.0083  0.3057 -0.4539
  323TIP3    H122460   2.644   4.948  10.846 -1.4923 -0.4344 -0.6360
  323TIP3    H222461   2.596   4.972  10.988  0.6555  0.5847 -0.0556
  324TIP3   OH222462   2.585   4.853   1.974  0.1450  0.3238 -0.7530
  324TIP3    H122463   2.544   4.794   2.038 -0.4296  0.3940 -1.0517
  324TIP3    H222464   2.672   4.870   2.010  0.0672 -0.1620 -0.3186
  325TIP3   OH222465   2.119   3.083   5.530 -0.3586  0.8424 -0.6105
  325TIP3    H122466   2.149   3.095   5.439  0.7507 -0.1635 -0.3995
  325TIP3    H222467   2.035   3.039   5.522  0.0347  0.1770 -1.1520
  326TIP3   OH222468   2.361   1.110  15.528 -0.1923 -0.0976  0.8251
  326TIP3    H122469   2.294   1.103  15.460 -0.8032  3.1425  1.0167
  326TIP3    H222470   2.313   1.094  15.610 -0.6570  1.5321  0.9023
  327TIP3   OH222471   0.735   2.515   3.511 -0.0833  0.4170 -0.2688
  327TIP3    H122472   0.780   2.571   3.447  0.5481  1.1476  0.7786
  327TIP3    H222473   0.726   2.430   3.467  1.1473  0.6428 -0.9982
  328TIP3   OH222474   0.129   0.024  15.121  0.5884 -0.2603 -0.7647
  328TIP3    H122475   0.118   0.109  15.080  0.7273  0.5681  0.8785
  328TIP3    H222476   0.058   0.018  15.185  1.7119 -0.5313  0.4911
  329TIP3   OH222477   6.673   0.476  11.457  0.5328 -0.1536  0.5500
  329TIP3    H122478   6.714   0.390  11.441 -1.4622 -0.6866 -1.8820
  329TIP3    H222479   6.617   0.461  11.534  1.3191 -0.6113  1.0525
  330TIP3   OH222480   5.929   3.281   3.313  0.3605 -0.3481 -0.2880
  330TIP3    H122481   5.844   3.305   3.277  0.2752 -1.9106 -1.1947
  330TIP3    H222482   5.961   3.213   3.254  1.6675 -0.6627  0.7725
  331TIP3   OH222483   1.274   5.489  16.532 -0.7561 -0.1095  0.1617
  331TIP3    H122484   1.233   5.574  16.517 -0.7196 -0.0341  0.4740
  331TIP3    H222485   1.305   5.494  16.623 -1.6810 -0.8518  0.5254
  332TIP3   OH222486   6.309   1.013   3.831  0.0987 -0.1453  0.8744
  332TIP3    H122487   6.329   1.011   3.925 -0.6754  0.3239  1.0602
  332TIP3    H222488   6.221   1.052   3.827 -0.0405 -0.5521 -0.0184
  333TIP3   OH222489   2.333   6.173  11.302 -0.0743 -0.1198  0.2130
  333TIP3    H122490   2.273   6.204  11.234 -0.6117 -0.6449  0.4396
  333TIP3    H222491   2.350   6.251  11.356  0.4359  0.3216 -0.5767
  334TIP3   OH222492   3.939   1.719   3.143 -0.4549 -0.2575 -0.4113
  334TIP3    H122493   3.904   1.764   3.066 -0.5539 -2.0650 -1.4745
  334TIP3    H222494   3.865   1.712   3.202 -0.6053  0.3951 -0.5260
  335TIP3   OH222495   3.834   4.168   0.857  0.2078  0.5902  0.0743
  335TIP3    H122496   3.784   4.141   0.934  0.8181  2.2105  1.0602
  335TIP3    H222497   3.789   4.246   0.826  0.8383  0.7853 -0.3445
  336TIP3   OH222498   4.737   5.511   4.138  0.3695 -0.3735  0.4828
  336TIP3    H122499   4.683   5.434   4.118  0.5801 -0.6497  0.9681
  336TIP3    H222500   4.802   5.478   4.200 -0.4297  0.5343  1.8213
  337TIP3   OH222501   3.053   4.680  13.566 -0.2112 -0.3066 -0.2809
  337TIP3    H122502   3.073   4.613  13.631 -0.8585  0.2852  0.5426
  337TIP3    H222503   3.106   4.657  13.490 -1.2872 -2.3987 -0.4225
  338TIP3   OH222504   1.663   0.467   6.099  0.0586  0.8344  0.2270
  338TIP3    H122505   1.653   0.511   6.015 -1.0008  0.0589 -0.0692
  338TIP3    H222506   1.722   0.523   6.150  1.9222  0.5703 -1.5663
  339TIP3   OH222507   4.036   4.564   4.131  0.2623  0.2379 -0.4638
  339TIP3    H122508   4.115   4.617   4.130  0.1100  0.4892  0.2224
  339TIP3    H222509   4.067   4.475   4.147  0.3970  0.3548 -0.0787
  340TIP3   OH222510   2.830   3.596   3.456  0.1101  0.1601 -0.7060
  340TIP3    H122511   2.816   3.588   3.362 -0.3664  1.0508 -0.7130
  340TIP3    H222512   2.883   3.675   3.467 -1.6114  1.2690 -0.0872
  341TIP3   OH222513   5.515   6.135  11.559  0.0277 -0.1139 -0.2745
  341TIP3    H122514   5.426   6.099  11.555  0.4614 -1.4082  0.9915
  341TIP3    H222515   5.571   6.059  11.576  1.0371  1.0595  1.9112
  342TIP3   OH222516   5.408   3.273  10.971 -0.1301 -0.0620  0.2587
  342TIP3    H122517   5.341   3.246  11.034 -1.4109  0.9041 -0.6776
  342TIP3    H222518   5.455   3.344  11.015  0.1625 -0.5869  0.8202
  343TIP3   OH222519   0.056   6.670  16.971  0.7972 -0.8498  0.2167
  343TIP3    H122520   0.074   6.734  17.041 -0.6764 -3.0931  2.7644
  343TIP3    H222521   0.110   6.699  16.898  1.5039  2.2985  1.8740
  344TIP3   OH222522   5.229   4.700  13.239  0.1446 -0.2342  0.0445
  344TIP3    H122523   5.239   4.793  13.256 -0.7834 -0.3366  1.2343
  344TIP3    H222524   5.143   4.691  13.197  0.7003 -0.4327 -1.0563
  345TIP3   OH222525   5.818   2.201  15.999  0.4754 -0.3364  0.6879
  345TIP3    H122526   5.887   2.220  16.063 -0.9836  0.8303  1.9743
  345TIP3    H222527   5.746   2.259  16.025  0.0806  0.6105 -2.4007
  346TIP3   OH222528   3.014   2.510  16.554  0.0107 -0.0540 -0.0484
  346TIP3    H122529   2.939   2.478  16.503 -0.6240 -1.3861  1.6770
  346TIP3    H222530   2.984   2.507  16.645  0.7208  3.4039  0.3733
  347TIP3   OH222531   1.031   1.526   3.831 -0.0571  0.3916 -0.4253
  347TIP3    H122532   1.058   1.437   3.809 -0.3725  0.8154 -2.6564
  347TIP3    H222533   0.971   1.515   3.905  1.1889 -1.0860  0.4024
  348TIP3   OH222534   6.119   6.700  14.201 -0.6129  0.0004  0.1147
  348TIP3    H122535   6.107   6.605  14.206  1.2233 -0.2502  0.1239
  348TIP3    H222536   6.096   6.731  14.289  1.6615 -0.8084  1.0513
  349TIP3   OH222537   5.567   2.474  14.012 -0.3709 -0.1326 -0.0561
  349TIP3    H122538   5.514   2.500  13.937 -0.2872 -1.5896 -0.6436
  349TIP3    H222539   5.548   2.539  14.079 -1.1789  0.6378 -1.0138
  350TIP3   OH222540   3.334   0.685   3.268 -0.1395  0.1724 -0.0888
  350TIP3    H122541   3.387   0.700   3.189 -0.1738 -0.2929 -0.2012
  350TIP3    H222542   3.246   0.666   3.234 -0.3677  0.8858  0.0950
  351TIP3   OH222543   4.359   1.199   6.465 -0.0795 -0.4011  0.5020
  351TIP3    H122544   4.321   1.197   6.377  2.2370 -0.7095 -0.5279
  351TIP3    H222545   4.306   1.137   6.515  0.0045 -1.9569 -1.2824
  352TIP3   OH222546   4.286   3.968  15.125  0.4446  0.2155  0.4902
  352TIP3    H122547   4.275   4.042  15.066 -1.2279  0.1411  0.6844
  352TIP3    H222548   4.307   3.894  15.068  0.8275  0.5638  0.1812
  353TIP3   OH222549   5.305   1.760   1.466  0.4049 -0.2326 -0.1787
  353TIP3    H122550   5.225   1.731   1.511 -0.0479  1.3234  0.0716
  353TIP3    H222551   5.340   1.829   1.523  1.4254 -0.2741 -0.7504
  354TIP3   OH222552   4.571   3.709  11.671  0.2927  0.0065 -0.0178
  354TIP3    H122553   4.609   3.622  11.685 -0.3711  0.0474  2.1517
  354TIP3    H222554   4.478   3.692  11.652  0.4326  0.1835 -0.9098
  355TIP3   OH222555   6.369   0.014  15.119 -0.4511 -0.4430  0.4850
  355TIP3    H122556   6.441  -0.012  15.062 -1.3776 -1.8898 -0.0545
  355TIP3    H222557   6.290  -0.014  15.072 -1.2362 -1.4661  2.3452
  356TIP3   OH222558   2.128   4.943   5.457 -0.2212  0.0363  0.5646
  356TIP3    H122559   2.118   4.945   5.553  0.4126  3.2236  0.6227
  356TIP3    H222560   2.038   4.939   5.424 -0.4901  0.0245  1.2779
  357TIP3   OH222561   2.983   4.593   5.753 -0.8261  0.3535  0.3518
  357TIP3    H122562   2.898   4.635   5.750 -0.8531  0.3321  0.8434
  357TIP3    H222563   3.045   4.665   5.764 -0.8374  0.3001  0.7466
  358TIP3   OH222564   2.808   5.895  12.654  0.4267  0.1693  0.7638
  358TIP3    H122565   2.812   5.984  12.687 -0.8848  0.6586 -0.3501
  358TIP3    H222566   2.843   5.901  12.565  1.4451 -0.6580  1.0892
  359TIP3   OH222567   2.991   1.316  13.254 -0.5485 -0.1344  0.4922
  359TIP3    H122568   3.030   1.286  13.172 -2.3478 -0.1447 -0.3705
  359TIP3    H222569   2.908   1.355  13.228 -0.4259  1.2696  2.1400
  360TIP3   OH222570   3.201   0.958   1.277  0.0235  0.3707  0.0763
  360TIP3    H122571   3.243   0.966   1.192 -0.4707  1.2934 -0.0931
  360TIP3    H222572   3.113   0.925   1.258  0.4885 -1.0597  0.3838
  361TIP3   OH222573   5.288   4.651  15.693  0.0122  0.4916 -0.2448
  361TIP3    H122574   5.365   4.683  15.740  0.3208  0.5775 -0.7987
  361TIP3    H222575   5.214   4.673  15.749  0.3839  0.5077  0.2415
  362TIP3   OH222576   3.840   3.051  15.243 -0.0918  0.1061  0.2611
  362TIP3    H122577   3.833   3.142  15.215 -0.6718 -0.1262 -0.3455
  362TIP3    H222578   3.926   3.046  15.287 -0.0612  0.9367  0.3028
  363TIP3   OH222579   0.836   1.792  15.386 -0.2852  0.5266  0.3480
  363TIP3    H122580   0.847   1.726  15.455  0.8453 -0.6392 -0.9306
  363TIP3    H222581   0.775   1.753  15.324 -1.2825  1.5691  0.6476
  364TIP3   OH222582   0.167   6.675   3.647 -0.3815  0.8202  0.2993
  364TIP3    H122583   0.204   6.621   3.717  0.9226  1.8794  0.4381
  364TIP3    H222584   0.243   6.707   3.599 -1.2103  1.3721 -0.6572
  365TIP3   OH222585   3.036   5.015  14.905  0.0256  0.1253  0.3806
  365TIP3    H122586   2.988   5.083  14.858 -0.5641 -0.6636 -0.1644
  365TIP3    H222587   3.100   5.063  14.959 -1.4882  1.1774  1.2580
  366TIP3   OH222588   3.191   6.377   1.052  0.1358  0.1535 -0.5418
  366TIP3    H122589   3.145   6.329   0.983 -0.6985  1.4096 -0.8771
  366TIP3    H222590   3.275   6.399   1.013 -0.0729  0.2839 -0.9281
  367TIP3   OH222591   2.113   6.134  17.013  0.4625 -0.2737  0.0822
  367TIP3    H122592   2.168   6.060  17.036  1.4127  0.1820 -0.7078
  367TIP3    H222593   2.026   6.110  17.045  0.4617 -2.3355 -1.3593
  368TIP3   OH222594   3.165   4.266  13.751  0.7346 -0.0063 -0.0791
  368TIP3    H122595   3.254   4.248  13.782  0.5800 -0.8877 -0.1296
  368TIP3    H222596   3.162   4.227  13.664  0.4505  0.4528 -0.2751
  369TIP3   OH222597   2.999   6.574   4.187 -0.0134  0.2378 -0.2893
  369TIP3    H122598   3.007   6.634   4.113  2.0237  0.5034  0.1194
  369TIP3    H222599   3.051   6.498   4.163  0.8463  0.4152  0.9429
  370TIP3   OH222600   4.418   6.513  16.527 -0.3138  0.2557  0.7484
  370TIP3    H122601   4.501   6.548  16.558  1.1699 -1.7350 -0.8646
  370TIP3    H222602   4.418   6.422  16.555 -1.3300 -0.1239 -0.4063
  371TIP3   OH222603   6.478   4.353   4.734 -0.8199  0.1920 -0.9551
  371TIP3    H122604   6.419   4.307   4.794  0.0414 -0.2665 -0.4559
  371TIP3    H222605   6.462   4.312   4.649  0.5109 -1.5989 -0.3705
  372TIP3   OH222606   4.963   4.099  16.941  0.1631  0.0618  0.2829
  372TIP3    H122607   4.912   4.018  16.935  0.2676 -0.1592  2.0155
  372TIP3    H222608   5.049   4.076  16.906  0.4132 -0.8084  1.4005
  373TIP3   OH222609   3.053   5.467   4.851  0.8257  0.3040 -0.4655
  373TIP3    H122610   3.037   5.478   4.944 -1.2872  1.5088 -0.9406
  373TIP3    H222611   2.990   5.400   4.823 -0.3291  1.7537 -1.4667
  374TIP3   OH222612   2.715   4.925   3.702  0.1294  0.1160 -0.4341
  374TIP3    H122613   2.660   4.980   3.759  0.8677  0.2540  0.1556
  374TIP3    H222614   2.793   4.907   3.755  1.6682  1.7514 -2.0824
  375TIP3   OH222615   2.996   0.871   6.330 -0.1681  0.0542  0.1758
  375TIP3    H122616   3.017   0.923   6.407 -0.5329  1.1616 -0.4537
  375TIP3    H222617   2.926   0.920   6.286 -0.4711 -0.9305 -0.4721
  376TIP3   OH222618   2.866   3.128  15.309  0.5489  0.7539 -0.3294
  376TIP3    H122619   2.894   3.036  15.308 -0.2444  0.5116 -0.5542
  376TIP3    H222620   2.839   3.144  15.399  1.5648  1.0349 -0.0741
  377TIP3   OH222621   0.427   0.390  15.403 -0.3997  0.0521  0.4292
  377TIP3    H122622   0.522   0.383  15.401 -0.3741  0.3303  0.6369
  377TIP3    H222623   0.397   0.300  15.414 -0.2572 -0.4101 -2.4481
  378TIP3   OH222624   4.859   3.629  15.082 -0.9193 -0.1962  0.4962
  378TIP3    H122625   4.840   3.561  15.018  0.3325 -0.9312  0.8843
  378TIP3    H222626   4.832   3.710  15.040 -0.9445 -0.7680 -0.5929
  379TIP3   OH222627   4.076   3.297   4.033  0.0135  0.4234 -0.0870
  379TIP3    H122628   3.996   3.276   3.986 -0.4182  0.6031  0.5538
  379TIP3    H222629   4.059   3.270   4.123  1.2292 -0.9138 -0.2429
  380TIP3   OH222630   1.328   0.462   0.355  0.4943 -0.2959 -0.0407
  380TIP3    H122631   1.378   0.453   0.435  1.5402 -1.7218 -0.8305
  380TIP3    H222632   1.369   0.535   0.308  0.2013  0.2056  0.4782
  381TIP3   OH222633   2.359   2.947   3.338 -0.0783  0.0908  0.2090
  381TIP3    H122634   2.395   3.016   3.282 -0.2033 -0.0803 -0.0813
  381TIP3    H222635   2.397   2.965   3.424  1.8631 -0.9480 -0.4156
  382TIP3   OH222636   0.160   3.828  12.710 -1.0169 -0.1952 -0.0828
  382TIP3    H122637   0.256   3.834  12.708 -1.0265  1.5794  2.8452
  382TIP3    H222638   0.143   3.739  12.740 -0.3691 -1.3708 -3.0046
  383TIP3   OH222639   4.142   1.656   0.090  0.3581  0.2703  0.0765
  383TIP3    H122640   4.077   1.700   0.035 -1.6039 -0.5472  1.6678
  383TIP3    H222641   4.158   1.717   0.162  1.2902  0.4178 -0.2479
  384TIP3   OH222642   3.271   4.869   0.467  0.3613  0.3084  0.4473
  384TIP3    H122643   3.194   4.819   0.492  1.5236 -0.8191  1.8867
  384TIP3    H222644   3.261   4.884   0.373 -1.9261  0.7806  0.7388
  385TIP3   OH222645   1.354   4.748  16.974  0.1027  0.2128  0.1792
  385TIP3    H122646   1.288   4.689  17.010  0.9088 -0.8880 -0.1120
  385TIP3    H222647   1.370   4.714  16.885  0.1622  1.2123 -0.1997
  386TIP3   OH222648   2.356   3.181   0.020 -0.4464  0.0259  0.4530
  386TIP3    H122649   2.354   3.265   0.067 -0.5399 -0.5968  1.5753
  386TIP3    H222650   2.329   3.116   0.085  0.2709 -0.9687 -0.2275
  387TIP3   OH222651   2.912   1.629  16.948 -0.4723 -0.8553  0.3005
  387TIP3    H122652   2.920   1.698  16.881  2.1302 -0.5888  0.8392
  387TIP3    H222653   2.884   1.676  17.027  0.7021 -0.5124  0.5108
  388TIP3   OH222654   6.221   0.293   1.448  0.5185 -0.3498  0.2122
  388TIP3    H122655   6.213   0.304   1.543 -1.8868 -1.2921  0.1358
  388TIP3    H222656   6.197   0.202   1.431 -0.1805  0.1157 -1.4316
  389TIP3   OH222657   3.286   3.065   3.576  0.2250  0.2575  0.0373
  389TIP3    H122658   3.339   3.078   3.498  1.5147 -2.0765  0.5034
  389TIP3    H222659   3.347   3.079   3.649 -0.1900 -0.8157  0.5932
  390TIP3   OH222660   6.784   0.545   2.530  0.1697 -0.4764  0.1403
  390TIP3    H122661   6.757   0.600   2.603  2.1849  1.2214 -0.3287
  390TIP3    H222662   6.736   0.579   2.455 -1.0651 -1.5069  0.4494
  391TIP3   OH222663   2.218   0.246  11.439 -0.1393 -0.4381  0.4337
  391TIP3    H122664   2.238   0.224  11.530  0.1713 -0.5183  0.3478
  391TIP3    H222665   2.174   0.169  11.404 -0.7593 -0.1927  0.6742
  392TIP3   OH222666   0.845   5.463  17.055  0.4932  0.9027 -0.0414
  392TIP3    H122667   0.794   5.483  16.977 -1.0132 -2.0720  0.0781
  392TIP3    H222668   0.794   5.501  17.127 -0.4362 -0.1434 -0.1295
  393TIP3   OH222669   5.649   0.869   4.510 -0.0909 -0.0620  0.3495
  393TIP3    H122670   5.708   0.798   4.484 -0.2512 -0.5266  1.2233
  393TIP3    H222671   5.625   0.912   4.428  1.2386 -0.0520 -0.0416
  394TIP3   OH222672   2.545   6.193   4.005  0.0542  0.2158 -0.6282
  394TIP3    H122673   2.605   6.262   4.036 -0.9384  0.7576  0.1030
  394TIP3    H222674   2.470   6.240   3.970 -0.4472 -0.4860 -0.5056
  395TIP3   OH222675   4.354   0.776  15.286 -0.2129 -0.3264 -0.0031
  395TIP3    H122676   4.344   0.700  15.229  1.1938 -0.4152 -0.1260
  395TIP3    H222677   4.264   0.801  15.308 -0.6738 -2.5392  0.7102
  396TIP3   OH222678   2.212   4.615   5.358 -1.2040 -0.1273  0.2730
  396TIP3    H122679   2.129   4.602   5.311 -1.5661  0.0107  0.8671
  396TIP3    H222680   2.199   4.571   5.442 -1.9913  2.8982  1.8216
  397TIP3   OH222681   0.324   5.328   0.544 -0.2424  0.3494 -0.5117
  397TIP3    H122682   0.342   5.243   0.503  1.1571  0.6430 -0.5214
  397TIP3    H222683   0.407   5.375   0.540 -0.3519  0.7957  1.7151
  398TIP3   OH222684   4.972   4.739  15.439  0.1575 -0.2124  0.4030
  398TIP3    H122685   4.908   4.672  15.460  1.1578 -0.9902  1.0225
  398TIP3    H222686   5.052   4.691  15.419  0.5478  0.7426 -0.4303
  399TIP3   OH222687   1.362   4.142   1.597  0.0931 -0.2353 -0.0674
  399TIP3    H122688   1.270   4.116   1.604  0.2456 -0.3755  1.4171
  399TIP3    H222689   1.359   4.229   1.557 -0.7718  0.5624  1.7154
  400TIP3   OH222690   1.819   3.771  11.667 -0.0149  0.3883  0.5566
  400TIP3    H122691   1.901   3.765  11.618 -0.1426 -0.5510  0.4465
  400TIP3    H222692   1.755   3.725  11.613 -0.5477  0.8495  0.7882
  401TIP3   OH222693   1.077   4.005  13.862 -0.2059  0.0038 -0.6542
  401TIP3    H122694   1.102   4.097  13.861 -1.6722  0.4193 -0.1995
  401TIP3    H222695   1.130   3.966  13.932  0.7962  0.3670 -1.1914
  402TIP3   OH222696   6.184   2.206  11.599 -0.4794  0.0083  0.3952
  402TIP3    H122697   6.201   2.136  11.662 -1.1958  0.6256  1.2981
  402TIP3    H222698   6.270   2.232  11.567 -0.1502 -0.6641  0.7291
  403TIP3   OH222699   6.774   4.906  14.155 -0.3699  0.6012  0.0375
  403TIP3    H122700   6.798   4.975  14.218 -3.8103  0.4118  1.6549
  403TIP3    H222701   6.726   4.842  14.207 -0.4105 -1.2200 -2.1747
  404TIP3   OH222702   5.697   5.715  15.715  0.6569  0.1800  0.2706
  404TIP3    H122703   5.731   5.695  15.627  0.5224  0.7545  0.0905
  404TIP3    H222704   5.763   5.678  15.774  1.5131  1.1225 -0.0834
  405TIP3   OH222705   5.613   5.381   3.410  0.1833 -0.5938 -0.3709
  405TIP3    H122706   5.680   5.317   3.435  0.1813 -0.1603  0.7802
  405TIP3    H222707   5.559   5.390   3.489 -1.6411 -1.4427 -1.4987
  406TIP3   OH222708   0.957   6.633  14.074  1.0517 -0.0489 -0.1340
  406TIP3    H122709   1.049   6.625  14.049  0.8376  1.0715 -1.3222
  406TIP3    H222710   0.912   6.563  14.026  1.1551 -0.0638 -0.2098
  407TIP3   OH222711   5.945   6.233  12.015  0.0695  0.0796  0.2559
  407TIP3    H122712   5.929   6.327  12.008 -1.0514 -0.0252  1.2392
  407TIP3    H222713   5.976   6.207  11.928 -2.7367  0.7731 -0.9926
  408TIP3   OH222714   2.344   5.998  15.023  0.0715  0.2965  0.2343
  408TIP3    H122715   2.352   6.022  15.115 -1.2879  0.3846  0.3392
  408TIP3    H222716   2.377   6.075  14.976  1.2083  0.0649  0.6483
  409TIP3   OH222717   0.532   2.403  16.825 -0.1810  0.5985 -0.8657
  409TIP3    H122718   0.541   2.456  16.904  0.1748 -0.0784 -0.4385
  409TIP3    H222719   0.608   2.427  16.772  2.2587 -2.3527  1.0754
  410TIP3   OH222720   4.038   6.198  17.138 -0.0791  0.2448 -0.5509
  410TIP3    H122721   4.068   6.169  17.052 -0.9042  1.7407 -1.3542
  410TIP3    H222722   4.053   6.292  17.138 -0.4303  0.3096  0.8136
  411TIP3   OH222723   5.314   0.774  13.826 -0.3822  0.0160 -0.1100
  411TIP3    H122724   5.367   0.853  13.836 -1.6802  0.7495  1.2446
  411TIP3    H222725   5.277   0.781  13.738  2.0786 -0.7339 -1.2460
  412TIP3   OH222726   1.128   1.338   3.457 -0.2176  0.8175 -0.4855
  412TIP3    H122727   1.061   1.395   3.420 -0.4900 -0.0909 -1.4066
  412TIP3    H222728   1.102   1.250   3.430  1.2515  0.4431 -0.7060
  413TIP3   OH222729   4.049   3.244   6.233 -0.4474  0.2907 -0.5095
  413TIP3    H122730   4.029   3.221   6.323  0.9973 -1.1336 -0.5336
  413TIP3    H222731   4.123   3.304   6.239  0.6667 -1.0433 -0.8191
  414TIP3   OH222732   6.783   6.184   3.905  0.1180  0.0241 -0.1055
  414TIP3    H122733   6.819   6.217   3.987  0.3644 -0.2545 -0.0988
  414TIP3    H222734   6.795   6.089   3.910  2.0568  0.1801 -1.3665
  415TIP3   OH222735   1.852   2.261   6.589 -0.0228 -0.3602 -0.3771
  415TIP3    H122736   1.784   2.194   6.598 -0.3817  0.1370  0.6858
  415TIP3    H222737   1.933   2.215   6.612  0.0746 -1.0568 -2.0352
  416TIP3   OH222738   5.468   1.303  12.766  0.1419 -0.0196 -0.0310
  416TIP3    H122739   5.398   1.351  12.810  0.2728  0.7385 -0.6457
  416TIP3    H222740   5.546   1.356  12.780  0.5819 -0.8257  0.5886
  417TIP3   OH222741   0.759   4.695   5.450  0.1483  0.5544 -0.5204
  417TIP3    H122742   0.722   4.617   5.490 -0.3753 -0.4827 -2.9229
  417TIP3    H222743   0.685   4.737   5.406  0.9851  0.8242 -1.6837
  418TIP3   OH222744   6.317   5.223  12.430 -0.1871  0.0174 -0.2368
  418TIP3    H122745   6.318   5.131  12.458  1.3221 -0.1636 -0.8220
  418TIP3    H222746   6.399   5.259  12.466 -0.3296  0.8998 -0.7873
  419TIP3   OH222747   0.153   4.198  15.629  0.6747  0.4084 -0.1693
  419TIP3    H122748   0.100   4.223  15.554 -1.5427  0.6933  1.4596
  419TIP3    H222749   0.123   4.253  15.701  0.3662 -2.1894  1.7929
  420TIP3   OH222750   6.046   3.536   3.460 -0.6197  0.0427  0.3146
  420TIP3    H122751   6.114   3.548   3.394  1.1926 -4.1165  1.2620
  420TIP3    H222752   5.973   3.496   3.412 -0.0513 -1.1269  0.3956
  421TIP3   OH222753   3.775   1.538  14.371  0.2988 -0.4679  0.1218
  421TIP3    H122754   3.839   1.471  14.347  0.4977 -0.3728  0.3864
  421TIP3    H222755   3.784   1.605  14.304  1.6648  0.3451  1.0953
  422TIP3   OH222756   0.482   1.007  14.833 -0.1747  0.3051  0.0141
  422TIP3    H122757   0.407   1.025  14.889 -0.6421 -0.5673 -0.3255
  422TIP3    H222758   0.481   1.077  14.768 -0.5648  0.4124  0.1387
  423TIP3   OH222759   4.746   1.830  11.752 -0.0779  0.2801  0.0509
  423TIP3    H122760   4.694   1.900  11.712 -0.3343 -0.4813 -0.9863
  423TIP3    H222761   4.765   1.771  11.679  0.6969 -0.3884  0.7893
  424TIP3   OH222762   3.723   2.782   3.787  0.4684  0.6402 -0.0266
  424TIP3    H122763   3.797   2.778   3.848 -1.1377 -0.6008  1.9021
  424TIP3    H222764   3.690   2.692   3.784  0.0734  0.8391 -2.1952
  425TIP3   OH222765   6.691   3.148  14.039  0.7957  0.0046  0.1077
  425TIP3    H122766   6.697   3.243  14.041 -0.7170  0.1283 -0.3355
  425TIP3    H222767   6.605   3.130  14.000  1.3684 -1.5440 -0.4957
  426TIP3   OH222768   3.209   0.408  15.658 -0.0197 -0.3370 -0.0582
  426TIP3    H122769   3.263   0.344  15.705 -1.3002 -0.9600  0.5708
  426TIP3    H222770   3.217   0.383  15.566  0.6646 -0.4907  0.0368
  427TIP3   OH222771   2.024   5.197   2.200 -0.1416 -0.0833 -0.2179
  427TIP3    H122772   1.988   5.176   2.115 -0.0273 -0.4405 -0.1776
  427TIP3    H222773   2.013   5.292   2.208  0.0996 -0.0058 -0.7477
  428TIP3   OH222774   0.739   3.595   0.591  0.3512 -0.2111 -0.6454
  428TIP3    H122775   0.768   3.672   0.542  0.6600  0.6521  0.8317
  428TIP3    H222776   0.728   3.627   0.681 -2.3567 -1.2313 -0.5763
  429TIP3   OH222777   2.332   4.779   4.199  0.0816 -0.7287 -0.3911
  429TIP3    H122778   2.239   4.785   4.175 -0.3083 -3.2026  0.3364
  429TIP3    H222779   2.331   4.745   4.289  1.6753  1.2184  0.4169
  430TIP3   OH222780   0.557   2.998   6.190  0.5469 -0.2232 -0.0155
  430TIP3    H122781   0.517   3.078   6.224 -1.4495  0.0686 -2.8382
  430TIP3    H222782   0.649   3.019   6.181  0.3037  1.2314  0.7635
  431TIP3   OH222783   2.408   3.427   2.052  0.4487  0.3049 -0.0014
  431TIP3    H122784   2.362   3.396   1.974  0.0101 -1.4671  0.9244
  431TIP3    H222785   2.342   3.478   2.099 -0.4940 -1.8672  1.1065
  432TIP3   OH222786   3.272   2.518  16.406  0.1572  0.1361  0.0476
  432TIP3    H122787   3.257   2.427  16.382 -0.4552 -0.3168  2.0886
  432TIP3    H222788   3.186   2.551  16.432  0.6474  0.8524  0.7942
  433TIP3   OH222789   2.092   1.573  15.348  0.5690  0.1602  0.1341
  433TIP3    H122790   2.076   1.616  15.264  0.8960  0.8094  0.3917
  433TIP3    H222791   2.019   1.601  15.404 -0.7019 -1.8318 -0.4948
  434TIP3   OH222792   4.805   0.780  16.027  0.1776 -0.1075  0.2748
  434TIP3    H122793   4.877   0.727  15.992  0.3994 -1.1430  2.1882
  434TIP3    H222794   4.843   0.866  16.043  0.6261 -0.2419 -0.0703
  435TIP3   OH222795   0.461   2.275  11.891 -0.0968 -0.0397  0.1249
  435TIP3    H122796   0.511   2.278  11.810 -2.8958 -0.1081 -1.6774
  435TIP3    H222797   0.482   2.358  11.935  0.0977  0.8279 -1.5414
  436TIP3   OH222798   2.559   0.105   2.459 -0.1017  0.2431 -0.0278
  436TIP3    H122799   2.581   0.017   2.488  0.4441  0.0716 -0.9240
  436TIP3    H222800   2.598   0.112   2.372 -0.9695  1.0315 -0.3669
  437TIP3   OH222801   1.341   2.297  16.776  0.2306  0.0811  0.0906
  437TIP3    H122802   1.344   2.248  16.694  0.2675  0.7496 -0.3085
  437TIP3    H222803   1.373   2.235  16.842  2.8172  0.4033 -0.8095
  438TIP3   OH222804   3.020   3.165   3.563  0.2800  0.3451  0.7079
  438TIP3    H122805   2.978   3.090   3.521 -0.8728  0.2978  1.9190
  438TIP3    H222806   3.114   3.150   3.551  0.0184 -0.4667 -0.4413
  439TIP3   OH222807   2.923   0.552   1.929  0.5212 -0.2459  0.0252
  439TIP3    H122808   2.913   0.542   2.024 -1.2872 -1.1152 -0.2265
  439TIP3    H222809   2.926   0.462   1.896  2.4913  0.0416 -0.6474
  440TIP3   OH222810   0.591   0.930   4.927 -0.1587 -0.4373 -0.1543
  440TIP3    H122811   0.597   0.926   5.022 -3.5249  0.8067  0.1662
  440TIP3    H222812   0.600   0.839   4.899  2.5056 -0.6249  1.1970
  441TIP3   OH222813   2.785   5.285   5.325  0.1263 -0.3397  0.1001
  441TIP3    H122814   2.692   5.282   5.304  0.0716  0.1393  0.2727
  441TIP3    H222815   2.829   5.301   5.242  0.0185 -0.0537  0.0977
  442TIP3   OH222816   3.029   2.611  17.067 -0.1751  0.2076 -0.4163
  442TIP3    H122817   3.015   2.529  17.021  0.8419  0.7979 -1.7999
  442TIP3    H222818   2.995   2.678  17.008 -0.3828  0.8361  0.4071
  443TIP3   OH222819   5.021   5.269  12.935 -0.3815  0.1127  0.1384
  443TIP3    H122820   5.012   5.225  13.020  2.0723  2.3876  1.6630
  443TIP3    H222821   5.100   5.231  12.897  0.2037  1.2111  0.2390
  444TIP3   OH222822   4.548   5.125   3.878 -0.5939  0.4431  0.5107
  444TIP3    H122823   4.630   5.120   3.829 -1.1690  0.4640 -0.4937
  444TIP3    H222824   4.489   5.175   3.820 -2.0976 -1.7711  0.0340
  445TIP3   OH222825   3.886   5.516  16.163 -0.3906 -0.2810  0.0254
  445TIP3    H122826   3.962   5.506  16.220 -0.3961  1.6326  0.4005
  445TIP3    H222827   3.815   5.542  16.222 -0.5055  1.2912 -0.7702
  446TIP3   OH222828   2.942   2.397  11.613  0.8797  0.0034  1.3220
  446TIP3    H122829   2.955   2.490  11.626 -0.6113  0.2024  1.4843
  446TIP3    H222830   2.970   2.381  11.523  0.2878  0.7839  0.9932
  447TIP3   OH222831   2.895   1.119  16.271 -0.4502 -0.1598 -0.1525
  447TIP3    H122832   2.963   1.052  16.278  1.3382  1.6005 -0.3198
  447TIP3    H222833   2.868   1.116  16.179 -0.0578 -0.3363 -0.2602
  448TIP3   OH222834   6.452   2.027   5.623 -0.3654 -0.2306  0.3150
  448TIP3    H122835   6.389   2.070   5.564 -0.1438 -0.2722  0.0437
  448TIP3    H222836   6.537   2.044   5.582 -0.2804 -0.9557  0.1885
  449TIP3   OH222837   5.669   5.393  10.714  0.2129 -0.1230  0.0813
  449TIP3    H122838   5.721   5.342  10.776 -1.3530 -1.6539  0.2002
  449TIP3    H222839   5.715   5.476  10.705  1.5088 -0.6384  1.7908
  450TIP3   OH222840   0.441   4.643   0.709 -0.6574  0.0490 -0.1695
  450TIP3    H122841   0.349   4.669   0.714 -0.3770  1.1836 -0.8573
  450TIP3    H222842   0.446   4.585   0.633 -1.1230 -1.3964  0.8786
  451TIP3   OH222843   2.499   0.830   5.519  0.5007 -0.1885  0.4021
  451TIP3    H122844   2.493   0.783   5.602 -0.7786 -0.2682  0.2792
  451TIP3    H222845   2.431   0.897   5.524  1.5201  0.8875  0.0913
  452TIP3   OH222846   1.148   5.311  12.261 -0.2052  0.0691  0.4597
  452TIP3    H122847   1.181   5.377  12.200 -2.3561  0.6404 -0.1296
  452TIP3    H222848   1.172   5.344  12.348  1.1238  0.2318  0.0485
  453TIP3   OH222849   0.941   1.382  16.242 -0.0334  0.2080  0.3552
  453TIP3    H122850   0.876   1.337  16.296 -0.0169 -1.3297 -0.8756
  453TIP3    H222851   0.942   1.334  16.159  1.3074  1.3685 -0.3398
  454TIP3   OH222852   3.959   3.420  12.892  0.3593  0.0111  0.8363
  454TIP3    H122853   3.919   3.507  12.883 -4.4844 -2.0646  0.5905
  454TIP3    H222854   3.996   3.401  12.806  1.2002  1.6520  0.8124
  455TIP3   OH222855   0.785   4.809   4.264  0.1642 -0.3487 -0.2697
  455TIP3    H122856   0.731   4.855   4.329  0.6947 -0.4345  0.2320
  455TIP3    H222857   0.824   4.736   4.312  3.0709  1.3960  0.1382
  456TIP3   OH222858   4.325   0.576   5.724 -0.0969 -0.1265  0.2744
  456TIP3    H122859   4.397   0.569   5.786 -0.1701 -0.6328  0.3037
  456TIP3    H222860   4.296   0.486   5.710  0.0295 -0.0306 -0.6294
  457TIP3   OH222861   4.990   0.996  16.038 -0.3015 -0.0788  0.7142
  457TIP3    H122862   5.069   0.983  15.984 -1.3366  1.0147 -1.0922
  457TIP3    H222863   5.023   1.030  16.121  1.0836  1.0323 -0.2743
  458TIP3   OH222864   0.203   4.396  15.395 -0.5113 -0.4764 -0.0806
  458TIP3    H122865   0.293   4.401  15.428  0.0278 -2.3471 -1.1963
  458TIP3    H222866   0.212   4.404  15.300 -1.8475  2.5425  0.0056
  459TIP3   OH222867   4.459   5.318  12.096 -0.1403  0.4468 -0.3718
  459TIP3    H122868   4.413   5.354  12.172  0.2240 -0.4656  0.2888
  459TIP3    H222869   4.497   5.395  12.053 -0.1467  0.9471  0.4994
  460TIP3   OH222870   3.251   5.009   4.388 -0.1596 -0.7445  0.6271
  460TIP3    H122871   3.161   5.018   4.355  0.3835 -3.1722 -1.6165
  460TIP3    H222872   3.305   5.057   4.325  0.0605  1.8460  2.6833
  461TIP3   OH222873   4.412   0.691  14.764  0.5646 -0.1318  0.4996
  461TIP3    H122874   4.449   0.677  14.852 -1.1501 -1.0516  1.0988
  461TIP3    H222875   4.327   0.734  14.781  0.5424  0.3234 -0.7532
  462TIP3   OH222876   1.025   2.651  15.286 -0.0667  0.1543  0.1219
  462TIP3    H122877   1.095   2.714  15.267 -0.3705 -0.2101 -2.3060
  462TIP3    H222878   0.995   2.675  15.374  0.4942  2.7817 -0.3570
  463TIP3   OH222879   4.604   2.468  17.038  0.0887  0.4149 -0.0208
  463TIP3    H122880   4.588   2.387  16.991  0.5352  1.2993 -1.7541
  463TIP3    H222881   4.696   2.488  17.021  0.0423  1.1572  0.5763
  464TIP3   OH222882   3.447   1.793  16.519  0.2763  0.4788  0.0051
  464TIP3    H122883   3.369   1.815  16.570 -0.2305  1.5730 -1.2121
  464TIP3    H222884   3.412   1.757  16.437  1.0366  1.2623 -0.6700
  465TIP3   OH222885   6.472   2.570  14.632  0.2802  0.2527  0.6170
  465TIP3    H122886   6.548   2.580  14.575  1.0065  0.9386  1.7004
  465TIP3    H222887   6.467   2.476  14.649 -0.8464 -0.1749 -1.7871
  466TIP3   OH222888   4.609   1.793  17.210  0.5015  0.8785 -0.4464
  466TIP3    H122889   4.530   1.841  17.237  0.0330 -0.2901  0.3077
  466TIP3    H222890   4.655   1.774  17.291  1.0621  0.7067 -0.8020
  467TIP3   OH222891   3.230   4.238  14.099  0.3922 -0.0496  0.1090
  467TIP3    H122892   3.266   4.290  14.027  0.9875 -1.5732 -0.7258
  467TIP3    H222893   3.282   4.157  14.098 -1.6249 -1.3666  0.2918
  468TIP3   OH222894   5.713   6.380   0.366  0.3880  0.0646 -0.1286
  468TIP3    H122895   5.663   6.384   0.447 -1.0683  1.3972 -1.0629
  468TIP3    H222896   5.749   6.291   0.364 -1.1711 -0.6052  1.0053
  469TIP3   OH222897   4.250   6.179   1.289 -0.1136 -0.0553 -0.1436
  469TIP3    H122898   4.275   6.261   1.331  0.2953  0.0249 -0.5394
  469TIP3    H222899   4.239   6.118   1.361  0.7891  0.0239  0.0739
  470TIP3   OH222900   1.782   4.007  14.195 -0.5148 -0.4416 -0.1087
  470TIP3    H122901   1.849   4.019  14.127 -1.0413 -1.2002 -0.7798
  470TIP3    H222902   1.708   4.060  14.165 -0.2000  0.4296  0.6508
  471TIP3   OH222903   5.024   2.379  13.558 -0.3946  0.3921 -0.4075
  471TIP3    H122904   4.931   2.374  13.581 -0.0834  0.5512  0.9644
  471TIP3    H222905   5.059   2.293  13.580 -0.1265  0.4883 -0.4613
  472TIP3   OH222906   3.613   1.391  15.868 -0.1896 -0.1969 -0.3111
  472TIP3    H122907   3.600   1.485  15.885  1.8212  0.4370 -1.9794
  472TIP3    H222908   3.527   1.352  15.880 -0.9112  1.7595  1.1144
  473TIP3   OH222909   4.947   1.715   4.934  0.0893  0.5797  0.4402
  473TIP3    H122910   4.956   1.666   4.853 -0.2116 -0.9349  1.3021
  473TIP3    H222911   4.897   1.793   4.910 -1.3784 -0.6342 -0.5193
  474TIP3   OH222912   2.516   5.947  14.585  0.5226 -0.2192  0.2495
  474TIP3    H122913   2.611   5.954  14.581  0.5595 -0.8541 -0.0258
  474TIP3    H222914   2.488   5.962  14.494  0.3543  0.0384  0.3443
  475TIP3   OH222915   5.911   4.583   3.343 -0.4164 -0.8298  0.2495
  475TIP3    H122916   5.976   4.614   3.280 -1.2187 -0.6546 -0.4971
  475TIP3    H222917   5.930   4.490   3.354  0.0881 -0.7348  0.1874
  476TIP3   OH222918   3.974   0.965   3.261  0.0442 -0.3317  0.1911
  476TIP3    H122919   3.949   0.878   3.227  1.3915 -0.3629 -0.7571
  476TIP3    H222920   3.959   0.959   3.355 -2.7535 -0.6086 -0.2153
  477TIP3   OH222921   1.414   1.598  17.097  0.1073  0.1559  0.0688
  477TIP3    H122922   1.474   1.638  17.034 -1.6212  0.4542 -1.4273
  477TIP3    H222923   1.392   1.513  17.059 -1.1395  0.4348  0.1554
  478TIP3   OH222924   6.302   5.800   2.815  0.1690  0.0390  0.0900
  478TIP3    H122925   6.256   5.853   2.750 -1.0313 -0.8663  0.1573
  478TIP3    H222926   6.237   5.735   2.842  1.8430 -2.0080 -0.6395
  479TIP3   OH222927   5.639   6.506   5.152 -0.3129  0.4630 -0.1944
  479TIP3    H122928   5.598   6.488   5.237 -0.4246  1.1193 -0.1008
  479TIP3    H222929   5.732   6.512   5.172 -0.2368 -0.3839 -0.2934
  480TIP3   OH222930   3.896   3.007  16.105 -0.4815  0.3768  0.2612
  480TIP3    H122931   3.844   2.982  16.182 -1.0010 -0.8049 -0.4631
  480TIP3    H222932   3.961   2.938  16.095  0.7706  1.4582  0.7034
  481TIP3   OH222933   6.282   4.556   3.675 -0.0566 -0.3623  0.1042
  481TIP3    H122934   6.369   4.576   3.641 -0.4908  0.9183 -0.2954
  481TIP3    H222935   6.222   4.578   3.603 -0.8268  0.4200  0.9663
  482TIP3   OH222936   4.914   4.252   1.244  0.0373  1.0376  0.7044
  482TIP3    H122937   4.832   4.212   1.215  0.1884  0.4417  1.0881
  482TIP3    H222938   4.887   4.331   1.290 -0.3982  0.2961  1.7569
  483TIP3   OH222939   4.894   3.292  15.982 -0.0502  0.0792  0.7951
  483TIP3    H122940   4.943   3.338  16.050  0.3006  0.1894  0.4701
  483TIP3    H222941   4.822   3.250  16.029 -0.8315  1.5948  1.0027
  484TIP3   OH222942   0.621   2.685   0.195  0.6358 -0.1732  0.2652
  484TIP3    H122943   0.570   2.706   0.117  0.9791  1.9989  0.5666
  484TIP3    H222944   0.575   2.730   0.266  1.6910 -0.0691  0.8926
  485TIP3   OH222945   5.437   5.521  17.029  0.1320 -0.0063  0.3921
  485TIP3    H122946   5.367   5.478  16.980 -1.2153  2.6187 -0.0936
  485TIP3    H222947   5.491   5.563  16.962  1.7033 -1.2802  0.8251
  486TIP3   OH222948   5.092   6.259   1.739  0.3616  0.0019 -0.0696
  486TIP3    H122949   4.997   6.268   1.738  0.0730 -2.9472 -2.0039
  486TIP3    H222950   5.111   6.206   1.817  0.1604 -1.8266 -1.2471
  487TIP3   OH222951   3.721   4.863   5.478 -0.2039 -0.0404  0.2071
  487TIP3    H122952   3.797   4.886   5.425 -0.7744 -1.0871 -1.0776
  487TIP3    H222953   3.756   4.851   5.567  0.8524  1.0742 -0.0573
  488TIP3   OH222954   2.664   0.059   0.954  0.0672 -0.6655 -0.4555
  488TIP3    H122955   2.696   0.047   1.043 -1.6530 -0.5649  0.1773
  488TIP3    H222956   2.571   0.038   0.958 -0.2425  0.3398 -2.0192
  489TIP3   OH222957   1.554   4.864  10.739  0.4298  0.1044 -0.0612
  489TIP3    H122958   1.628   4.825  10.691  0.1620  0.4195 -0.7360
  489TIP3    H222959   1.490   4.794  10.746  0.0093  0.3673 -1.1482
  490TIP3   OH222960   0.884   2.600  12.350  0.1776 -0.5499  0.1902
  490TIP3    H122961   0.818   2.669  12.339  0.6142 -0.2485 -0.5591
  490TIP3    H222962   0.906   2.602  12.443  0.2890  0.4077  0.1454
  491TIP3   OH222963   3.225   5.523  12.712 -0.3461 -0.1251  0.0846
  491TIP3    H122964   3.184   5.562  12.635  1.9616 -0.2965 -1.2846
  491TIP3    H222965   3.153   5.486  12.761 -1.9214  0.3627 -1.7974
  492TIP3   OH222966   4.336   3.184  13.617 -0.0988 -0.1973  1.1027
  492TIP3    H122967   4.364   3.224  13.700 -1.3989  3.5653 -0.1745
  492TIP3    H222968   4.270   3.244  13.583  0.5413 -1.5767 -2.7822
  493TIP3   OH222969   0.307   3.126  12.559  0.0269  0.0886  0.3042
  493TIP3    H122970   0.344   3.155  12.475 -0.7963  1.2639  0.3325
  493TIP3    H222971   0.236   3.188  12.576 -0.1251 -0.4458  1.6373
  494TIP3   OH222972   6.520   3.501   3.300 -0.4643 -0.5776 -0.3079
  494TIP3    H122973   6.428   3.525   3.285 -0.4374 -0.2499  0.0464
  494TIP3    H222974   6.567   3.584   3.301 -0.0241 -0.8074 -1.4092
  495TIP3   OH222975   4.545   1.103  13.235  0.3290  0.1384 -0.4240
  495TIP3    H122976   4.489   1.180  13.238  1.8559  1.2481 -0.0961
  495TIP3    H222977   4.552   1.081  13.142 -0.3724  0.1907 -0.4895
  496TIP3   OH222978   3.999   2.171  12.462 -0.3744 -0.1882  0.5769
  496TIP3    H122979   3.904   2.164  12.457 -0.3943  1.1102 -2.4632
  496TIP3    H222980   4.020   2.246  12.406  2.2173  1.6472  3.8301
  497TIP3   OH222981   0.950   5.584   1.663 -0.2996  0.1357  0.2749
  497TIP3    H122982   0.964   5.649   1.594  1.3403  0.1387  0.5973
  497TIP3    H222983   0.868   5.610   1.704 -1.7948 -0.3893 -2.2459
  498TIP3   OH222984   1.254   6.028   4.085  0.1966  0.3619  0.2843
  498TIP3    H122985   1.266   6.016   4.180  1.7725 -1.3776 -0.0944
  498TIP3    H222986   1.331   6.077   4.057  1.2291 -1.6356 -0.5131
  499TIP3   OH222987   0.880   1.325  13.741 -0.0793  0.5166  0.3917
  499TIP3    H122988   0.807   1.284  13.788  0.6182 -0.4440  0.6737
  499TIP3    H222989   0.943   1.253  13.728  0.6902  1.2644 -0.0849
  500TIP3   OH222990   6.338   2.272   4.238  0.6907  0.4308 -0.1418
  500TIP3    H122991   6.427   2.306   4.230  0.5298  0.9013  0.0629
  500TIP3    H222992   6.343   2.209   4.310  0.5466  1.5201  0.8418
  501TIP3   OH222993   1.488   5.741  15.018 -0.1836  0.4149 -0.2603
  501TIP3    H122994   1.566   5.797  15.018  0.2615 -0.1945 -0.2403
  501TIP3    H222995   1.507   5.674  14.953 -0.9750  0.6392 -0.7299
  502TIP3   OH222996   0.682   3.261   4.626  0.2712  0.3055 -0.2246
  502TIP3    H122997   0.621   3.311   4.680  0.4235  0.3188 -0.0630
  502TIP3    H222998   0.766   3.268   4.672  0.5872  1.0205 -0.9042
  503TIP3   OH222999   6.019   3.189   1.621 -0.0213 -0.0671 -0.2997
  503TIP3    H123000   6.106   3.219   1.645  0.1193 -0.0331 -0.8704
  503TIP3    H223001   5.998   3.236   1.541  0.6120 -2.2216 -1.7566
  504TIP3   OH223002   2.585   3.555  12.976 -0.0200  0.5862  0.0002
  504TIP3    H123003   2.603   3.461  12.979 -1.6645  0.2466 -0.0933
  504TIP3    H223004   2.569   3.578  13.068 -0.2013  0.6494 -0.0475
  505TIP3   OH223005   4.698   1.096   3.871 -0.3893  0.0926  0.0420
  505TIP3    H123006   4.649   1.066   3.795 -0.8624  0.2593  0.2793
  505TIP3    H223007   4.695   1.192   3.865 -0.3111  0.1051  0.1926
  506TIP3   OH223008   2.114   6.404   4.365 -0.0638 -0.4418 -0.3886
  506TIP3    H123009   2.170   6.421   4.290  0.4638  1.0493  0.3249
  506TIP3    H223010   2.041   6.465   4.355  0.1017 -0.1078  0.3912
  507TIP3   OH223011   5.252   3.125  14.145 -0.3800  1.1826 -0.3083
  507TIP3    H123012   5.318   3.193  14.138 -0.7742  1.3448 -3.2138
  507TIP3    H223013   5.179   3.167  14.191  0.7285  1.6074  1.1006
  508TIP3   OH223014   2.099   0.508  17.268 -0.0514  0.4558  0.2576
  508TIP3    H123015   2.121   0.508  17.175  1.3572 -0.0759  0.5778
  508TIP3    H223016   2.082   0.416  17.288 -1.2376  0.6845  0.3326
  509TIP3   OH223017   4.705   6.227   4.964 -0.6826  0.4743 -0.0460
  509TIP3    H123018   4.670   6.284   4.895  1.8715  1.3229 -0.6995
  509TIP3    H223019   4.742   6.153   4.918 -0.8883 -0.0210  0.5766
  510TIP3   OH223020   1.597   4.883  13.348 -1.2446  0.4418 -0.2001
  510TIP3    H123021   1.567   4.968  13.316 -0.5463  0.9184  0.4061
  510TIP3    H223022   1.522   4.847  13.396 -1.5763  0.6600 -0.5515
  511TIP3   OH223023   2.769   2.453   2.986  0.2976 -0.3188 -0.0797
  511TIP3    H123024   2.844   2.511   2.998  1.0367 -1.4498  0.7476
  511TIP3    H223025   2.709   2.476   3.057 -0.1639  0.5665 -0.7268
  512TIP3   OH223026   3.656   1.328  14.030  0.1542 -0.1248  0.0958
  512TIP3    H123027   3.693   1.281  14.105  0.9846 -0.6665 -0.6444
  512TIP3    H223028   3.701   1.413  14.032 -1.0970  0.5298  1.2332
  513TIP3   OH223029   3.790   3.981   0.530  0.0651  0.1181 -0.2043
  513TIP3    H123030   3.711   4.001   0.581  1.2826 -0.4655  1.9937
  513TIP3    H223031   3.764   3.910   0.471 -1.1827  0.2703  0.1530
  514TIP3   OH223032   4.710   6.013   5.452 -0.6030  0.2452 -0.0769
  514TIP3    H123033   4.771   5.940   5.444 -1.8339 -0.7775 -0.3245
  514TIP3    H223034   4.664   6.016   5.368 -1.1531  0.7705  0.2357
  515TIP3   OH223035   3.320   3.458  12.498  0.1435 -0.1101  0.5051
  515TIP3    H123036   3.315   3.501  12.413 -1.4447  0.2093  0.7369
  515TIP3    H223037   3.325   3.365  12.477  0.9191  0.0270  0.0512
  516TIP3   OH223038   3.959   5.255   4.908 -0.3227 -0.2026 -0.5523
  516TIP3    H123039   3.870   5.284   4.888  0.1217 -0.4300 -3.0437
  516TIP3    H223040   4.004   5.257   4.824  2.0375 -0.1235  0.6706
  517TIP3   OH223041   1.325   6.303   4.920  0.2969 -0.0933 -0.1556
  517TIP3    H123042   1.354   6.276   4.832  0.2171 -1.9579  0.3578
  517TIP3    H223043   1.286   6.223   4.957 -0.9358  1.0538  1.0544
  518TIP3   OH223044   6.016   6.042   4.183  0.3630 -0.0337 -0.3018
  518TIP3    H123045   6.101   6.033   4.226 -1.2121 -0.8672  2.8294
  518TIP3    H223046   5.995   5.955   4.151 -0.4129 -0.4138  1.1923
  519TIP3   OH223047   2.488   0.013  16.871 -0.4367  0.3797 -0.5313
  519TIP3    H123048   2.479  -0.006  16.964 -0.3044  1.1679 -0.3566
  519TIP3    H223049   2.399   0.033  16.841 -0.8207 -1.9393 -1.0454
  520TIP3   OH223050   2.359   1.237  12.273  0.1697  0.6904  0.3260
  520TIP3    H123051   2.348   1.248  12.178  0.2039  2.8839  0.5684
  520TIP3    H223052   2.391   1.321  12.304  1.5893 -0.4520  2.0980
  521TIP3   OH223053   2.928   6.291   5.618  0.2035  0.3999 -0.1070
  521TIP3    H123054   2.930   6.195   5.626  1.8610  0.4630  0.4868
  521TIP3    H223055   2.994   6.321   5.680 -0.3617  1.9426 -0.2400
  522TIP3   OH223056   5.093   1.405   5.966 -0.2287 -0.4275 -0.0355
  522TIP3    H123057   5.117   1.360   5.885 -0.0485 -1.8285  0.7917
  522TIP3    H223058   5.007   1.444   5.947  0.0886 -0.2203 -1.0971
  523TIP3   OH223059   4.776   4.358   2.971 -0.3730  0.0965 -0.0273
  523TIP3    H123060   4.774   4.352   3.066 -1.5346 -1.3364 -0.1302
  523TIP3    H223061   4.845   4.421   2.952 -1.1134  1.4824  1.8077
  524TIP3   OH223062   4.237   4.988  14.509 -0.1675 -0.3336 -0.0415
  524TIP3    H123063   4.192   5.066  14.476 -0.4295  0.6832  2.6003
  524TIP3    H223064   4.188   4.963  14.587  0.5833 -2.5044 -0.2317
  525TIP3   OH223065   5.346   2.126   3.425  0.3644  0.0086 -0.0442
  525TIP3    H123066   5.299   2.121   3.508  1.4579 -1.4825  0.5125
  525TIP3    H223067   5.287   2.085   3.362 -1.1246  2.4890 -0.3643
  526TIP3   OH223068   0.585   2.062   4.152  0.2647  0.5035 -0.5534
  526TIP3    H123069   0.623   2.100   4.074 -1.4756  2.5443 -0.4527
  526TIP3    H223070   0.494   2.042   4.128  0.1844 -0.3993  0.4323
  527TIP3   OH223071   4.455   0.815   1.616 -0.4297  0.2056 -0.1212
  527TIP3    H123072   4.412   0.868   1.683 -0.1340  1.2676 -0.7437
  527TIP3    H223073   4.486   0.738   1.663 -0.4691  0.7987  0.9156
  528TIP3   OH223074   6.694   5.979  11.753  0.0952  0.4931 -1.0684
  528TIP3    H123075   6.716   5.891  11.724  1.4550  0.0103  1.3368
  528TIP3    H223076   6.624   5.967  11.818 -0.3278  1.2626 -1.3670
  529TIP3   OH223077   3.233   1.487   2.440  0.2694 -0.5917  0.2145
  529TIP3    H123078   3.258   1.579   2.445  1.6822 -0.9029 -0.7511
  529TIP3    H223079   3.144   1.488   2.403  0.4509  0.3571 -0.2104
  530TIP3   OH223080   5.032   5.381   2.015  0.0147  0.3297  0.0249
  530TIP3    H123081   5.037   5.286   2.023  0.2502  0.5562  3.3907
  530TIP3    H223082   5.123   5.410   2.015 -0.0754  0.6184 -0.0226
  531TIP3   OH223083   2.170   3.541   5.215  0.2303 -0.0273 -0.6052
  531TIP3    H123084   2.236   3.502   5.271 -0.9380 -1.1793  0.0038
  531TIP3    H223085   2.219   3.581   5.143  1.5404 -1.2505 -0.3954
  532TIP3   OH223086   3.199   3.683   1.511  0.0374  0.4930  0.5052
  532TIP3    H123087   3.172   3.670   1.420  2.4200  0.3584 -0.2209
  532TIP3    H223088   3.207   3.594   1.546 -2.2925  0.5733  1.3117
  533TIP3   OH223089   6.168   5.408   4.542 -0.2921  0.2570 -1.0673
  533TIP3    H123090   6.086   5.458   4.549  0.6772  1.6239  0.9833
  533TIP3    H223091   6.169   5.377   4.451 -4.2809 -1.8962 -0.5243
  534TIP3   OH223092   5.164   2.498   1.293  0.0618 -0.3795 -0.1632
  534TIP3    H123093   5.223   2.472   1.222 -1.1116  0.1964 -1.3640
  534TIP3    H223094   5.163   2.422   1.352  3.6253  0.3440  1.0141
  535TIP3   OH223095   6.487   2.074  14.868 -0.0673  0.4448 -0.1473
  535TIP3    H123096   6.528   1.999  14.910  1.9751 -0.6331 -3.8024
  535TIP3    H223097   6.394   2.064  14.886  0.0940 -3.3296 -0.9770
  536TIP3   OH223098   1.022   4.010  14.766  0.8910  0.0064 -0.3268
  536TIP3    H123099   1.087   4.077  14.743  0.4569  1.1668  1.7630
  536TIP3    H223100   0.940   4.058  14.773  0.3275 -0.9740 -0.1028
  537TIP3   OH223101   0.371   5.993   0.374 -0.8861 -0.2755 -0.3968
  537TIP3    H123102   0.311   6.063   0.347 -0.3526  0.6321  0.7366
  537TIP3    H223103   0.458   6.026   0.355 -0.6324 -0.7070 -0.0036
  538TIP3   OH223104   2.064   1.286   5.340  0.5239  0.2241 -0.3560
  538TIP3    H123105   2.078   1.380   5.352 -0.0439  0.1323  1.2283
  538TIP3    H223106   2.017   1.259   5.419 -2.4813 -0.7396 -2.3860
  539TIP3   OH223107   6.117   3.822  12.137 -0.0508  0.1153 -0.2305
  539TIP3    H123108   6.127   3.757  12.207  1.0173  0.1966 -0.3068
  539TIP3    H223109   6.206   3.850  12.117 -0.4775  1.2982 -0.4949
  540TIP3   OH223110   1.941   5.125   3.176 -0.4335 -0.5279  0.3544
  540TIP3    H123111   1.932   5.220   3.174 -0.0735 -0.4559  1.8929
  540TIP3    H223112   1.876   5.094   3.112  0.0457  0.7669 -0.7907
  541TIP3   OH223113   5.209   0.484  13.685  0.2401 -0.4723 -0.6148
  541TIP3    H123114   5.184   0.577  13.684 -0.9139 -0.7739 -0.1736
  541TIP3    H223115   5.261   0.473  13.605  1.3618  0.8113 -0.1005
  542TIP3   OH223116   3.965   2.723   1.911 -0.3708 -0.4465 -0.3813
  542TIP3    H123117   4.037   2.719   1.973  0.4875 -2.2512 -1.4414
  542TIP3    H223118   3.923   2.807   1.928  2.2696  0.8637 -0.0616
  543TIP3   OH223119   4.022   1.923  15.326  0.4138 -0.0347 -0.1459
  543TIP3    H123120   3.970   1.986  15.276  1.1313 -0.8664 -1.9665
  543TIP3    H223121   3.994   1.838  15.294  3.0722 -0.5002 -1.3799
  544TIP3   OH223122   4.565   5.173  14.974 -0.0697 -0.6768  0.3967
  544TIP3    H123123   4.646   5.129  15.000  1.1081 -0.5954 -2.9373
  544TIP3    H223124   4.532   5.122  14.900 -0.8855  1.6029 -0.8799
  545TIP3   OH223125   5.731   1.004  10.955  0.2528  0.2391 -0.0934
  545TIP3    H123126   5.812   1.031  10.911 -0.1777  2.9009  0.6383
  545TIP3    H223127   5.672   0.980  10.884  1.5090 -1.2749 -0.6587
  546TIP3   OH223128   4.805   4.908   2.449  0.1696 -0.6286 -0.2952
  546TIP3    H123129   4.873   4.974   2.463 -0.4913 -0.2620  1.2775
  546TIP3    H223130   4.726   4.960   2.430  0.4086 -1.0539 -2.5832
  547TIP3   OH223131   3.309   2.908   1.673 -0.1018  0.1679  0.6656
  547TIP3    H123132   3.353   2.828   1.702  0.7730  0.2824 -0.3302
  547TIP3    H223133   3.261   2.881   1.595  0.5473  0.7219  0.0778
  548TIP3   OH223134   4.952   0.250  14.413  0.1668  0.5774  0.0626
  548TIP3    H123135   4.859   0.252  14.391  0.0510  1.7104  0.6037
  548TIP3    H223136   4.987   0.176  14.363 -0.8117  0.8026 -0.9789
  549TIP3   OH223137   0.111   1.249  14.033  0.0878  0.0622 -0.0605
  549TIP3    H123138   0.162   1.329  14.041 -1.7408  1.3286 -0.5928
  549TIP3    H223139   0.175   1.178  14.032  1.7798  1.5906 -0.5267
  550TIP3   OH223140   1.174   4.320   5.851  0.1366 -0.2109 -0.0607
  550TIP3    H123141   1.258   4.305   5.808  1.6898 -1.5386  3.2116
  550TIP3    H223142   1.115   4.255   5.814  1.8049 -2.2085  0.7156
  551TIP3   OH223143   6.165   5.862  15.831 -0.0989 -0.1693  0.5108
  551TIP3    H123144   6.155   5.869  15.736 -1.0990 -0.8362  0.5605
  551TIP3    H223145   6.255   5.831  15.843  0.4117  1.0453 -0.1608
  552TIP3   OH223146   4.186   2.633  15.092 -0.0247  0.0102  0.1209
  552TIP3    H123147   4.168   2.565  15.157  0.8888 -2.0104 -1.6541
  552TIP3    H223148   4.274   2.664  15.114 -0.4424  0.6401  0.9339
  553TIP3   OH223149   2.395   2.679  16.683  0.1933  0.3883  0.2262
  553TIP3    H123150   2.374   2.589  16.708 -1.0092  0.3177 -0.9581
  553TIP3    H223151   2.319   2.730  16.710  1.1527  1.1780  1.4948
  554TIP3   OH223152   3.269   1.610  12.292  0.1366  0.0795  1.0036
  554TIP3    H123153   3.203   1.614  12.361  0.5071 -0.6221  1.3937
  554TIP3    H223154   3.352   1.598  12.338  0.2625 -1.5474  0.3820
  555TIP3   OH223155   6.212   4.774   0.142  0.0312 -0.6269 -0.5231
  555TIP3    H123156   6.277   4.742   0.204  0.2718 -0.3520 -0.6314
  555TIP3    H223157   6.131   4.782   0.193  0.1895 -0.5493 -0.2837
  556TIP3   OH223158   3.134   6.173   2.094 -0.2001 -0.2909  0.2807
  556TIP3    H123159   3.221   6.205   2.117  0.3996 -2.3039  0.9315
  556TIP3    H223160   3.116   6.105   2.159 -2.0553 -0.2281 -0.1526
  557TIP3   OH223161   1.007   0.466   1.550 -0.6270  0.2636 -0.4503
  557TIP3    H123162   0.939   0.443   1.486  0.3642 -1.5218 -0.8986
  557TIP3    H223163   1.069   0.519   1.500 -0.1618 -0.6231 -0.8186
  558TIP3   OH223164   5.597   0.870   1.571  0.5862  0.5851  0.3163
  558TIP3    H123165   5.602   0.888   1.664  1.1982  0.5808  0.2815
  558TIP3    H223166   5.666   0.806   1.554  1.0251  1.2165 -0.2939
  559TIP3   OH223167   0.824   1.760  14.502 -0.2984  0.4085  0.2321
  559TIP3    H123168   0.798   1.719  14.585 -2.1148  1.4380  0.1893
  559TIP3    H223169   0.786   1.847  14.506  0.6372  0.8856 -1.1813
  560TIP3   OH223170   3.198   4.665  11.866  0.0190  0.0136 -0.3344
  560TIP3    H123171   3.113   4.629  11.840  0.2750 -0.1907 -0.8919
  560TIP3    H223172   3.176   4.747  11.910 -0.4046  0.4937 -1.4165
  561TIP3   OH223173   0.771   6.584  12.308 -0.6602 -0.0714 -0.4290
  561TIP3    H123174   0.814   6.614  12.228  0.3920 -0.2967  0.0371
  561TIP3    H223175   0.708   6.653  12.329 -1.0793 -0.1073 -1.5595
  562TIP3   OH223176   0.272   3.438  12.089 -0.9051  0.4142  0.6128
  562TIP3    H123177   0.285   3.523  12.131 -1.5140  0.5557  0.5105
  562TIP3    H223178   0.351   3.426  12.036  0.6794 -0.5393  3.0857
  563TIP3   OH223179   5.983   4.510  11.994 -0.3864 -0.4447 -0.3161
  563TIP3    H123180   5.902   4.555  11.970 -0.3453 -0.0016  0.3582
  563TIP3    H223181   6.033   4.575  12.041 -0.5447 -1.3407  1.1276
  564TIP3   OH223182   0.585   5.958   6.042 -0.4479 -0.3473  0.2618
  564TIP3    H123183   0.647   5.896   6.004 -0.0364  0.3119 -0.1617
  564TIP3    H223184   0.545   5.911   6.114  1.2309 -0.4814  1.1434
  565TIP3   OH223185   5.298   4.087  14.635  0.1984 -0.3311  0.0767
  565TIP3    H123186   5.371   4.123  14.685  0.8788 -1.4722 -0.0648
  565TIP3    H223187   5.338   4.019  14.580 -0.8419 -0.4111 -0.6026
  566TIP3   OH223188   1.522   0.244  11.665  0.4766  0.2366  0.2875
  566TIP3    H123189   1.534   0.251  11.760  0.5039  0.8742  0.2429
  566TIP3    H223190   1.448   0.302  11.646 -0.7302 -1.2986  0.1558
  567TIP3   OH223191   6.337   0.532  13.340 -0.6633 -1.0978 -0.2292
  567TIP3    H123192   6.243   0.538  13.327 -0.6294  2.1066  0.4604
  567TIP3    H223193   6.374   0.576  13.263  0.1951 -0.7225  0.3903
  568TIP3   OH223194   2.832   0.015   1.245 -0.3960  0.1821 -0.6439
  568TIP3    H123195   2.917   0.059   1.246 -0.8620  1.1610 -2.1313
  568TIP3    H223196   2.853  -0.077   1.263  0.7903  0.6854  0.6426
  569TIP3   OH223197   5.852   2.351  12.081  0.5393 -0.3600 -0.6723
  569TIP3    H123198   5.882   2.411  12.149 -0.0965 -0.5994 -0.1777
  569TIP3    H223199   5.926   2.347  12.019  0.3631  1.4008 -1.0386
  570TIP3   OH223200   1.666   2.629   1.792  0.4578  0.0620  1.0012
  570TIP3    H123201   1.708   2.685   1.858 -0.7724  2.0596  0.1374
  570TIP3    H223202   1.645   2.689   1.720  2.2905 -2.1666 -1.4782
  571TIP3   OH223203   2.239   6.423  16.195  0.1089 -0.2587 -0.4765
  571TIP3    H123204   2.266   6.498  16.248 -1.5798  0.7620 -1.0166
  571TIP3    H223205   2.237   6.349  16.256  2.4379 -0.0309 -0.0908
  572TIP3   OH223206   5.116   3.786  16.489  0.1080 -0.1798 -0.5869
  572TIP3    H123207   5.092   3.693  16.490 -0.0722 -0.1301 -0.1072
  572TIP3    H223208   5.035   3.831  16.513  1.0859 -0.1066  2.8705
  573TIP3   OH223209   3.820   0.991  13.736  0.2953 -0.2376 -0.5246
  573TIP3    H123210   3.874   0.939  13.796  1.6109 -0.2663 -1.7066
  573TIP3    H223211   3.840   1.082  13.758 -0.1990 -0.2379 -0.0629
  574TIP3   OH223212   0.302   0.865   5.145  0.1465 -0.1130  0.3742
  574TIP3    H123213   0.318   0.870   5.051  0.2243  1.0771  0.4423
  574TIP3    H223214   0.289   0.956   5.172 -0.7572 -0.5241  1.3609
  575TIP3   OH223215   2.717   0.200  11.978  0.0469  0.2783 -0.0115
  575TIP3    H123216   2.704   0.288  11.942 -0.8785  0.1343 -0.0287
  575TIP3    H223217   2.694   0.141  11.907  1.5748  0.0147 -0.3070
  576TIP3   OH223218   0.389   6.321  15.181  0.2395  0.9835  0.4820
  576TIP3    H123219   0.365   6.342  15.091 -2.9363 -1.2108  0.7180
  576TIP3    H223220   0.445   6.244  15.174  0.2512  1.0035  0.3616
  577TIP3   OH223221   1.889   3.844  17.033 -0.5398 -0.3192  0.5538
  577TIP3    H123222   1.959   3.844  17.097  0.4721 -1.2711 -0.5262
  577TIP3    H223223   1.871   3.751  17.016  0.5348 -0.1102 -1.9420
  578TIP3   OH223224   4.880   3.381   0.447 -0.3241  0.4410  1.0448
  578TIP3    H123225   4.854   3.418   0.532 -0.9640 -1.0634  1.5272
  578TIP3    H223226   4.938   3.308   0.470  1.6708  1.6962  0.0828
  579TIP3   OH223227   3.530   2.643   4.522  0.2568  0.3417  0.0456
  579TIP3    H123228   3.504   2.568   4.575 -2.6785  2.5615  1.8799
  579TIP3    H223229   3.608   2.677   4.565  0.4952 -0.5093  0.3063
  580TIP3   OH223230   5.472   1.464   2.026 -0.0952 -0.0075  0.8207
  580TIP3    H123231   5.559   1.499   2.045 -0.7556  1.7586  0.7203
  580TIP3    H223232   5.418   1.542   2.014 -0.9251 -1.0459 -2.6296
  581TIP3   OH223233   0.112   5.455  11.531  0.1015  0.4913 -0.1344
  581TIP3    H123234   0.207   5.440  11.534 -0.0305 -0.2648  0.2700
  581TIP3    H223235   0.095   5.481  11.440  0.7764  1.1879 -0.0684
  582TIP3   OH223236   6.790   0.454   5.004  0.4533  0.0418  0.6812
  582TIP3    H123237   6.880   0.473   4.977  0.9475 -2.3719  0.5256
  582TIP3    H223238   6.799   0.422   5.093 -0.2266 -0.4730  0.5624
  583TIP3   OH223239   1.492   2.068   5.336  1.1623 -0.1770  0.2476
  583TIP3    H123240   1.441   2.115   5.403  0.7180 -0.6377  0.2379
  583TIP3    H223241   1.506   2.132   5.267  1.3290  0.2056  0.6367
  584TIP3   OH223242   2.791   5.545  12.575  0.0251  0.0531  0.5407
  584TIP3    H123243   2.782   5.640  12.583 -0.3716  0.1230 -0.6592
  584TIP3    H223244   2.782   5.512  12.665  0.2454  1.1502  0.9669
  585TIP3   OH223245   6.502   2.847   2.057 -0.0419 -0.1900  0.5136
  585TIP3    H123246   6.527   2.885   2.141  0.2361  0.2975  0.2171
  585TIP3    H223247   6.554   2.767   2.050  1.4241  0.7634 -0.0559
  586TIP3   OH223248   0.195   6.782   2.368  0.0305 -0.0090 -0.2505
  586TIP3    H123249   0.274   6.753   2.415 -0.2167 -1.7825 -0.8834
  586TIP3    H223250   0.199   6.877   2.371  2.2853 -0.0697 -0.3905
  587TIP3   OH223251   3.057   2.115  15.822 -0.1344  0.5831 -0.1742
  587TIP3    H123252   3.013   2.031  15.827  0.5237  0.2038 -0.7874
  587TIP3    H223253   2.990   2.175  15.788  0.2811 -0.3330 -2.6880
  588TIP3   OH223254   5.642   4.714  11.402 -0.0365  0.6297  0.3436
  588TIP3    H123255   5.651   4.722  11.307  4.4546 -0.5492  0.5709
  588TIP3    H223256   5.665   4.801  11.436  1.8701  0.0885  0.4865
  589TIP3   OH223257   2.047   3.813  15.936 -0.4027 -0.5821  0.4223
  589TIP3    H123258   2.046   3.795  16.030 -1.2827  1.3687  0.8099
  589TIP3    H223259   2.122   3.872  15.924 -0.9605  0.0623  0.0908
  590TIP3   OH223260   1.697   6.609   5.079  0.3185 -0.1328  0.0523
  590TIP3    H123261   1.743   6.692   5.090  1.0084 -0.5648  0.4726
  590TIP3    H223262   1.695   6.570   5.167 -0.2872 -0.4157 -0.0788
  591TIP3   OH223263   5.697   6.031   1.832 -0.1776  0.0624  0.2108
  591TIP3    H123264   5.733   6.044   1.920 -0.9492 -0.9190  0.6842
  591TIP3    H223265   5.639   6.106   1.819 -0.6312 -0.1776  0.8393
  592TIP3   OH223266   3.864   3.981  10.840 -0.1153 -0.3268 -0.5430
  592TIP3    H123267   3.943   3.973  10.893 -0.4890  2.7535  0.5958
  592TIP3    H223268   3.868   3.908  10.779  2.7635 -1.1780  0.6078
  593TIP3   OH223269   1.040   6.095   3.917 -0.2120  0.0111  0.4077
  593TIP3    H123270   1.082   6.074   4.000  0.4458 -0.2072  0.0172
  593TIP3    H223271   0.962   6.144   3.942  1.4283  2.3894  1.0553
  594TIP3   OH223272   1.658   5.085  15.074  0.7042  0.1530  0.6701
  594TIP3    H123273   1.751   5.077  15.056  1.0377  1.1684  1.8225
  594TIP3    H223274   1.651   5.163  15.130 -0.8075 -0.0213  0.7592
  595TIP3   OH223275   3.194   5.912  16.134  1.0159  0.6767 -0.6871
  595TIP3    H123276   3.217   5.984  16.192 -1.5031  0.8163  0.2103
  595TIP3    H223277   3.122   5.946  16.081  0.2587 -0.9506 -0.7325
  596TIP3   OH223278   1.814   3.012   2.283  0.0665 -0.2853 -0.2506
  596TIP3    H123279   1.760   3.026   2.205  0.1173 -1.2639 -0.4679
  596TIP3    H223280   1.900   3.047   2.258 -0.5105  1.5105  0.1894
  597TIP3   OH223281   6.698   5.325   0.884  0.6235  0.0953 -0.2633
  597TIP3    H123282   6.790   5.303   0.873  0.7947 -0.0235  1.2439
  597TIP3    H223283   6.650   5.252   0.845  1.1813 -1.2134  1.4621
  598TIP3   OH223284   6.676   6.119  12.387  0.3750 -0.3809  0.0150
  598TIP3    H123285   6.623   6.061  12.442 -0.8390  0.4711 -0.2361
  598TIP3    H223286   6.667   6.084  12.298  0.5751 -0.4808  0.0344
  599TIP3   OH223287   5.336   0.544   2.341 -0.1907 -0.0096 -0.7315
  599TIP3    H123288   5.307   0.501   2.421  0.9586  1.4349  0.4992
  599TIP3    H223289   5.259   0.590   2.309  0.1374  2.1658  1.4169
  600TIP3   OH223290   3.422   3.123  16.394 -0.1865  0.7367 -0.6549
  600TIP3    H123291   3.405   3.096  16.303 -1.0361  0.8407 -0.5290
  600TIP3    H223292   3.507   3.167  16.390 -0.2330  0.7647 -1.4049
  601TIP3   OH223293   3.646   5.631  11.087  0.0229 -0.4316 -0.0809
  601TIP3    H123294   3.696   5.603  11.010 -0.8287 -1.9882 -0.0752
  601TIP3    H223295   3.648   5.557  11.146 -1.5675 -0.2164  0.2798
  602TIP3   OH223296   3.822   0.918  12.432  0.2400  0.3782 -0.1967
  602TIP3    H123297   3.840   0.887  12.521  0.2905 -0.0459 -0.3542
  602TIP3    H223298   3.779   1.002  12.445 -2.1531 -0.8736  0.2956
  603TIP3   OH223299   3.494   6.613  16.851 -0.0036  0.1682 -0.3184
  603TIP3    H123300   3.540   6.571  16.924 -0.2910 -0.7588 -0.6587
  603TIP3    H223301   3.521   6.705  16.855  1.3172 -0.2160 -0.0727
  604TIP3   OH223302   0.079   0.357  16.912 -0.3998  0.3845  0.8808
  604TIP3    H123303   0.074   0.403  16.996 -0.9681 -0.1481  1.1423
  604TIP3    H223304   0.173   0.343  16.898 -0.3194  0.2557  1.5402
  605TIP3   OH223305   3.888   3.582  12.474 -0.2816 -0.1470  0.6883
  605TIP3    H123306   3.912   3.674  12.486  0.5599 -0.2814  0.0959
  605TIP3    H223307   3.872   3.573  12.380  0.7632 -0.8581  0.5652
  606TIP3   OH223308   4.951   3.086  11.054 -0.1351  0.3202 -0.3430
  606TIP3    H123309   4.861   3.055  11.068  0.2951 -1.1974 -0.8403
  606TIP3    H223310   4.975   3.052  10.968  1.4529 -0.5841  0.4350
  607TIP3   OH223311   5.432   4.449   0.249  0.0489  0.1497  0.8216
  607TIP3    H123312   5.457   4.502   0.174  0.0612  1.0354  1.4356
  607TIP3    H223313   5.372   4.383   0.214  1.1479 -0.3127 -0.1934
  608TIP3   OH223314   4.687   1.018  12.294  0.5579  0.2624  0.0851
  608TIP3    H123315   4.771   1.030  12.250 -0.2773  0.7394 -1.4467
  608TIP3    H223316   4.666   0.925  12.282  0.4151  0.3536 -0.3913
  609TIP3   OH223317   1.493   3.907  12.990 -0.0590  0.1623  0.4864
  609TIP3    H123318   1.579   3.871  13.012 -0.1383  0.8940  2.0351
  609TIP3    H223319   1.507   3.950  12.906  0.7402 -0.9531  0.0302
  610TIP3   OH223320   4.872   2.736  11.388  0.2517  0.3694  0.9011
  610TIP3    H123321   4.930   2.693  11.451  1.4613  2.8310  1.5231
  610TIP3    H223322   4.931   2.770  11.321 -0.6706  1.1815  0.4988
  611TIP3   OH223323   6.157   3.247   3.059 -0.0947 -0.3480  0.4715
  611TIP3    H123324   6.099   3.174   3.077 -0.6204  0.7680  3.5264
  611TIP3    H223325   6.165   3.248   2.963 -1.7627 -3.0460  0.2616
  612TIP3   OH223326   1.496   5.028   4.907  0.0895  0.0949 -0.1272
  612TIP3    H123327   1.464   4.988   4.988  0.2329  0.3383  0.0502
  612TIP3    H223328   1.573   4.976   4.883 -1.4607 -1.6318 -1.5316
  613TIP3   OH223329   1.056   3.922  15.481  0.3483 -0.8996 -0.2167
  613TIP3    H123330   1.036   4.002  15.432  2.0047  0.3748  1.1646
  613TIP3    H223331   0.982   3.913  15.542 -0.5860 -1.2521 -1.3852
  614TIP3   OH223332   3.955   6.307  12.998  0.2886 -0.0356  0.1452
  614TIP3    H123333   3.938   6.285  12.906 -0.3158 -0.8266  0.4384
  614TIP3    H223334   3.884   6.366  13.022 -2.1695 -3.3203  1.3641
  615TIP3   OH223335   2.586   5.380  14.013  0.5075 -0.1118 -0.1226
  615TIP3    H123336   2.579   5.466  14.055  0.1643 -0.4201  0.4728
  615TIP3    H223337   2.501   5.339  14.031  0.3124 -0.2024 -1.2409
  616TIP3   OH223338   6.799   2.621   0.515  0.0047  0.4100 -0.2430
  616TIP3    H123339   6.886   2.601   0.481 -0.0435 -1.4086  0.6186
  616TIP3    H223340   6.742   2.557   0.472 -0.5280  0.0691  0.9453
  617TIP3   OH223341   0.081   5.612  12.858 -0.6190 -0.1685  0.4680
  617TIP3    H123342   0.110   5.521  12.845 -1.2040 -0.1441 -1.0893
  617TIP3    H223343   0.159   5.658  12.887  0.1443 -0.7734 -0.6011
  618TIP3   OH223344   2.288   5.508  12.187  0.0318 -0.1682  0.0628
  618TIP3    H123345   2.359   5.513  12.124  0.0059 -0.8341 -0.0253
  618TIP3    H223346   2.320   5.557  12.263  0.3538  0.0109 -0.1864
  619TIP3   OH223347   0.153   4.287  16.717  0.2728 -0.0663 -0.0787
  619TIP3    H123348   0.082   4.256  16.661 -0.2274 -1.4957  1.3003
  619TIP3    H223349   0.220   4.219  16.711  0.6808  0.3072  0.1938
  620TIP3   OH223350   2.448   2.278  13.866  0.4989  0.0716  0.0949
  620TIP3    H123351   2.418   2.266  13.956  0.4013  0.1844  0.0775
  620TIP3    H223352   2.465   2.190  13.834  1.3128  0.0786  0.4912
  621TIP3   OH223353   4.821   0.785  16.658  0.0909  0.0718 -0.0086
  621TIP3    H123354   4.910   0.792  16.623 -0.0432 -1.1496 -0.6124
  621TIP3    H223355   4.833   0.773  16.752  0.4769  2.5683  0.2966
  622TIP3   OH223356   6.179   0.941   0.203 -0.4010 -0.4202 -0.2356
  622TIP3    H123357   6.206   1.004   0.137  1.9227 -1.4468 -0.2984
  622TIP3    H223358   6.084   0.931   0.190  0.0059 -0.5258 -3.3056
  623TIP3   OH223359   4.023   5.865  16.193 -0.1207  0.5606  0.1478
  623TIP3    H123360   4.015   5.828  16.105 -1.2266  0.0305  0.4570
  623TIP3    H223361   4.068   5.949  16.180  1.5371 -0.4457 -0.6731
  624TIP3   OH223362   3.050   4.181  12.932 -0.5795  0.2615  0.2480
  624TIP3    H123363   3.132   4.227  12.915 -0.9414  1.5711  1.8783
  624TIP3    H223364   3.050   4.109  12.869  1.7002  0.3823  0.0414
  625TIP3   OH223365   0.251   1.065  14.327 -0.3019 -0.2069  0.0419
  625TIP3    H123366   0.336   1.108  14.337 -0.5577  0.3881 -0.3302
  625TIP3    H223367   0.196   1.104  14.395  0.3745 -2.2590  1.8050
  626TIP3   OH223368   6.360   1.673  11.419  0.6450  0.0526  0.1219
  626TIP3    H123369   6.365   1.738  11.348 -1.6307 -1.5621 -1.5656
  626TIP3    H223370   6.368   1.725  11.499  2.7765  1.9667 -1.2709
  627TIP3   OH223371   5.282   0.578  13.113  0.1053  0.2198  0.1904
  627TIP3    H123372   5.343   0.515  13.152 -0.5960 -0.1307  0.7254
  627TIP3    H223373   5.313   0.663  13.144  1.4097  0.2134 -1.0054
  628TIP3   OH223374   3.044   2.469  14.468  0.0955 -0.5297  0.1179
  628TIP3    H123375   2.985   2.405  14.508  1.7071 -1.1253  1.5883
  628TIP3    H223376   3.064   2.530  14.539 -0.1888  0.7192 -0.8560
  629TIP3   OH223377   4.406   4.538  14.468  0.1147  0.1408 -0.0356
  629TIP3    H123378   4.476   4.568  14.526  0.1877  0.7398 -0.4233
  629TIP3    H223379   4.385   4.615  14.415 -1.1973  0.1069  0.4366
  630TIP3   OH223380   6.807   3.465  14.930  0.2919  0.4631  0.2764
  630TIP3    H123381   6.794   3.374  14.904  1.1748  0.3768  0.1115
  630TIP3    H223382   6.809   3.464  15.025  0.3913  0.2950  0.2721
  631TIP3   OH223383   5.527   3.898  17.054 -0.0174  0.4711  0.6145
  631TIP3    H123384   5.598   3.836  17.070 -1.0144 -0.7876  0.2623
  631TIP3    H223385   5.479   3.902  17.137 -1.3613 -1.0856 -0.0613
  632TIP3   OH223386   4.926   3.046   5.238 -0.1942 -0.2049  0.4504
  632TIP3    H123387   4.977   3.126   5.253 -0.6695  0.3244 -0.6826
  632TIP3    H223388   4.974   2.998   5.171  0.4331 -1.1988  1.5942
  633TIP3   OH223389   5.002   5.616   0.078 -0.0847 -0.6449 -0.0895
  633TIP3    H123390   5.083   5.621   0.027  0.0245  1.1282  0.2104
  633TIP3    H223391   4.932   5.621   0.014  0.0537  1.3426 -0.1332
  634TIP3   OH223392   3.763   4.897   2.784  0.0075 -0.3348  0.1458
  634TIP3    H123393   3.729   4.884   2.695  0.1227  1.3310 -0.1733
  634TIP3    H223394   3.709   4.969   2.819  4.4936  3.9894 -1.1793
  635TIP3   OH223395   3.835   4.740   4.375 -0.1121  0.2363  0.1504
  635TIP3    H123396   3.841   4.829   4.410  1.6104 -0.2731  1.2832
  635TIP3    H223397   3.814   4.751   4.283 -0.9186  1.7785  0.5022
  636TIP3   OH223398   3.016   4.981  11.512 -0.4907 -0.3988  0.0856
  636TIP3    H123399   3.010   5.065  11.467 -3.2801 -0.0752  0.9407
  636TIP3    H223400   3.046   4.920  11.444  0.4482  1.0514 -0.8329
  637TIP3   OH223401   5.551   2.663   3.254  0.8287  0.1610 -0.0889
  637TIP3    H123402   5.492   2.589   3.266  1.0036 -0.2183 -1.4618
  637TIP3    H223403   5.501   2.739   3.284 -1.0671  0.1069 -2.9027
  638TIP3   OH223404   6.156   5.737  16.282  0.1811  0.1885 -0.0103
  638TIP3    H123405   6.150   5.775  16.370 -1.4035  0.9225 -0.4012
  638TIP3    H223406   6.141   5.812  16.223  1.2499 -0.2923 -0.9010
  639TIP3   OH223407   3.657   1.909  13.005 -0.5799 -0.0124 -0.0835
  639TIP3    H123408   3.686   1.970  13.072 -1.0093 -0.6891  0.7178
  639TIP3    H223409   3.561   1.913  13.008 -0.6070 -0.5991 -0.1501
  640TIP3   OH223410   0.053   0.575   3.283 -0.0813 -0.1532  0.2697
  640TIP3    H123411   0.097   0.574   3.367  0.7762 -1.9991 -0.1700
  640TIP3    H223412   0.123   0.571   3.218 -0.7405  0.9070 -0.5306
  641TIP3   OH223413   0.181   3.858  16.363 -0.0675 -0.0087 -0.2736
  641TIP3    H123414   0.207   3.783  16.416  1.8690  0.1388 -0.9785
  641TIP3    H223415   0.096   3.883  16.398 -0.1132 -1.6664  0.8877
  642TIP3   OH223416   0.936   6.487   1.148  0.8088  0.4544 -0.4003
  642TIP3    H123417   1.029   6.463   1.147  0.6903  0.0113 -1.6466
  642TIP3    H223418   0.935   6.578   1.119  0.7641  0.0759 -1.6257
  643TIP3   OH223419   4.890   5.401   5.675 -0.5925  0.8194 -0.5239
  643TIP3    H123420   4.902   5.317   5.720  0.8278  1.4002  0.1924
  643TIP3    H223421   4.977   5.427   5.647 -1.3416  0.8860 -2.9435
  644TIP3   OH223422   2.640   5.034  11.403 -0.1623 -0.3727  0.1490
  644TIP3    H123423   2.589   5.099  11.354 -0.0384 -0.3585  0.0354
  644TIP3    H223424   2.575   4.973  11.438 -0.1440 -1.2323 -1.2797
  645TIP3   OH223425   0.144   6.266   4.574  0.4945 -0.1694 -0.4525
  645TIP3    H123426   0.069   6.322   4.553  1.0365  0.7470  0.0227
  645TIP3    H223427   0.105   6.185   4.606 -0.2957  0.2148 -0.4278
  646TIP3   OH223428   1.632   1.224  10.644  0.1842 -0.0563 -0.2023
  646TIP3    H123429   1.559   1.220  10.583  0.1272  1.6868 -0.2724
  646TIP3    H223430   1.591   1.224  10.731  0.1059  0.5802 -0.2362
  647TIP3   OH223431   0.732   0.347   4.368  0.2488  0.4530  0.1935
  647TIP3    H123432   0.667   0.277   4.356 -0.5068  1.1791  0.0445
  647TIP3    H223433   0.683   0.428   4.357  1.3118  1.0056 -0.5268
  648TIP3   OH223434   1.629   6.045  16.664  0.1674 -0.1976 -0.1352
  648TIP3    H123435   1.638   6.089  16.748  1.1851 -0.7386  0.0480
  648TIP3    H223436   1.664   6.107  16.600  1.3580 -0.6189  0.0907
  649TIP3   OH223437   3.188   5.008   2.252  0.1009  0.1391  0.2814
  649TIP3    H123438   3.271   4.994   2.205  0.5589  1.4915  0.6652
  649TIP3    H223439   3.189   5.100   2.275 -1.7940  0.2918 -0.1962
  650TIP3   OH223440   5.033   0.472   0.653  0.5155 -0.3849 -0.4223
  650TIP3    H123441   5.047   0.548   0.709 -0.2789 -0.2737 -0.3731
  650TIP3    H223442   4.989   0.408   0.709 -2.1407  0.4749 -1.4332
  651TIP3   OH223443   6.264   2.095   5.142 -0.3158 -0.4618  0.3372
  651TIP3    H123444   6.217   2.020   5.178 -0.0635 -0.4441  0.6970
  651TIP3    H223445   6.270   2.076   5.048 -1.8087 -0.0585  0.1424
  652TIP3   OH223446   5.696   1.611  15.675 -0.0565 -0.2097  0.7150
  652TIP3    H123447   5.648   1.574  15.750  0.0428  0.0284  0.8982
  652TIP3    H223448   5.745   1.537  15.639 -0.1349 -0.3338  0.8620
  653TIP3   OH223449   1.594   4.163  13.359  0.4344  0.0606 -0.4689
  653TIP3    H123450   1.572   4.180  13.451  0.6621 -1.6731 -0.0866
  653TIP3    H223451   1.689   4.154  13.359  0.3663 -0.6274 -0.7745
  654TIP3   OH223452   5.541   5.688  16.377 -0.3197  1.0629  0.4473
  654TIP3    H123453   5.525   5.607  16.329  0.8541  0.3746  1.2006
  654TIP3    H223454   5.566   5.660  16.465 -0.6335  2.2575  0.9340
  655TIP3   OH223455   4.395   0.689   0.599  0.5614 -0.0819 -0.2354
  655TIP3    H123456   4.463   0.708   0.534  0.1365 -0.7454 -0.8794
  655TIP3    H223457   4.423   0.737   0.677  0.1149  2.2874 -1.4795
  656TIP3   OH223458   1.176   4.077   4.921 -0.1627 -0.2598  0.2905
  656TIP3    H123459   1.144   3.988   4.936 -0.2102 -0.2153  0.4505
  656TIP3    H223460   1.096   4.129   4.907 -0.1104 -0.3493 -0.3833
  657TIP3   OH223461   5.677   4.745  11.701 -0.0715  0.1572  0.3738
  657TIP3    H123462   5.611   4.712  11.640  2.1349 -0.2248 -1.8862
  657TIP3    H223463   5.665   4.840  11.701 -0.1452  0.1496 -0.6030
  658TIP3   OH223464   1.438   5.055  13.875  0.4396  0.1857 -0.4795
  658TIP3    H123465   1.368   5.100  13.827 -0.7916  0.3096  1.3628
  658TIP3    H223466   1.477   5.124  13.929 -0.9255 -0.7519  1.7621
  659TIP3   OH223467   5.033   4.186   5.895  0.0819 -0.3239 -0.2703
  659TIP3    H123468   4.971   4.179   5.823  0.4069  0.0451 -0.5853
  659TIP3    H223469   5.003   4.263   5.945  1.4371  1.0455 -1.5334
  660TIP3   OH223470   4.787   4.171  14.680 -0.0282  0.3281  0.1161
  660TIP3    H123471   4.725   4.131  14.619 -0.2105 -2.3314  1.9118
  660TIP3    H223472   4.862   4.112  14.679  1.5027  2.2292 -0.2305
  661TIP3   OH223473   0.835   4.319  12.016  0.2585  0.3650 -0.0484
  661TIP3    H123474   0.765   4.374  11.980 -0.0016  1.1225  1.5907
  661TIP3    H223475   0.846   4.350  12.106  3.0713  0.6356 -0.4360
  662TIP3   OH223476   2.475   2.427   3.457 -0.0590 -0.5132  0.4611
  662TIP3    H123477   2.381   2.426   3.441  0.4838  0.5271 -3.1709
  662TIP3    H223478   2.497   2.519   3.466  0.8158 -0.6542 -0.1390
  663TIP3   OH223479   4.442   4.594   0.064 -0.3555 -0.2979 -0.7399
  663TIP3    H123480   4.364   4.636   0.027 -0.6920  0.3428  0.6478
  663TIP3    H223481   4.506   4.665   0.070 -0.5082 -0.2477  0.4502
  664TIP3   OH223482   0.422   0.680  12.370  0.4103  0.4529 -0.5115
  664TIP3    H123483   0.392   0.741  12.303  0.7235  0.1363 -0.9500
  664TIP3    H223484   0.352   0.677  12.435 -0.3468 -0.0178 -1.3450
  665TIP3   OH223485   4.649   2.972   2.789 -0.1622 -0.0045 -0.4308
  665TIP3    H123486   4.578   3.023   2.829  1.4039 -0.3427  2.9341
  665TIP3    H223487   4.640   2.884   2.826  1.5012 -0.2761 -0.6267
  666TIP3   OH223488   1.098   1.779  16.260  0.7334 -0.1264 -0.5216
  666TIP3    H123489   1.056   1.703  16.302  0.5760 -0.2956 -0.9789
  666TIP3    H223490   1.109   1.752  16.169 -1.4783  1.2597 -1.2564
  667TIP3   OH223491   3.770   0.717  14.615  0.0270  0.3125 -0.1432
  667TIP3    H123492   3.704   0.750  14.676 -0.4704  0.1544 -0.5885
  667TIP3    H223493   3.725   0.648  14.566  0.7633 -0.3632  0.1085
  668TIP3   OH223494   3.634   0.409   0.545 -0.1924  0.2350  0.2592
  668TIP3    H123495   3.665   0.365   0.624 -0.9810 -0.3139  0.2616
  668TIP3    H223496   3.566   0.469   0.575 -1.1825 -0.6832 -0.1264
  669TIP3   OH223497   5.872   0.396  16.775  0.4856  0.1839 -0.0930
  669TIP3    H123498   5.823   0.430  16.849  1.8879  0.5756  0.6770
  669TIP3    H223499   5.914   0.473  16.736 -1.2173  0.1511 -2.0449
  670TIP3   OH223500   5.942   3.076  16.132  0.0910 -0.4107  0.0787
  670TIP3    H123501   5.978   3.137  16.068 -1.5910  0.2950 -0.2293
  670TIP3    H223502   5.979   2.991  16.108  1.3469  0.2554 -0.3497
  671TIP3   OH223503   0.185   3.412   3.660 -0.2382 -0.1319  0.3981
  671TIP3    H123504   0.143   3.489   3.621 -1.2278 -0.7994  0.1249
  671TIP3    H223505   0.259   3.448   3.711 -0.9774  1.0274  0.6734
  672TIP3   OH223506   4.949   6.790  15.475 -0.1983  0.0583 -0.7262
  672TIP3    H123507   5.006   6.845  15.530 -0.4792 -1.0831  0.7411
  672TIP3    H223508   5.008   6.754  15.409  0.1139  1.5915 -1.3222
  673TIP3   OH223509   3.553   5.210  13.451 -0.0748 -0.2882  0.0967
  673TIP3    H123510   3.584   5.157  13.377 -0.0079 -0.9686  0.6130
  673TIP3    H223511   3.628   5.216  13.510  0.1945  1.1203 -0.3545
  674TIP3   OH223512   2.458   0.108  13.525  0.7036  0.2671  0.5621
  674TIP3    H123513   2.375   0.138  13.488  1.1414  0.2710 -0.4403
  674TIP3    H223514   2.520   0.113  13.452  1.0099 -2.1183  0.6090
  675TIP3   OH223515   4.624   6.446   1.092  0.0648 -0.4563  0.5037
  675TIP3    H123516   4.553   6.509   1.080  3.1992  2.8874 -1.4287
  675TIP3    H223517   4.590   6.364   1.055 -4.8437 -0.6495  4.8412
  676TIP3   OH223518   2.309   3.809  11.575 -0.3583  0.4000  0.1133
  676TIP3    H123519   2.401   3.781  11.566 -0.8721 -1.2391 -0.2075
  676TIP3    H223520   2.275   3.757  11.647 -0.8877  1.4448  0.6286
  677TIP3   OH223521   4.806   5.392   1.214  0.1719 -0.4135  0.1236
  677TIP3    H123522   4.727   5.425   1.257 -0.7750 -1.6381 -0.6556
  677TIP3    H223523   4.832   5.463   1.155 -1.0294 -0.4834 -0.4987
  678TIP3   OH223524   4.099   5.191   3.795  0.6053  0.2364  0.3026
  678TIP3    H123525   4.131   5.121   3.738  0.0295  1.2599 -1.3083
  678TIP3    H223526   4.006   5.172   3.808  0.6076  0.3197  0.4452
  679TIP3   OH223527   5.110   4.658   1.341  0.6207 -0.0555  0.2748
  679TIP3    H123528   5.177   4.707   1.294 -0.4644 -0.7768 -2.0960
  679TIP3    H223529   5.032   4.713   1.336  0.1535 -0.7224  0.0754
  680TIP3   OH223530   5.239   0.449  13.951 -0.1042  0.2137  0.2087
  680TIP3    H123531   5.192   0.529  13.976 -0.1617  0.2715 -0.0908
  680TIP3    H223532   5.247   0.454  13.856  0.0257 -0.0658  0.2051
  681TIP3   OH223533   0.050   1.132  15.211 -0.0092 -0.0723 -0.2425
  681TIP3    H123534  -0.044   1.120  15.198  0.3640 -1.8095 -1.4925
  681TIP3    H223535   0.056   1.199  15.279 -2.1477  0.1196 -0.2001
  682TIP3   OH223536   5.018   3.895  15.632 -0.0650 -0.5436  0.1218
  682TIP3    H123537   5.105   3.919  15.664 -0.5268 -0.2992  1.2190
  682TIP3    H223538   4.970   3.977  15.627  0.7237 -0.2326 -3.5710
  683TIP3   OH223539   1.285   0.103  12.441 -0.2268  0.0723 -0.3603
  683TIP3    H123540   1.202   0.061  12.421  0.6400 -0.8976 -1.9227
  683TIP3    H223541   1.275   0.193  12.409 -1.5279  0.6930  1.6483
  684TIP3   OH223542   2.293   4.465  11.468  0.2136 -0.0269  0.1545
  684TIP3    H123543   2.251   4.473  11.382 -0.5005 -0.9510  0.4027
  684TIP3    H223544   2.243   4.524  11.525  1.3488  1.3733 -0.3026
  685TIP3   OH223545   5.084   3.175   1.107 -0.4075 -0.0992  0.1664
  685TIP3    H123546   5.125   3.089   1.109  1.8461  0.9518  1.0183
  685TIP3    H223547   5.110   3.213   1.023  0.0609  0.4381  0.5541
  686TIP3   OH223548   4.389   2.312  10.593 -0.2001  0.1105  0.3704
  686TIP3    H123549   4.482   2.314  10.573 -0.1682 -0.0392  0.5035
  686TIP3    H223550   4.367   2.402  10.618 -0.1288  0.1850  0.1671
  687TIP3   OH223551   6.640   3.041  16.015  0.3600  0.2544 -0.0607
  687TIP3    H123552   6.683   3.090  15.945 -1.5762  3.1530  0.6764
  687TIP3    H223553   6.548   3.068  16.011 -0.9290 -3.8882 -0.0023
  688TIP3   OH223554   5.675   2.549   2.745  0.2246 -0.0819 -0.0960
  688TIP3    H123555   5.684   2.490   2.670  0.6605 -1.2113  0.8281
  688TIP3    H223556   5.582   2.567   2.751  0.0947 -0.6358 -0.4220
  689TIP3   OH223557   4.296   2.974   4.801  0.5337  0.5379 -0.1726
  689TIP3    H123558   4.335   3.059   4.780  0.8368  0.5450  0.4244
  689TIP3    H223559   4.204   2.982   4.773  0.3635  1.3303  0.6081
  690TIP3   OH223560   3.554   4.051   5.945  0.1363  0.3159 -0.2323
  690TIP3    H123561   3.530   4.002   6.024 -2.7927 -0.0317 -1.2798
  690TIP3    H223562   3.640   4.017   5.920  0.7106 -0.1689  2.3093
  691TIP3   OH223563   6.656   3.808   1.206 -0.6713  0.0118  0.4525
  691TIP3    H123564   6.647   3.820   1.112 -2.0608 -0.8200  0.4632
  691TIP3    H223565   6.620   3.887   1.244  1.0839  0.9288  0.2802
  692TIP3   OH223566   1.173   1.220  16.507 -0.6271 -0.1299  0.0343
  692TIP3    H123567   1.258   1.193  16.541 -0.1817  0.8256 -0.3076
  692TIP3    H223568   1.118   1.141  16.514 -0.2115 -0.2878  1.8418
  693TIP3   OH223569   5.692   3.474   3.397 -0.0847  0.5935  0.1336
  693TIP3    H123570   5.704   3.399   3.339  0.1402  0.0720  0.8594
  693TIP3    H223571   5.735   3.546   3.351 -0.4604  0.3304 -0.6492
  694TIP3   OH223572   6.491   3.490   2.611 -0.0058  0.5082 -0.4599
  694TIP3    H123573   6.478   3.399   2.583  0.7780  0.6022 -1.1783
  694TIP3    H223574   6.473   3.542   2.533  1.1510  0.8553 -0.5035
  695TIP3   OH223575   1.232   6.347   2.778  0.4898 -0.1245 -0.5009
  695TIP3    H123576   1.275   6.268   2.810 -0.1347 -1.3105 -2.4823
  695TIP3    H223577   1.298   6.416   2.786  0.8531 -0.6951  1.7979
  696TIP3   OH223578   1.184   6.661   4.426  0.6721  0.0478  0.1292
  696TIP3    H123579   1.277   6.640   4.439  0.1723 -3.5133 -1.4292
  696TIP3    H223580   1.139   6.617   4.498  0.0079 -0.4065 -0.5450
  697TIP3   OH223581   5.351   0.853  14.810 -0.4361 -0.3883 -0.3981
  697TIP3    H123582   5.358   0.788  14.739  1.1483 -0.0030 -0.6144
  697TIP3    H223583   5.257   0.867  14.820 -0.8314 -2.9299 -0.1494
  698TIP3   OH223584   2.210   3.425   2.700  0.0098  0.5106  0.1430
  698TIP3    H123585   2.257   3.351   2.739 -0.4244 -0.3259 -0.8791
  698TIP3    H223586   2.136   3.439   2.758  0.6833  0.8454  0.9313
  699TIP3   OH223587   5.856   5.978   3.221  0.3640  0.2424 -0.3313
  699TIP3    H123588   5.775   5.970   3.272  0.7371 -0.9819  0.0848
  699TIP3    H223589   5.829   5.966   3.130  0.2341 -1.2831 -0.1003
  700TIP3   OH223590   2.917   4.092   2.220 -0.5755  0.2348 -0.0822
  700TIP3    H123591   2.941   4.000   2.221 -1.1079  0.0943 -0.0198
  700TIP3    H223592   2.865   4.103   2.140 -1.3547  0.2575  0.4180
  701TIP3   OH223593   3.500   0.375  13.099 -0.2345 -0.3376  0.2704
  701TIP3    H123594   3.569   0.319  13.134  0.9590  1.2880  0.6046
  701TIP3    H223595   3.479   0.434  13.172 -3.8098 -2.4482  1.0362
  702TIP3   OH223596   1.923   5.132  14.560  0.0355 -0.0569  0.3221
  702TIP3    H123597   1.984   5.155  14.489 -0.3150  0.8311  0.3011
  702TIP3    H223598   1.918   5.036  14.556  1.5972 -0.1669  0.4693
  703TIP3   OH223599   3.811   2.373  12.928  0.5035 -0.4438  0.2572
  703TIP3    H123600   3.830   2.325  12.847  0.2619 -1.4215  0.7644
  703TIP3    H223601   3.732   2.332  12.962 -0.4461  1.1812  0.0487
  704TIP3   OH223602   3.285   2.662  14.973  0.1412 -0.5084  0.4940
  704TIP3    H123603   3.287   2.583  14.918 -0.3336 -0.8827  1.0151
  704TIP3    H223604   3.212   2.648  15.033 -1.4122  1.3434 -0.8826
  705TIP3   OH223605   3.428   3.885   3.336 -0.5104 -0.3555 -0.1721
  705TIP3    H123606   3.501   3.890   3.398  0.6451  0.2378 -1.5462
  705TIP3    H223607   3.447   3.808   3.282  0.0237  0.7794 -1.6442
  706TIP3   OH223608   1.422   1.081   3.227  0.2968 -0.5347  0.3235
  706TIP3    H123609   1.499   1.024   3.229  1.0959  0.5313  1.0065
  706TIP3    H223610   1.455   1.164   3.193 -0.7048 -0.2773 -0.0371
  707TIP3   OH223611   5.787   1.407  16.571  0.0542 -0.4866 -0.2970
  707TIP3    H123612   5.757   1.402  16.662  1.6732 -1.7569  0.1955
  707TIP3    H223613   5.718   1.455  16.526 -0.3827  0.8837  1.7631
  708TIP3   OH223614   1.643   5.782  16.584  0.2911 -0.4080  0.6166
  708TIP3    H123615   1.675   5.747  16.667 -0.7058 -0.3363  1.0416
  708TIP3    H223616   1.641   5.877  16.597  0.6902 -0.3528  0.3023
  709TIP3   OH223617   4.509   1.608   0.897 -0.1416 -0.1979 -0.1761
  709TIP3    H123618   4.577   1.590   0.963  0.5920 -3.0571 -1.6306
  709TIP3    H223619   4.556   1.652   0.826  0.1292 -1.7850 -0.9955
  710TIP3   OH223620   2.276   6.732  10.934  0.4262 -0.2002  0.2211
  710TIP3    H123621   2.276   6.775  10.848  2.1734  0.2826  0.4498
  710TIP3    H223622   2.217   6.785  10.987 -1.3118 -0.9625 -0.8808
  711TIP3   OH223623   5.330   6.794  14.773 -0.2376 -0.5721  0.2884
  711TIP3    H123624   5.244   6.753  14.784 -0.5084 -0.0462  0.1665
  711TIP3    H223625   5.311   6.879  14.734  0.3577 -0.5414  0.0567
  712TIP3   OH223626   6.295   2.347   4.726 -0.3097 -0.0700 -0.2466
  712TIP3    H123627   6.353   2.374   4.798  0.1200 -1.6232 -0.0017
  712TIP3    H223628   6.327   2.396   4.650  0.4992  0.0772  0.1781
  713TIP3   OH223629   2.101   0.344   0.708  0.5901 -0.1879  0.1678
  713TIP3    H123630   2.106   0.359   0.803 -0.3940 -2.5565  0.6157
  713TIP3    H223631   2.113   0.431   0.670  1.9951  0.6509  2.4266
  714TIP3   OH223632   4.926   0.283  11.844  0.1889 -0.1335 -0.1105
  714TIP3    H123633   4.894   0.230  11.917  1.6008 -0.9266 -0.0498
  714TIP3    H223634   4.918   0.226  11.768  0.7782 -0.0825 -0.2118
  715TIP3   OH223635   4.711   3.453  17.221  0.5134 -0.2251  0.0798
  715TIP3    H123636   4.686   3.402  17.144  1.0387 -0.5565  0.1218
  715TIP3    H223637   4.629   3.476  17.263  0.2358 -0.2998 -0.4176
  716TIP3   OH223638   0.772   3.810  14.447  0.2021  0.2721  0.3404
  716TIP3    H123639   0.763   3.897  14.486 -1.8358 -0.1495  0.8668
  716TIP3    H223640   0.685   3.791  14.412  1.3871 -0.3136 -2.4328
  717TIP3   OH223641   0.810   0.538  11.774  0.0018  0.1314 -0.0619
  717TIP3    H123642   0.857   0.614  11.808 -1.7688  1.8271 -1.2614
  717TIP3    H223643   0.719   0.568  11.765 -0.3923 -1.5747 -2.2013
  718TIP3   OH223644   2.041   2.108  17.208  0.3717 -0.3753 -0.9684
  718TIP3    H123645   2.081   2.036  17.158 -0.7735 -1.7449  0.0386
  718TIP3    H223646   2.112   2.143  17.261  0.8850 -0.9140 -1.2884
  719TIP3   OH223647   4.918   3.080   5.548  0.1433 -0.0442 -0.1123
  719TIP3    H123648   4.827   3.059   5.529  0.5295 -1.4325 -0.4842
  719TIP3    H223649   4.938   3.153   5.490 -0.8553  0.5445  0.2794
  720TIP3   OH223650   0.244   6.093  11.944  0.0456 -0.2319 -0.0591
  720TIP3    H123651   0.203   6.075  11.859 -0.7435  0.5606  0.1474
  720TIP3    H223652   0.185   6.051  12.008 -0.0891  0.3445  0.1951
  721TIP3   OH223653   3.388   3.804  17.167  0.3689 -0.2678  0.2769
  721TIP3    H123654   3.364   3.712  17.157  0.9271 -0.1651 -2.4200
  721TIP3    H223655   3.318   3.852  17.123  0.9358  0.5059  0.2061
  722TIP3   OH223656   1.928   0.027  11.593  0.1765 -0.6884  0.6204
  722TIP3    H123657   1.931   0.117  11.627  0.1366  0.0667 -1.3114
  722TIP3    H223658   1.998  -0.019  11.640 -0.0626  0.2405  1.9121
  723TIP3   OH223659   0.109   3.153  11.153  0.4549  0.2297  0.4217
  723TIP3    H123660   0.154   3.083  11.106 -1.4671 -1.8941  1.6283
  723TIP3    H223661   0.065   3.204  11.084  1.6232  0.0670 -0.4509
  724TIP3   OH223662   1.076   4.532  11.650  0.1784  0.1927 -0.0860
  724TIP3    H123663   1.149   4.525  11.711 -0.3674  0.7191  0.6264
  724TIP3    H223664   1.007   4.575  11.699 -0.8680 -0.9334 -0.5421
  725TIP3   OH223665   1.480   4.724   2.108 -0.2542  0.1937 -0.0158
  725TIP3    H123666   1.461   4.813   2.081 -0.4346  0.2736  0.3628
  725TIP3    H223667   1.396   4.679   2.103 -0.6085  0.5837  1.8043
  726TIP3   OH223668   4.361   2.408  16.026  0.2046 -0.0242 -0.4024
  726TIP3    H123669   4.398   2.413  15.937  0.3041 -0.4175 -0.3849
  726TIP3    H223670   4.422   2.353  16.074 -0.5387 -0.8899 -0.4398
  727TIP3   OH223671   3.697   0.390   6.713 -0.1054 -0.7986  0.0022
  727TIP3    H123672   3.690   0.339   6.632 -1.6953 -0.0208 -0.3694
  727TIP3    H223673   3.612   0.378   6.755 -0.2731  1.0385  0.2065
  728TIP3   OH223674   2.809   6.466  11.173 -0.1439 -0.3806  0.2512
  728TIP3    H123675   2.844   6.395  11.119  1.7777  0.1434  0.7725
  728TIP3    H223676   2.810   6.543  11.116  0.2666 -0.2038  0.4917
  729TIP3   OH223677   2.872   1.721  12.100  0.8632 -0.0606 -0.5829
  729TIP3    H123678   2.897   1.631  12.121 -1.5323 -0.2599  1.6434
  729TIP3    H223679   2.902   1.772  12.176 -1.2113  0.3953 -0.0435
  730TIP3   OH223680   3.209   4.214  13.497 -0.2164 -0.2382 -0.0583
  730TIP3    H123681   3.302   4.200  13.476 -0.2817  0.4629 -0.8055
  730TIP3    H223682   3.167   4.131  13.474 -0.0966  0.1250 -1.5728
  731TIP3   OH223683   1.212   4.172   2.807  0.0957  0.2671 -0.3435
  731TIP3    H123684   1.289   4.117   2.825  0.5551  1.2735  0.8646
  731TIP3    H223685   1.148   4.144   2.873  1.4009  3.2263  2.3081
  732TIP3   OH223686   3.367   3.300  15.582 -0.3609  0.6458  0.2507
  732TIP3    H123687   3.422   3.351  15.523 -0.6379  1.3947  0.6356
  732TIP3    H223688   3.372   3.211  15.548  2.3958  0.3893  1.2463
  733TIP3   OH223689   3.927   1.425  17.260  0.0647 -0.0053  0.6570
  733TIP3    H123690   3.950   1.479  17.184  0.3707 -0.0332  0.7350
  733TIP3    H223691   4.004   1.372  17.277  0.3738  0.7379  1.6321
  734TIP3   OH223692   3.480   0.571  16.039  0.2802 -0.3849  0.1905
  734TIP3    H123693   3.563   0.620  16.039  0.1725 -0.2030  0.1362
  734TIP3    H223694   3.506   0.481  16.019  0.3460 -0.1276 -0.9150
  735TIP3   OH223695   3.738   0.995   4.798  0.3879 -0.3744 -0.2926
  735TIP3    H123696   3.727   0.915   4.747  0.1683  0.1718 -1.1032
  735TIP3    H223697   3.698   1.064   4.745 -0.7035  0.0475  1.0396
  736TIP3   OH223698   3.946   3.390   3.625  0.0167 -0.3897 -0.0104
  736TIP3    H123699   3.993   3.403   3.542  0.1161 -0.1210  0.0877
  736TIP3    H223700   4.014   3.395   3.692 -0.2553  0.7509  0.1906
  737TIP3   OH223701   6.602   2.487  10.731 -0.1722  0.3803 -0.1656
  737TIP3    H123702   6.641   2.538  10.660  1.9109  1.0350  1.4140
  737TIP3    H223703   6.667   2.419  10.749 -1.5984 -1.0257 -0.2260
  738TIP3   OH223704   1.684   5.977   2.761  0.0255  0.3662  0.1469
  738TIP3    H123705   1.699   6.004   2.670  1.1178  1.1535  0.5510
  738TIP3    H223706   1.766   5.935   2.787 -1.0157 -1.7686  0.1124
  739TIP3   OH223707   4.897   3.338  12.688 -0.0143 -0.1710 -0.3407
  739TIP3    H123708   4.853   3.319  12.771 -1.6445 -0.1342 -1.1807
  739TIP3    H223709   4.894   3.434  12.681 -0.3180 -0.2028 -0.6707
  740TIP3   OH223710   0.675   0.977   0.609  0.0072  0.0473  0.3158
  740TIP3    H123711   0.619   0.914   0.655 -2.7795  0.7519 -2.0174
  740TIP3    H223712   0.738   1.006   0.676 -1.2293 -2.1320  2.5026
  741TIP3   OH223713   5.722   0.592  13.116 -0.2339 -0.4080 -1.0580
  741TIP3    H123714   5.680   0.531  13.177 -0.0026  1.5788  1.1504
  741TIP3    H223715   5.650   0.642  13.078 -0.1492  0.5609  0.0403
  742TIP3   OH223716   0.557   2.008   0.229  0.1408  0.8075 -0.0071
  742TIP3    H123717   0.614   2.008   0.305  1.6583 -1.9047 -1.0445
  742TIP3    H223718   0.612   1.974   0.158 -2.0342  0.5527 -1.6352
  743TIP3   OH223719   6.204   5.875  10.796  0.0647 -0.2177  0.2194
  743TIP3    H123720   6.192   5.870  10.701 -1.1354 -2.9942  0.4644
  743TIP3    H223721   6.124   5.918  10.828  0.6676  1.1238 -0.0433
  744TIP3   OH223722   1.163   4.414  14.756 -0.3414 -0.6819  0.4859
  744TIP3    H123723   1.233   4.472  14.726 -1.2417 -0.2799 -0.9300
  744TIP3    H223724   1.175   4.334  14.705 -0.0892 -1.1243  1.2370
  745TIP3   OH223725   1.898   4.475   2.776  0.4842 -0.0059  0.5865
  745TIP3    H123726   1.975   4.518   2.741  0.6712  0.1985  1.2383
  745TIP3    H223727   1.887   4.512   2.864  1.3884 -2.1568  1.6479
  746TIP3   OH223728   2.468   3.593  11.327 -0.0815  0.0356 -0.0575
  746TIP3    H123729   2.549   3.544  11.343  0.2442  0.7185  0.4016
  746TIP3    H223730   2.398   3.533  11.354  0.4239  0.9185  3.4514
  747TIP3   OH223731   2.383   1.448   3.567 -0.4823 -0.1850 -0.1208
  747TIP3    H123732   2.464   1.409   3.599 -0.9647 -0.7703  0.3997
  747TIP3    H223733   2.411   1.508   3.498  0.5489  0.9712  1.2761
  748TIP3   OH223734   3.053   1.521   1.705  0.3343 -0.7201 -0.2269
  748TIP3    H123735   3.044   1.572   1.625 -0.5525  0.1641  0.4348
  748TIP3    H223736   2.969   1.474   1.714 -0.8856  1.7096  1.9043
  749TIP3   OH223737   3.915   3.029  12.133 -0.0878  0.1006 -0.3518
  749TIP3    H123738   3.827   3.019  12.170 -0.3000  0.9101 -0.6512
  749TIP3    H223739   3.929   3.123  12.129  1.6166 -0.0312  1.6503
  750TIP3   OH223740   4.619   0.942  14.696  0.0655 -0.2519  0.3105
  750TIP3    H123741   4.618   0.891  14.777  0.9122 -0.9295 -0.0968
  750TIP3    H223742   4.541   0.915  14.649  0.0095 -0.4669  0.5294
  751TIP3   OH223743   1.930   5.478   1.013 -0.0647  0.5887 -0.0948
  751TIP3    H123744   1.843   5.484   1.053  0.2985  3.1552  0.3879
  751TIP3    H223745   1.914   5.490   0.919 -0.3975 -0.8188 -0.2418
  752TIP3   OH223746   5.272   3.036  13.897 -0.3734  0.0588  0.2049
  752TIP3    H123747   5.193   3.086  13.874 -1.8118 -2.0682  0.4057
  752TIP3    H223748   5.274   3.037  13.993 -0.8200 -0.8821  0.2292
  753TIP3   OH223749   3.375   5.718  13.392  0.4970 -0.4365  0.0634
  753TIP3    H123750   3.370   5.627  13.422 -0.0807 -0.0150  1.2728
  753TIP3    H223751   3.314   5.722  13.318  2.0081 -1.5040 -1.2749
  754TIP3   OH223752   0.228   0.251  10.578  0.3171 -0.3266  0.2402
  754TIP3    H123753   0.153   0.297  10.540 -0.0315 -1.4557 -0.4715
  754TIP3    H223754   0.284   0.230  10.503  0.5269 -0.9430  0.5662
  755TIP3   OH223755   4.101   0.213  12.191  0.3701 -0.0127  0.2493
  755TIP3    H123756   4.036   0.143  12.185 -1.6454  1.8613 -0.4521
  755TIP3    H223757   4.077   0.260  12.271 -0.6436  2.0916 -1.2443
  756TIP3   OH223758   6.566   1.623   5.385  0.3610 -0.7247  0.0578
  756TIP3    H123759   6.477   1.639   5.416 -0.1219 -1.1994 -1.0230
  756TIP3    H223760   6.553   1.585   5.297  1.5812 -2.1101  0.4588
  757TIP3   OH223761   6.267   5.375  16.163  0.0971 -0.3525 -0.0334
  757TIP3    H123762   6.321   5.449  16.189  2.4874 -1.5445 -1.3874
  757TIP3    H223763   6.177   5.403  16.179  1.0498  2.1485  1.1339
  758TIP3   OH223764   5.621   3.404   5.878 -0.5308  0.1186  0.3009
  758TIP3    H123765   5.672   3.454   5.814 -0.9370  3.0078  2.1677
  758TIP3    H223766   5.530   3.417   5.851 -0.6550  0.7093  0.9846
  759TIP3   OH223767   6.248   0.986   1.212 -0.4728  0.0025  0.8232
  759TIP3    H123768   6.184   1.028   1.153  0.2884  0.1577  0.0865
  759TIP3    H223769   6.331   1.028   1.189 -0.2048  0.2179  2.1788
  760TIP3   OH223770   1.289   0.345   2.135 -0.3399  0.5913 -0.5030
  760TIP3    H123771   1.285   0.295   2.217  0.6554  1.7146  0.2453
  760TIP3    H223772   1.298   0.279   2.067  1.7910 -0.2515  0.5384
  761TIP3   OH223773   1.914   3.271  13.785 -0.4877  0.0304  0.0455
  761TIP3    H123774   1.967   3.324  13.726  0.1341 -0.8335 -0.1780
  761TIP3    H223775   1.824   3.290  13.760 -0.2948  1.2858  0.2379
  762TIP3   OH223776   4.675   5.633  12.325 -0.7510  0.1214 -0.3810
  762TIP3    H123777   4.701   5.575  12.397 -1.6639  0.8185  0.5301
  762TIP3    H223778   4.691   5.721  12.359  0.9123  0.4046 -1.8730
  763TIP3   OH223779   4.415   3.028  12.945  0.1290 -0.6147  0.7844
  763TIP3    H123780   4.496   3.018  12.895 -0.0210  2.4869 -0.1938
  763TIP3    H223781   4.391   3.120  12.934 -3.1658 -1.2943  1.6209
  764TIP3   OH223782   3.348   3.510   6.398  0.1095 -0.0203  0.3651
  764TIP3    H123783   3.379   3.574   6.334 -0.8815  0.6892  0.5878
  764TIP3    H223784   3.422   3.499   6.458  0.7669 -0.1143 -0.4550
  765TIP3   OH223785   3.234   3.146  15.068 -0.0075  0.4535  0.1060
  765TIP3    H123786   3.267   3.059  15.046 -0.1174 -0.2686  2.5576
  765TIP3    H223787   3.240   3.195  14.987  3.0740 -0.9207 -0.6056
  766TIP3   OH223788   2.769   6.044   0.087  0.2804  0.3636  0.1154
  766TIP3    H123789   2.743   6.113   0.148 -0.9566 -1.4572  1.7151
  766TIP3    H223790   2.693   5.985   0.084  1.2388 -0.8219 -1.3523
  767TIP3   OH223791   3.072   5.065   0.024 -0.2843  0.2801  0.4454
  767TIP3    H123792   3.028   5.047  -0.059  0.3729 -0.3874  0.2318
  767TIP3    H223793   3.013   5.125   0.071 -1.2783 -0.3993  0.0653
  768TIP3   OH223794   3.761   2.074  11.078 -0.1631 -0.1723 -0.0595
  768TIP3    H123795   3.700   2.102  11.010  1.1953  0.1805 -1.1555
  768TIP3    H223796   3.757   2.145  11.143 -0.8070 -0.0831 -0.1906
  769TIP3   OH223797   6.639   1.221  14.022 -0.2383  0.5113 -0.4203
  769TIP3    H123798   6.734   1.225  14.023 -0.3128  2.2828  0.3040
  769TIP3    H223799   6.615   1.239  13.931  0.1499 -1.2266 -0.8856
  770TIP3   OH223800   6.179   4.690   0.814 -0.1529 -0.5300 -0.5622
  770TIP3    H123801   6.154   4.600   0.794  2.4109 -0.7076 -3.4185
  770TIP3    H223802   6.115   4.744   0.768 -1.4698 -0.8690  0.8423
  771TIP3   OH223803   5.306   4.775   1.179  0.5207 -0.3750 -0.2602
  771TIP3    H123804   5.358   4.817   1.110  2.5337 -2.4385 -0.0326
  771TIP3    H223805   5.275   4.693   1.139 -1.8468  0.3936 -0.0887
  772TIP3   OH223806   5.954   6.041  11.278 -0.0382 -0.0404 -0.1537
  772TIP3    H123807   5.989   6.130  11.267 -1.2294  0.3876 -0.5545
  772TIP3    H223808   5.944   6.009  11.188 -0.6396 -0.1683 -0.0407
  773TIP3   OH223809   1.311   4.182  15.636  0.1823  0.7487 -0.0474
  773TIP3    H123810   1.245   4.169  15.704 -1.2385 -0.2066 -1.5609
  773TIP3    H223811   1.375   4.241  15.675 -0.5426  0.1283  2.1435
  774TIP3   OH223812   2.288   1.624  11.091 -0.1008 -0.1801 -0.0297
  774TIP3    H123813   2.226   1.571  11.140  1.6176 -2.3072 -0.1016
  774TIP3    H223814   2.233   1.685  11.041 -1.9885 -0.2320  1.9152
  775TIP3   OH223815   0.139   3.279   2.748 -0.3106  0.5214  0.7875
  775TIP3    H123816   0.045   3.293   2.739 -0.3363 -0.3569 -0.4559
  775TIP3    H223817   0.175   3.367   2.761 -1.3173  0.8427  1.4403
  776TIP3   OH223818   2.750   6.010   1.403 -0.0095  0.5413  0.2112
  776TIP3    H123819   2.785   5.923   1.388 -0.8873  0.1140  0.6476
  776TIP3    H223820   2.712   6.035   1.319 -0.2951  0.2625  0.2597
  777TIP3   OH223821   2.585   1.960   3.791 -0.5371  0.2059  0.2001
  777TIP3    H123822   2.575   1.887   3.852  2.0937 -1.0396 -0.8042
  777TIP3    H223823   2.659   2.010   3.825  0.8794 -0.4341 -1.8931
  778TIP3   OH223824   4.080   1.125   2.865  0.1093  0.4814 -0.3214
  778TIP3    H123825   4.032   1.107   2.946  1.2734 -1.8526 -0.0947
  778TIP3    H223826   4.117   1.212   2.878 -2.3410  1.4824  0.3153
  779TIP3   OH223827   6.227   3.546   4.338 -0.5205 -0.8260  0.0574
  779TIP3    H123828   6.135   3.548   4.365 -0.1599 -1.2414  1.3599
  779TIP3    H223829   6.258   3.635   4.356 -0.6387 -0.7009 -0.3327
  780TIP3   OH223830   5.092   1.083   4.020  0.0034 -0.1539  0.3029
  780TIP3    H123831   5.179   1.117   4.038 -0.1014  0.6060 -0.5867
  780TIP3    H223832   5.104   0.989   4.009  0.5579 -0.1839  1.1227
  781TIP3   OH223833   1.050   6.296   4.667 -0.4921 -1.0036  0.2406
  781TIP3    H123834   1.142   6.310   4.688 -0.8477 -0.0530  1.2098
  781TIP3    H223835   1.043   6.318   4.574 -0.3413  2.0268  0.9112
  782TIP3   OH223836   3.203   0.750   2.845  0.6409  0.0800  0.1521
  782TIP3    H123837   3.119   0.709   2.865  0.7655  0.4778  1.5763
  782TIP3    H223838   3.264   0.714   2.910  1.3861  0.4147 -0.3437
  783TIP3   OH223839   4.391   6.379   3.348  0.3052 -0.0522  0.7513
  783TIP3    H123840   4.402   6.296   3.394 -0.2735 -0.3602  0.3455
  783TIP3    H223841   4.370   6.442   3.417 -0.8911 -0.5805  0.8937
  784TIP3   OH223842   6.083   3.390   3.691 -0.6945  0.1971  0.7620
  784TIP3    H123843   6.094   3.412   3.599 -0.1662  1.4011  1.1019
  784TIP3    H223844   6.000   3.343   3.695 -0.1273 -0.9311 -0.5012
  785TIP3   OH223845   3.574   6.527  14.724  0.0422  0.0296  0.3021
  785TIP3    H123846   3.563   6.461  14.656  2.4866  0.0713 -0.1732
  785TIP3    H223847   3.498   6.585  14.714 -0.4462 -0.8632 -1.3426
  786TIP3   OH223848   5.048   4.736  15.812  0.4514 -0.6691  0.5140
  786TIP3    H123849   4.965   4.708  15.851 -0.1308  4.9115  3.8403
  786TIP3    H223850   5.023   4.796  15.742  1.6434 -0.5725  0.1674
  787TIP3   OH223851   1.584   4.185  15.291  0.2328  0.3113 -0.0517
  787TIP3    H123852   1.498   4.155  15.322 -0.1557  0.6967 -0.7409
  787TIP3    H223853   1.616   4.114  15.235 -0.7005  1.1552 -1.7078
  788TIP3   OH223854   0.148   6.366  15.284 -0.2978 -0.2833 -0.1600
  788TIP3    H123855   0.232   6.327  15.262 -0.0350 -0.6358  1.4195
  788TIP3    H223856   0.149   6.452  15.240  0.6114 -0.5463 -0.6582
  789TIP3   OH223857   0.179   3.945  17.081 -0.3764 -0.0557 -0.2606
  789TIP3    H123858   0.106   3.938  17.143  0.1415 -0.5524  0.3041
  789TIP3    H223859   0.188   4.039  17.065  0.0394  0.1419  1.0939
  790TIP3   OH223860   0.264   3.318  15.206 -0.2154  0.1072 -0.5834
  790TIP3    H123861   0.289   3.324  15.114  0.4125 -0.8216 -0.4759
  790TIP3    H223862   0.300   3.235  15.236 -1.0179  0.0797  0.3217
  791TIP3   OH223863   1.889   3.593  14.680 -0.5451 -0.1985  0.5260
  791TIP3    H123864   1.882   3.688  14.685 -0.0499 -0.1580  0.4202
  791TIP3    H223865   1.979   3.576  14.652 -0.6700 -0.6935  0.4154
  792TIP3   OH223866   0.422   6.091  14.123 -0.1942 -0.7239 -0.8479
  792TIP3    H123867   0.414   6.175  14.078 -0.3070 -0.2782  0.0023
  792TIP3    H223868   0.516   6.070  14.117 -0.2723 -0.8831 -1.6580
  793TIP3   OH223869   4.485   3.312  16.496  0.1633  0.3641  0.3097
  793TIP3    H123870   4.409   3.298  16.439  0.2175  0.5850  0.1804
  793TIP3    H223871   4.545   3.240  16.473  0.2841  0.5879 -0.0804
  794TIP3   OH223872   4.297   2.701  16.010 -0.3039  0.4651 -0.6023
  794TIP3    H123873   4.368   2.763  16.022 -0.8992  0.9017  0.7305
  794TIP3    H223874   4.340   2.615  16.008  0.3241  0.7761 -0.4348
  795TIP3   OH223875   2.813   3.580   2.247 -0.1342  0.5453  0.4337
  795TIP3    H123876   2.812   3.526   2.167  0.4101  0.4496  0.4912
  795TIP3    H223877   2.848   3.522   2.314 -0.4946  0.6605  0.7188
  796TIP3   OH223878   4.699   2.244  10.571  0.4550  0.2535 -0.0104
  796TIP3    H123879   4.696   2.256  10.666  0.0284 -1.0771  0.1547
  796TIP3    H223880   4.730   2.328  10.537  0.6976  0.7079  1.3099
  797TIP3   OH223881   2.146   4.033  11.377 -0.0478  0.1581 -0.0423
  797TIP3    H123882   2.061   4.002  11.346  0.4003 -0.0820 -1.0771
  797TIP3    H223883   2.184   3.958  11.423 -0.5266  0.3661  0.6905
  798TIP3   OH223884   5.646   1.155   2.393 -0.1267  0.3519 -0.1217
  798TIP3    H123885   5.640   1.249   2.375 -1.3573  0.3601  0.3264
  798TIP3    H223886   5.685   1.118   2.313 -1.4252  0.9791 -1.0676
  799TIP3   OH223887   0.864   4.064   0.077  0.7092  0.3692 -0.1525
  799TIP3    H123888   0.955   4.046   0.052  1.0532 -0.0488  1.3102
  799TIP3    H223889   0.847   4.004   0.150 -0.0893  1.8215  0.8908
  800TIP3   OH223890   0.078   1.114   1.786  0.2126 -0.0779  0.4890
  800TIP3    H123891   0.094   1.169   1.710  0.2156 -0.2300  0.3794
  800TIP3    H223892  -0.005   1.070   1.767  0.2799 -0.2166  0.5142
  801TIP3   OH223893   4.304   3.209   1.348  0.0348  0.0374 -0.0164
  801TIP3    H123894   4.251   3.217   1.270 -2.8132 -1.9864  1.6396
  801TIP3    H223895   4.321   3.300   1.375  0.8457  0.7480 -2.7399
  802TIP3   OH223896   3.499   6.722  14.985 -0.0756 -0.3294 -0.3872
  802TIP3    H123897   3.463   6.634  14.981 -0.6120 -0.0568 -1.9287
  802TIP3    H223898   3.539   6.728  15.072  0.8432 -2.4185 -0.6351
  803TIP3   OH223899   5.574   0.761  15.193 -0.6263 -0.0256  0.0203
  803TIP3    H123900   5.548   0.686  15.140 -0.4478  1.6212 -2.5344
  803TIP3    H223901   5.662   0.740  15.224 -1.0360 -1.3453  0.3297
  804TIP3   OH223902   3.587   2.284  13.061  0.0573 -0.0822  0.3200
  804TIP3    H123903   3.575   2.244  13.146  0.1744  0.3450  0.5395
  804TIP3    H223904   3.564   2.376  13.074 -0.5216 -0.1394 -0.2481
  805TIP3   OH223905   3.858   6.552   5.719  0.3930 -0.2608 -0.6257
  805TIP3    H123906   3.877   6.540   5.812  1.2976  0.6915 -0.6896
  805TIP3    H223907   3.766   6.524   5.710  0.6055 -1.3183  0.3554
  806TIP3   OH223908   6.106   0.689  16.993  0.0756 -0.3515 -0.1032
  806TIP3    H123909   6.047   0.763  17.007  1.5104  0.5270  1.3340
  806TIP3    H223910   6.105   0.676  16.898  0.5345  2.1265 -0.4920
  807TIP3   OH223911   5.310   6.743  13.232 -0.5407 -0.0400  0.1434
  807TIP3    H123912   5.262   6.667  13.264  1.0086 -1.2652 -0.3926
  807TIP3    H223913   5.327   6.723  13.140 -0.8070  1.3237 -0.2160
  808TIP3   OH223914   1.915   2.617   2.183  0.2289  0.0022  0.4782
  808TIP3    H123915   1.884   2.610   2.273 -0.3038  0.5140  0.3374
  808TIP3    H223916   1.845   2.663   2.137 -1.1544 -3.4049 -0.9872
  809TIP3   OH223917   4.237   5.605   1.635  0.5161 -0.0850  0.3342
  809TIP3    H123918   4.191   5.652   1.705 -2.2857 -0.9886 -0.8326
  809TIP3    H223919   4.330   5.622   1.652 -0.2144  1.7771  2.7921
  810TIP3   OH223920   4.276   6.090   6.635 -0.0898  0.3767  0.3373
  810TIP3    H123921   4.210   6.034   6.594  0.5059 -0.2479  0.2138
  810TIP3    H223922   4.343   6.029   6.666  1.2952  1.1250 -1.1342
  811TIP3   OH223923   5.562   0.619   0.907  0.1631 -0.1659 -0.6374
  811TIP3    H123924   5.637   0.560   0.892  0.3014  0.0346 -0.7338
  811TIP3    H223925   5.569   0.643   0.999  1.6092  1.7659 -1.2199
  812TIP3   OH223926   4.889   4.702  16.209 -0.0512  0.5219  0.0520
  812TIP3    H123927   4.983   4.704  16.190 -0.2832 -0.2731 -1.2845
  812TIP3    H223928   4.861   4.793  16.197 -0.2583  0.0063 -4.1043
  813TIP3   OH223929   2.583   4.668  10.685 -0.5412 -0.2449  0.0843
  813TIP3    H123930   2.605   4.645  10.775  1.8268  0.1255 -0.3790
  813TIP3    H223931   2.599   4.587  10.636 -1.7177 -0.4141 -0.0274
  814TIP3   OH223932   3.828   3.238  13.081  0.4254 -0.0035 -0.4674
  814TIP3    H123933   3.896   3.232  13.014  0.6647  0.6343 -0.2867
  814TIP3    H223934   3.872   3.280  13.155 -0.8173  2.6937 -1.2098
  815TIP3   OH223935   6.666   2.219   4.871 -0.2495  0.0170 -0.5332
  815TIP3    H123936   6.626   2.132   4.870 -0.4541  0.1203 -1.2105
  815TIP3    H223937   6.759   2.203   4.857 -0.3333 -0.0686 -0.9981
  816TIP3   OH223938   0.426   4.216   1.957 -0.2597 -0.5292 -0.0796
  816TIP3    H123939   0.441   4.287   1.895  0.2196 -0.5328  0.0297
  816TIP3    H223940   0.513   4.184   1.978 -0.2890  0.5402  1.8378
  817TIP3   OH223941   2.450   0.792  15.647 -0.1864 -0.5630 -0.1634
  817TIP3    H123942   2.507   0.827  15.714 -0.5607  1.5494 -0.9063
  817TIP3    H223943   2.504   0.791  15.567 -1.3268  2.1170 -1.0306
  818TIP3   OH223944   3.616   0.505  10.645 -0.1094 -0.2446 -0.3582
  818TIP3    H123945   3.567   0.573  10.599 -1.0391 -0.7655 -0.1621
  818TIP3    H223946   3.553   0.469  10.708  0.8498 -0.1949  0.6509
  819TIP3   OH223947   1.868   3.242  10.852  0.2374 -0.4519 -0.2641
  819TIP3    H123948   1.922   3.211  10.924  1.0694  0.9732 -0.2706
  819TIP3    H223949   1.896   3.189  10.776  2.9402  1.5289 -0.6995
  820TIP3   OH223950   5.345   2.414  13.490  0.2427  0.6605 -0.0935
  820TIP3    H123951   5.291   2.336  13.498 -0.9628  1.5396  0.4904
  820TIP3    H223952   5.300   2.480  13.542  1.7555  1.4825  0.2209
  821TIP3   OH223953   4.544   5.808  11.432 -0.4498 -0.1615  0.0248
  821TIP3    H123954   4.455   5.826  11.461 -0.7223  0.4284 -1.1816
  821TIP3    H223955   4.566   5.725  11.475 -0.2984  1.3873  3.1140
  822TIP3   OH223956   2.968   6.728   5.925 -0.0984 -0.4300  0.7388
  822TIP3    H123957   2.955   6.822   5.937  2.1547 -0.1453  1.1204
  822TIP3    H223958   2.957   6.691   6.013 -0.7154 -0.5078  0.6339
  823TIP3   OH223959   1.946   2.205  16.198 -0.1033  0.4392 -0.0164
  823TIP3    H123960   1.891   2.258  16.255 -2.2847 -0.8874 -0.7912
  823TIP3    H223961   1.957   2.122  16.246  0.6322  0.4398 -0.1817
  824TIP3   OH223962   6.688   1.263  15.549  0.0479  0.3847  0.5226
  824TIP3    H123963   6.607   1.252  15.499 -0.7127  4.0576  0.7636
  824TIP3    H223964   6.665   1.240  15.639  0.0241 -1.2377  0.1042
  825TIP3   OH223965   0.438   5.476   0.308 -0.5535 -0.3235  0.2765
  825TIP3    H123966   0.407   5.403   0.360 -0.6180 -0.0465  0.6278
  825TIP3    H223967   0.381   5.476   0.231 -0.4031 -0.7812  0.1613
  826TIP3   OH223968   5.403   0.457  14.761  0.4404  0.0713 -0.0360
  826TIP3    H123969   5.376   0.372  14.727  0.4517  0.7096 -1.7390
  826TIP3    H223970   5.489   0.473  14.721 -0.6388  1.9390 -1.7521
  827TIP3   OH223971   4.218   6.088  15.851  0.3105  0.4538  0.7492
  827TIP3    H123972   4.172   6.027  15.793  0.6724  0.9816 -0.1050
  827TIP3    H223973   4.244   6.160  15.794  1.9907  0.2806  1.2611
  828TIP3   OH223974   5.955   1.584   4.785  0.0218 -0.0892  0.2878
  828TIP3    H123975   5.958   1.498   4.743  1.5865 -0.4625  1.1485
  828TIP3    H223976   5.934   1.565   4.877 -1.2776  0.5759  0.1384
  829TIP3   OH223977   6.733   1.206   1.120 -0.5302 -0.2790  0.2475
  829TIP3    H123978   6.653   1.156   1.137 -1.2092  1.1997  1.6409
  829TIP3    H223979   6.705   1.298   1.128  0.6537  0.3441 -2.2873
  830TIP3   OH223980   5.702   1.326   3.499 -0.3240 -0.9674 -0.7746
  830TIP3    H123981   5.627   1.325   3.559 -1.3683 -1.4108 -2.0852
  830TIP3    H223982   5.763   1.388   3.539 -0.0539 -2.8712  1.8928
  831TIP3   OH223983   3.363   3.668  12.653  0.2996 -0.1098  0.2081
  831TIP3    H123984   3.344   3.612  12.578  0.2721 -0.0148  0.1441
  831TIP3    H223985   3.455   3.649  12.674 -0.2980 -1.7464  1.5084
  832TIP3   OH223986   3.454   0.892  11.781  0.7134  0.3079  0.9949
  832TIP3    H123987   3.400   0.966  11.750 -0.4882 -1.0761 -0.3206
  832TIP3    H223988   3.544   0.920  11.763  0.1442  0.2499 -2.4173
  833TIP3   OH223989   2.749   5.003   4.781 -0.0438 -0.1675  0.2618
  833TIP3    H123990   2.682   5.005   4.713 -0.0218 -3.9271  0.0647
  833TIP3    H223991   2.814   5.068   4.751 -1.1368 -0.1111 -2.1263
  834TIP3   OH223992   2.147   0.444   0.324  0.4323 -0.3195 -0.2844
  834TIP3    H123993   2.077   0.467   0.385  0.7986  0.2046 -0.0522
  834TIP3    H223994   2.174   0.527   0.286  0.7926 -0.5422 -0.5211
  835TIP3   OH223995   3.203   3.593   3.589  0.2444  0.3088  0.0657
  835TIP3    H123996   3.262   3.548   3.649  0.6743  0.3041 -0.3605
  835TIP3    H223997   3.166   3.523   3.536 -0.1410  0.3126  0.3256
  836TIP3   OH223998   3.606   2.154  16.961 -0.5080 -0.0964  0.0918
  836TIP3    H123999   3.635   2.195  16.880 -0.3878 -0.8339 -0.2433
  836TIP3    H224000   3.600   2.061  16.940  1.1706 -0.5149  1.4223
  837TIP3   OH224001   3.418   3.498  15.368  0.2025  0.7680  0.0010
  837TIP3    H124002   3.355   3.462  15.306  0.5198  2.5075 -1.3529
  837TIP3    H224003   3.487   3.536  15.314  1.7261  0.1589  1.4580
  838TIP3   OH224004   3.590   1.750   0.349  0.1097 -0.0444  0.1272
  838TIP3    H124005   3.624   1.831   0.311  0.8781 -0.5196 -0.2085
  838TIP3    H224006   3.636   1.741   0.432 -0.1683  0.0012  0.2855
  839TIP3   OH224007   6.598   6.495  14.025 -0.0785 -0.1120  0.1765
  839TIP3    H124008   6.647   6.466  13.949 -0.4748  0.3506 -0.2626
  839TIP3    H224009   6.664   6.521  14.089  0.2480  1.2089 -0.6817
  840TIP3   OH224010   4.936   0.098  11.053 -0.1557 -0.0450  0.3696
  840TIP3    H124011   4.894   0.025  11.008  1.5978 -0.0532 -1.2937
  840TIP3    H224012   5.028   0.094  11.027  0.2464  1.9195  1.3549
  841TIP3   OH224013   6.735   4.856   1.835  0.1404  0.0099 -0.1813
  841TIP3    H124014   6.803   4.917   1.805  2.2105 -1.4339  1.4107
  841TIP3    H224015   6.675   4.910   1.886  1.5569  0.8925  0.6008
  842TIP3   OH224016   1.335   5.186  12.590 -0.5911 -0.4966 -0.2248
  842TIP3    H124017   1.260   5.157  12.643  0.5660 -0.0226  1.7229
  842TIP3    H224018   1.313   5.275  12.564  0.2717  0.4941  2.2984
  843TIP3   OH224019   1.594   6.020  15.882 -0.0306 -0.0937  0.2791
  843TIP3    H124020   1.606   5.987  15.970 -0.4575 -0.8593  0.0556
  843TIP3    H224021   1.517   5.973  15.849  1.6130 -1.7073 -1.4077
  844TIP3   OH224022   2.436   5.151   5.994  0.1094  0.2802  0.1091
  844TIP3    H124023   2.463   5.242   5.986  1.6428 -0.1049  0.8264
  844TIP3    H224024   2.375   5.151   6.068 -0.1750  0.7847 -0.1239
  845TIP3   OH224025   6.685   2.411  16.821 -0.3004  0.6654  0.2715
  845TIP3    H124026   6.619   2.473  16.792  0.1982  1.7986  1.4816
  845TIP3    H224027   6.690   2.346  16.751 -0.7922  2.0233 -1.0594
  846TIP3   OH224028   3.033   1.932   3.657 -0.0235  0.3039 -0.1444
  846TIP3    H124029   2.998   1.848   3.687  1.3289 -0.5291 -0.8233
  846TIP3    H224030   2.996   1.942   3.569 -0.6400  0.7040  0.1571
  847TIP3   OH224031   1.045   4.836   3.316 -0.1764 -0.3024  0.8485
  847TIP3    H124032   1.093   4.873   3.390 -1.7796  0.3197  1.5944
  847TIP3    H224033   0.990   4.907   3.284 -0.2460 -0.8642 -0.3259
  848TIP3   OH224034   2.426   0.310  12.076 -0.0390  0.3549  0.3392
  848TIP3    H124035   2.518   0.334  12.078 -0.0676  0.3857  1.7017
  848TIP3    H224036   2.405   0.287  12.167 -1.3265  0.1982  0.0143
  849TIP3   OH224037   1.854   2.795   3.591 -0.1674  0.2159 -0.0924
  849TIP3    H124038   1.895   2.709   3.577  1.3082  0.8518  0.2508
  849TIP3    H224039   1.849   2.833   3.503  1.3164  0.7131  0.0158
  850TIP3   OH224040   5.469   2.265   5.207 -0.4956 -0.1414  0.4762
  850TIP3    H124041   5.494   2.348   5.166 -0.1422 -0.9281 -0.9044
  850TIP3    H224042   5.392   2.287   5.260  0.2776  1.3013  1.0325
  851TIP3   OH224043   6.098   2.936  14.273  0.2883  0.0202  0.0593
  851TIP3    H124044   6.023   2.995  14.271  0.3475  0.0641 -1.2517
  851TIP3    H224045   6.091   2.891  14.357 -1.1072  0.1361  0.0120
  852TIP3   OH224046   3.171   3.975   2.781 -0.1757 -0.2722  0.4719
  852TIP3    H124047   3.228   4.049   2.804  1.5245 -0.9782 -1.3680
  852TIP3    H224048   3.100   4.015   2.731 -0.0782  0.3030  0.7799
  853TIP3   OH224049   4.657   6.367  12.685 -0.5434 -0.3446 -0.2027
  853TIP3    H124050   4.680   6.319  12.605  1.1851 -0.1715  0.1821
  853TIP3    H224051   4.583   6.422  12.659 -0.0778 -0.3827 -1.6479
  854TIP3   OH224052   3.746   1.676   1.885 -0.1628 -0.0482 -0.1351
  854TIP3    H124053   3.679   1.609   1.900 -0.5535  0.1922 -0.7610
  854TIP3    H224054   3.794   1.644   1.808  0.3128 -0.1181  0.1878
  855TIP3   OH224055   0.490   5.104  15.191 -0.1157  0.0649  0.6374
  855TIP3    H124056   0.479   5.198  15.180 -2.1133 -0.2433 -0.2403
  855TIP3    H224057   0.517   5.072  15.105 -0.7621 -0.3176  0.5649
  856TIP3   OH224058   4.677   2.258  16.852 -0.1342 -0.1897  0.2408
  856TIP3    H124059   4.672   2.202  16.775  1.2696 -1.6883  1.2091
  856TIP3    H224060   4.638   2.207  16.922  1.3500 -0.0716  1.1818
  857TIP3   OH224061   2.163   0.097  13.584 -0.1241  0.0185  0.3049
  857TIP3    H124062   2.105   0.059  13.518 -1.3342  2.1045  0.1286
  857TIP3    H224063   2.107   0.108  13.661  1.4424 -3.0562  1.9911
  858TIP3   OH224064   4.831   5.589  13.725  0.1708 -0.1937 -0.2053
  858TIP3    H124065   4.869   5.562  13.809 -1.6451 -0.6432  0.5007
  858TIP3    H224066   4.749   5.632  13.749 -0.5358 -0.6410 -1.7626
  859TIP3   OH224067   3.773   2.354   5.475  0.2178  0.1460 -0.1198
  859TIP3    H124068   3.753   2.390   5.562  0.2788  1.5262 -0.6682
  859TIP3    H224069   3.847   2.295   5.490  0.2991  0.4645  0.7574
  860TIP3   OH224070   2.005   1.740   4.877  0.2888  0.2249  0.8078
  860TIP3    H124071   2.011   1.829   4.911  1.2878  1.1958 -1.7581
  860TIP3    H224072   2.063   1.689   4.934  1.1546  1.5865  1.1643
  861TIP3   OH224073   2.162   2.750  15.162  0.1082 -0.5213  0.0856
  861TIP3    H124074   2.129   2.783  15.078  2.6868 -1.5554 -1.4145
  861TIP3    H224075   2.087   2.753  15.221 -1.3597  1.7091 -1.8284
  862TIP3   OH224076   3.911   4.283  17.281 -0.1217  0.1042  0.4672
  862TIP3    H124077   3.887   4.252  17.194  0.0096 -0.7697  0.7337
  862TIP3    H224078   3.953   4.208  17.323  0.7253  0.8234  0.9327
  863TIP3   OH224079   4.643   5.218  13.594 -0.5315 -0.8911 -0.3371
  863TIP3    H124080   4.650   5.146  13.657  1.0044  0.6276  1.2944
  863TIP3    H224081   4.551   5.217  13.567 -1.2001 -1.6763  1.8498
  864TIP3   OH224082   2.830   0.104   1.522  1.2834 -0.1894  0.2262
  864TIP3    H124083   2.893   0.131   1.456 -0.1824 -1.2756 -1.6642
  864TIP3    H224084   2.749   0.150   1.499  0.7090 -0.7005  1.1664
  865TIP3   OH224085   3.742   2.152   1.572 -0.7551 -0.0378  0.4334
  865TIP3    H124086   3.660   2.118   1.609 -0.8607 -1.1156 -0.7632
  865TIP3    H224087   3.800   2.076   1.567 -0.5853  0.1709 -1.1628
  866TIP3   OH224088   0.752   0.412   1.886 -0.0574 -0.0128 -0.2413
  866TIP3    H124089   0.715   0.332   1.848  0.9851  0.1426 -1.6027
  866TIP3    H224090   0.690   0.481   1.864  1.3468  0.3768 -3.1301
  867TIP3   OH224091   1.276   1.615  14.084  0.0514 -0.1492 -0.1263
  867TIP3    H124092   1.342   1.608  14.154 -0.0561 -0.6311 -0.0689
  867TIP3    H224093   1.270   1.708  14.065  0.9985 -0.1390 -0.3707
  868TIP3   OH224094   0.232   0.621  14.238  0.1199 -0.4512 -0.2513
  868TIP3    H124095   0.206   0.696  14.291  0.9250 -0.1165 -0.3367
  868TIP3    H224096   0.313   0.648  14.195 -0.9408 -0.4148 -2.2696
  869TIP3   OH224097   0.107   0.669   5.119 -0.2547  0.2537 -0.1577
  869TIP3    H124098   0.156   0.749   5.137 -3.1376  1.8970  0.7851
  869TIP3    H224099   0.089   0.672   5.025 -0.8275  1.0004 -0.0252
  870TIP3   OH224100   2.566   5.428  11.115  0.3794 -0.4997  0.2103
  870TIP3    H124101   2.576   5.517  11.149 -0.6806 -0.5423  0.6560
  870TIP3    H224102   2.575   5.437  11.020 -1.4240  0.3487  0.1021
  871TIP3   OH224103   3.226   0.616  12.561  0.6256  0.2323  0.1934
  871TIP3    H124104   3.211   0.534  12.609 -0.8393 -0.1291 -0.8492
  871TIP3    H224105   3.292   0.594  12.496  1.3126  0.2605  0.8800
  872TIP3   OH224106   4.295   4.921   3.887  0.3841  0.6361 -0.2169
  872TIP3    H124107   4.337   4.982   3.826 -0.0104  0.9564 -0.1658
  872TIP3    H224108   4.360   4.909   3.957  0.5908  0.7442 -0.3897
  873TIP3   OH224109   6.358   6.428   5.579 -0.4582 -0.1702  0.5027
  873TIP3    H124110   6.424   6.444   5.646  0.1362 -0.6122  0.0303
  873TIP3    H224111   6.275   6.449   5.622  0.2119  3.7204  0.0134
  874TIP3   OH224112   4.102   5.153  15.062 -0.1173  0.3279  0.1838
  874TIP3    H124113   4.049   5.219  15.107  1.0591  1.9286 -0.7421
  874TIP3    H224114   4.135   5.097  15.132  0.0819  1.6144  1.1284
  875TIP3   OH224115   4.422   3.203  14.392 -0.4705 -0.5672 -0.1643
  875TIP3    H124116   4.386   3.275  14.340 -1.1192 -1.8417 -1.5161
  875TIP3    H224117   4.517   3.208  14.377 -0.3921  0.7408  0.7223
  876TIP3   OH224118   0.138   6.376   7.022  0.0969 -0.2613  0.3442
  876TIP3    H124119   0.062   6.413   7.066 -0.8568 -0.0462 -1.4158
  876TIP3    H224120   0.126   6.399   6.930  0.5235 -3.1603 -0.5010
  877TIP3   OH224121   4.483   2.246  11.578  1.0202  0.5367  0.0910
  877TIP3    H124122   4.404   2.286  11.542  1.6511  0.6777 -1.1753
  877TIP3    H224123   4.554   2.285  11.527  1.7906 -0.6756  0.2247
  878TIP3   OH224124   5.425   5.928  13.254 -0.2879  0.1662 -0.1836
  878TIP3    H124125   5.458   5.988  13.322  0.6963 -1.0439  0.4254
  878TIP3    H224126   5.468   5.958  13.174  0.6527 -0.0592  0.2203
  879TIP3   OH224127   2.813   2.498  16.811  0.7184 -0.0863 -0.1769
  879TIP3    H124128   2.737   2.439  16.814  0.9210 -0.7602 -4.5003
  879TIP3    H224129   2.775   2.586  16.816 -0.0042 -0.4781  1.4452
  880TIP3   OH224130   6.493   0.459   3.598 -0.4901  0.2638  0.2472
  880TIP3    H124131   6.537   0.536   3.635 -1.5357  0.5778  0.8712
  880TIP3    H224132   6.490   0.476   3.504  0.5222  0.3313  0.2151
  881TIP3   OH224133   5.293   4.501   5.964  0.7422  0.1960 -0.1695
  881TIP3    H124134   5.325   4.585   5.996  1.9022 -0.4889  0.5143
  881TIP3    H224135   5.221   4.523   5.906  1.8308  1.7413 -0.9690
  882TIP3   OH224136   5.208   0.286   2.481  0.8989 -0.0035  0.0458
  882TIP3    H124137   5.193   0.377   2.507  1.1045  0.1237 -0.2729
  882TIP3    H224138   5.302   0.273   2.495  0.7230 -0.4126  0.8525
  883TIP3   OH224139   3.442   1.323  11.242 -0.1614 -0.2547 -0.6683
  883TIP3    H124140   3.506   1.394  11.236 -0.7338  0.1508 -2.2137
  883TIP3    H224141   3.442   1.283  11.155 -0.1579 -1.8783  0.0744
  884TIP3   OH224142   0.996   6.275   4.403  0.3663 -0.5408  0.1928
  884TIP3    H124143   1.005   6.309   4.314  1.1344 -1.0475  0.0698
  884TIP3    H224144   0.906   6.244   4.408 -0.3530  1.4850  0.3067
  885TIP3   OH224145   0.644   1.242   4.533  0.0176  0.0828  0.1325
  885TIP3    H124146   0.605   1.235   4.620 -0.1134  0.9889  0.1575
  885TIP3    H224147   0.734   1.211   4.545 -0.3424 -0.8910  0.3309
  886TIP3   OH224148   5.553   1.991  13.609 -0.0013 -0.5542 -0.4612
  886TIP3    H124149   5.589   1.905  13.631  1.1179 -0.2972 -1.2166
  886TIP3    H224150   5.531   1.985  13.517 -2.0593 -0.7384  0.0285
  887TIP3   OH224151   2.991   1.178  14.144 -0.4863  0.6467 -0.4289
  887TIP3    H124152   3.031   1.261  14.116  1.0687  0.5522  1.4693
  887TIP3    H224153   2.913   1.205  14.193  1.1490  1.0740  1.9748
  888TIP3   OH224154   1.851   0.209  13.107 -0.1112 -0.0476 -0.2683
  888TIP3    H124155   1.932   0.220  13.157 -0.3554  3.3221 -0.4634
  888TIP3    H224156   1.781   0.227  13.170 -0.6338 -0.8381 -0.6068
  889TIP3   OH224157   6.362   3.203   5.060  0.0273  0.1534  0.2872
  889TIP3    H124158   6.308   3.273   5.025 -0.3397 -0.0530  0.4389
  889TIP3    H224159   6.408   3.168   4.984  0.1696  0.5214  0.2034
  890TIP3   OH224160   0.227   6.026   5.874  0.2761 -0.1553  0.0691
  890TIP3    H124161   0.169   5.986   5.809  0.1982  0.1754 -0.0658
  890TIP3    H224162   0.211   5.975   5.953  0.1832 -0.3985 -0.1014
  891TIP3   OH224163   2.555   1.365  16.773  0.3611 -0.6222 -0.4894
  891TIP3    H124164   2.619   1.303  16.807  1.0479  0.8077  0.9364
  891TIP3    H224165   2.552   1.435  16.839 -0.9888  0.4454 -1.6367
  892TIP3   OH224166   5.756   1.842  14.320  0.1254  0.2662 -0.1971
  892TIP3    H124167   5.706   1.770  14.281  0.3892 -0.4119  0.6808
  892TIP3    H224168   5.822   1.863  14.254 -0.5009  0.2992 -0.8240
  893TIP3   OH224169   5.451   1.052   0.466 -0.1286 -0.0088  0.5294
  893TIP3    H124170   5.478   0.962   0.486  0.8209 -0.2756 -1.8408
  893TIP3    H224171   5.533   1.102   0.465 -0.3565  0.3613 -0.6801
  894TIP3   OH224172   5.729   2.156  12.487 -0.6979 -0.5204  0.0462
  894TIP3    H124173   5.680   2.197  12.416 -1.7959  0.2598  1.2244
  894TIP3    H224174   5.704   2.064  12.484 -0.0979 -0.6512 -1.0901
  895TIP3   OH224175   0.212   3.515   6.079  0.0454 -0.0669 -0.3388
  895TIP3    H124176   0.125   3.542   6.109  0.2187  0.6985 -0.4982
  895TIP3    H224177   0.235   3.441   6.135 -0.9562 -0.6546 -0.6886
  896TIP3   OH224178   5.576   0.632   2.616  0.6146  0.3879 -0.2811
  896TIP3    H124179   5.488   0.667   2.611  0.5896  0.2484 -0.9618
  896TIP3    H224180   5.628   0.688   2.558  0.7927 -0.0340 -0.5380
  897TIP3   OH224181   5.875   1.515  13.630  0.0798  0.2994 -0.0150
  897TIP3    H124182   5.821   1.464  13.569 -0.5801  2.6756 -1.4788
  897TIP3    H224183   5.824   1.518  13.711 -0.8743  0.5152 -0.6230
  898TIP3   OH224184   2.666   3.439  11.526  0.2302 -0.0334  0.5898
  898TIP3    H124185   2.737   3.387  11.490  0.1324  0.6449 -0.5913
  898TIP3    H224186   2.596   3.376  11.543 -0.5515 -0.0668 -2.5206
  899TIP3   OH224187   1.121   6.457  14.844  0.1808 -0.1963 -0.2681
  899TIP3    H124188   1.053   6.467  14.910  1.4002 -0.9501  1.1311
  899TIP3    H224189   1.115   6.365  14.817  1.5392 -0.6461  0.8931
  900TIP3   OH224190   5.545   6.342   5.761 -0.1272 -0.1378  0.3253
  900TIP3    H124191   5.525   6.256   5.725 -0.0521  0.3333 -0.8563
  900TIP3    H224192   5.471   6.361   5.819 -0.7606 -0.4643 -0.3690
  901TIP3   OH224193   1.618   2.992   2.030  0.2838 -0.4646 -0.1063
  901TIP3    H124194   1.536   2.979   1.983  0.8410 -0.3262 -1.1204
  901TIP3    H224195   1.665   3.058   1.980 -0.3224  1.8132  2.1960
  902TIP3   OH224196   0.518   1.660  12.152  0.1426  0.4506  0.0576
  902TIP3    H124197   0.562   1.706  12.223 -1.3461  0.4947  0.9867
  902TIP3    H224198   0.544   1.569  12.162 -2.1874 -0.0403  2.4048
  903TIP3   OH224199   3.624   3.300  13.836  0.1287  0.1529  0.4893
  903TIP3    H124200   3.545   3.271  13.791 -0.8046  0.1824  2.0813
  903TIP3    H224201   3.685   3.227  13.827 -0.2375 -0.0611 -0.3161
  904TIP3   OH224202   3.778   3.479   4.407  0.3735 -0.3776 -0.4189
  904TIP3    H124203   3.861   3.518   4.379  0.6445 -1.4072 -1.0417
  904TIP3    H224204   3.763   3.517   4.494  0.5769  1.2174 -1.0561
  905TIP3   OH224205   0.040   3.570  12.800 -0.7899 -0.1589 -0.5498
  905TIP3    H124206   0.087   3.487  12.797  0.0278  0.2325  0.9744
  905TIP3    H224207  -0.048   3.546  12.830  0.2748 -0.1649  2.7305
  906TIP3   OH224208   6.395   6.767  14.206 -0.0222  0.0048  0.6840
  906TIP3    H124209   6.343   6.847  14.197 -1.4299 -0.7928  1.5799
  906TIP3    H224210   6.339   6.698  14.172  1.0166 -0.6696  0.3327
  907TIP3   OH224211   3.680   4.283   1.359  0.0822 -0.1349 -0.0708
  907TIP3    H124212   3.662   4.333   1.439 -0.6258  0.4795 -0.6096
  907TIP3    H224213   3.621   4.207   1.365  1.7212 -1.3321  1.1283
  908TIP3   OH224214   1.385   6.109   0.705  0.0686  0.0800 -0.8498
  908TIP3    H124215   1.402   6.164   0.782 -0.9533 -0.5086 -0.1909
  908TIP3    H224216   1.405   6.020   0.734  1.2625  0.0320 -1.7755
  909TIP3   OH224217   4.729   1.227  14.972 -0.3418  0.0561 -0.1690
  909TIP3    H124218   4.657   1.172  15.002 -0.2062 -0.2468 -0.3949
  909TIP3    H224219   4.706   1.250  14.882 -0.7338  0.9385  0.1556
  910TIP3   OH224220   4.400   2.090   5.008 -0.3247  0.2833  1.0185
  910TIP3    H124221   4.333   2.159   5.004 -0.2472  0.3359  0.6775
  910TIP3    H224222   4.476   2.133   5.048 -0.6185  0.1217  1.7731
  911TIP3   OH224223   4.427   1.614   3.227  0.3269  0.2013  0.2177
  911TIP3    H124224   4.453   1.705   3.217 -0.8194  0.7546  2.2045
  911TIP3    H224225   4.439   1.595   3.320 -1.5536 -1.0010  0.2378
  912TIP3   OH224226   1.557   1.395  15.217 -0.1373 -0.4156 -0.0532
  912TIP3    H124227   1.587   1.471  15.166  0.5499 -0.5505  0.1344
  912TIP3    H224228   1.529   1.332  15.152  2.0438 -1.1272 -0.3529
  913TIP3   OH224229   1.845   1.835  15.334  0.7510 -0.0070  0.0166
  913TIP3    H124230   1.754   1.808  15.339  0.3725  1.3560  0.7977
  913TIP3    H224231   1.884   1.803  15.416  0.9887 -0.6033 -0.3236
  914TIP3   OH224232   3.838   2.075   0.400 -0.5616 -0.0738  0.2777
  914TIP3    H124233   3.825   2.107   0.489  0.5083  0.5280  0.2258
  914TIP3    H224234   3.751   2.047   0.372 -0.4502 -2.8691  2.5034
  915TIP3   OH224235   3.988   4.786   2.434  0.6694 -0.1121  0.0658
  915TIP3    H124236   4.078   4.818   2.432  0.0887  1.4973 -1.2557
  915TIP3    H224237   3.973   4.753   2.346  0.4134 -1.6865  0.6895
  916TIP3   OH224238   5.580   6.701  14.020  0.2265  0.1446 -0.0906
  916TIP3    H124239   5.587   6.795  14.038  1.0025  0.1209 -0.2444
  916TIP3    H224240   5.486   6.684  14.016  0.0601  0.6584  1.3281
  917TIP3   OH224241   2.226   6.621  16.811 -0.1690  0.0464  0.1220
  917TIP3    H124242   2.171   6.550  16.778  1.2579 -0.7928 -0.5350
  917TIP3    H224243   2.201   6.631  16.903 -0.6943 -1.0050  0.0980
  918TIP3   OH224244   6.721   1.809  12.065  0.3855  0.0324 -0.0995
  918TIP3    H124245   6.806   1.852  12.051  0.0259  0.4738 -0.9749
  918TIP3    H224246   6.686   1.852  12.143  0.9682 -0.1620  0.2752
  919TIP3   OH224247   6.101   2.154  15.896  0.7176 -0.0190  0.1056
  919TIP3    H124248   6.007   2.150  15.881  0.5504  0.9306  0.8298
  919TIP3    H224249   6.121   2.077  15.949 -0.0869  1.1294  2.1220
  920TIP3   OH224250   6.159   5.038   2.094 -0.6613  0.1041  0.2749
  920TIP3    H124251   6.172   5.125   2.055  0.6115 -0.7528 -1.2455
  920TIP3    H224252   6.085   5.001   2.045 -0.5982 -0.0357  0.2855
  921TIP3   OH224253   3.544   1.031  13.099 -0.3420  0.3903 -0.7354
  921TIP3    H124254   3.570   0.941  13.080 -0.5253  0.2809 -0.4578
  921TIP3    H224255   3.464   1.044  13.048  0.2265  0.7198 -1.5709
  922TIP3   OH224256   4.351   3.239  14.644  0.1654  0.2902 -0.2827
  922TIP3    H124257   4.297   3.170  14.680  0.6038  0.4641  0.7245
  922TIP3    H224258   4.378   3.206  14.558 -0.5395 -0.3004 -0.2814
  923TIP3   OH224259   6.330   0.998   5.432  0.0509  0.5712 -0.0993
  923TIP3    H124260   6.337   1.050   5.351 -0.4200  2.1639  0.8459
  923TIP3    H224261   6.263   1.044   5.483 -2.1465 -2.3829 -0.2217
  924TIP3   OH224262   0.355   4.548  14.806  0.0959 -0.2289 -0.8458
  924TIP3    H124263   0.384   4.608  14.737 -2.6160  1.2966 -0.7247
  924TIP3    H224264   0.373   4.595  14.887 -0.0271 -0.4964 -0.6658
  925TIP3   OH224265   4.147   3.573  11.639  0.0940  0.1456  0.1477
  925TIP3    H124266   4.171   3.633  11.569  0.4524 -1.6102 -1.2853
  925TIP3    H224267   4.212   3.588  11.707  0.1801  1.3623 -0.1894
  926TIP3   OH224268   4.620   3.610   5.356 -0.2733  0.2524  0.0210
  926TIP3    H124269   4.672   3.677   5.401  1.7143 -0.8555 -0.5610
  926TIP3    H224270   4.538   3.607   5.405  0.4809  1.5404  1.4170
  927TIP3   OH224271   2.626   5.255   5.641  0.2345 -0.2472 -0.3255
  927TIP3    H124272   2.605   5.328   5.583  1.7668 -1.0120 -1.8800
  927TIP3    H224273   2.543   5.211   5.655 -0.3124  0.4795 -1.2095
  928TIP3   OH224274   4.654   3.306   5.775 -0.6184  0.0031 -0.2733
  928TIP3    H124275   4.608   3.321   5.858 -1.1471  0.9608 -0.7328
  928TIP3    H224276   4.747   3.309   5.798 -0.7732 -0.9674  0.4946
  929TIP3   OH224277   0.259   3.026   5.152  0.1421 -0.6977 -0.6361
  929TIP3    H124278   0.166   3.044   5.140 -0.1160 -0.5165  1.4331
  929TIP3    H224279   0.289   3.096   5.210  1.5238 -0.9043 -1.0751
  930TIP3   OH224280   2.061   5.548  11.362 -0.2449 -0.0719 -0.6523
  930TIP3    H124281   2.113   5.619  11.323  0.1934  0.0244  0.0962
  930TIP3    H224282   2.116   5.514  11.432 -0.7009 -0.7692 -0.6286
  931TIP3   OH224283   3.776   1.068   6.012  0.1830 -0.0605  0.3689
  931TIP3    H124284   3.844   1.133   6.027  0.7060  0.4891 -3.7937
  931TIP3    H224285   3.818   1.002   5.956 -1.7737 -1.3909  0.4254
  932TIP3   OH224286   6.427   0.286   3.829 -0.0751 -0.1586 -0.4910
  932TIP3    H124287   6.478   0.213   3.864 -0.2591 -0.1677 -0.2445
  932TIP3    H224288   6.491   0.337   3.778  0.3779  0.2821  0.4865
  933TIP3   OH224289   6.395   3.658   4.049  0.1295  0.5049 -0.2111
  933TIP3    H124290   6.467   3.599   4.027 -1.3172 -1.9031  1.2889
  933TIP3    H224291   6.323   3.629   3.992 -0.8238  0.2800  1.0935
  934TIP3   OH224292   5.579   0.165  11.508  0.2277 -0.2698  0.2391
  934TIP3    H124293   5.549   0.119  11.587  0.5063 -0.1219  0.4313
  934TIP3    H224294   5.499   0.180  11.457  0.3164 -2.3589 -0.5737
  935TIP3   OH224295   6.160   2.008   2.791  0.5629  0.3098 -0.4221
  935TIP3    H124296   6.216   2.083   2.808  0.0792  0.8214 -1.0470
  935TIP3    H224297   6.071   2.042   2.800  0.3403 -0.2157 -0.5878
  936TIP3   OH224298   3.073   4.740   4.328 -0.1394  0.4498 -0.3282
  936TIP3    H124299   3.011   4.674   4.358 -1.1238  1.7829  0.6048
  936TIP3    H224300   3.109   4.778   4.409  1.2448  0.3030 -0.8535
  937TIP3   OH224301   2.651   5.754  11.484 -0.6938  0.6253  0.2312
  937TIP3    H124302   2.728   5.720  11.439 -0.2496  2.7808 -0.6577
  937TIP3    H224303   2.578   5.728  11.429 -0.5301 -0.5722  0.5674
  938TIP3   OH224304   5.173   6.440  15.791 -0.6468 -0.5138 -0.0514
  938TIP3    H124305   5.094   6.450  15.738  0.3120 -1.6340 -1.7318
  938TIP3    H224306   5.151   6.370  15.854 -0.9069 -1.0000 -0.6775
  939TIP3   OH224307   0.361   3.438   5.853  0.2091 -0.4683 -0.3139
  939TIP3    H124308   0.434   3.385   5.885  0.2594  0.0129  0.3783
  939TIP3    H224309   0.304   3.449   5.928  0.1168  0.3097 -0.4929
  940TIP3   OH224310   5.083   5.574  14.622 -0.2005  0.2921 -0.4927
  940TIP3    H124311   5.018   5.518  14.665  0.2527  0.0278 -0.1584
  940TIP3    H224312   5.032   5.624  14.558 -0.4483 -1.2187 -1.4883
  941TIP3   OH224313   3.048   3.324  13.653  0.9133  0.4151  0.5780
  941TIP3    H124314   3.073   3.270  13.728  1.0569 -0.1117  0.1490
  941TIP3    H224315   3.000   3.397  13.692 -1.2427 -1.1549  0.9881
  942TIP3   OH224316   1.927   4.927   0.748 -0.0212 -0.1278 -0.2372
  942TIP3    H124317   1.889   4.851   0.704 -1.5895 -0.3027  1.4098
  942TIP3    H224318   1.960   4.893   0.831 -2.1879  1.2615  1.2424
  943TIP3   OH224319   5.215   5.797   4.273 -0.5694 -0.3425  0.4929
  943TIP3    H124320   5.174   5.718   4.306  0.6682 -2.0475 -1.9047
  943TIP3    H224321   5.166   5.819   4.193  1.6692 -1.1045 -1.1367
  944TIP3   OH224322   1.387   3.276  11.563  0.8325  0.5142 -0.5539
  944TIP3    H124323   1.422   3.364  11.578  1.5345  0.1062  0.2980
  944TIP3    H224324   1.462   3.226  11.529  0.8971 -0.1854  0.5858
  945TIP3   OH224325   5.311   0.458   4.901 -0.7513  0.1365 -0.0501
  945TIP3    H124326   5.402   0.430   4.892 -0.8400 -0.4666  0.9383
  945TIP3    H224327   5.303   0.531   4.839  0.5761  0.6138  0.3231
  946TIP3   OH224328   2.429   4.137   5.036 -0.0582  0.3313 -0.0040
  946TIP3    H124329   2.393   4.144   5.125 -2.3538 -1.6280 -0.7474
  946TIP3    H224330   2.354   4.118   4.981  1.7941 -1.6742 -1.9423
  947TIP3   OH224331   2.526   4.646   2.839  0.0572  0.2748  0.2672
  947TIP3    H124332   2.618   4.668   2.826 -0.1360  1.4268  0.7475
  947TIP3    H224333   2.525   4.583   2.911  0.3428  1.5812  1.4340
  948TIP3   OH224334   0.546   2.535   3.933  0.5011  0.0836  0.0082
  948TIP3    H124335   0.513   2.616   3.972  1.6085  0.0709  0.9777
  948TIP3    H224336   0.467   2.485   3.914 -0.1755  1.1898 -0.1719
  949TIP3   OH224337   0.876   5.265   1.074  0.0214  0.0636 -0.0177
  949TIP3    H124338   0.884   5.242   1.167  1.5635 -0.0499 -0.1557
  949TIP3    H224339   0.901   5.357   1.070 -1.4943  0.4769 -0.1234
  950TIP3   OH224340   2.783   3.000  13.071  0.5495  0.5732 -0.4207
  950TIP3    H124341   2.742   2.995  13.158  0.9863  2.1382 -0.1056
  950TIP3    H224342   2.864   2.949  13.080  0.0175 -0.2479 -0.2493
  951TIP3   OH224343   4.393   6.158   2.667  0.1273 -0.1327 -0.2947
  951TIP3    H124344   4.448   6.103   2.612 -0.3819  0.3844 -1.3253
  951TIP3    H224345   4.449   6.179   2.742  1.2963  0.2899 -1.2636
  952TIP3   OH224346   3.285   0.464   3.723  0.1758  0.1736 -0.3340
  952TIP3    H124347   3.302   0.523   3.797  1.6461 -2.0128  1.1133
  952TIP3    H224348   3.360   0.478   3.665  0.7324 -0.5389  0.2022
  953TIP3   OH224349   5.792   1.999  11.225 -0.5443 -0.0772  0.2649
  953TIP3    H124350   5.834   2.084  11.237  1.0668 -1.1298  2.6902
  953TIP3    H224351   5.702   2.012  11.257 -0.3251  0.7299  0.5641
  954TIP3   OH224352   0.521   3.514  15.402 -0.0705 -0.1388 -0.2241
  954TIP3    H124353   0.475   3.433  15.423 -2.0444  0.7757 -0.8894
  954TIP3    H224354   0.526   3.516  15.307 -1.9203  1.5007 -0.3178
  955TIP3   OH224355   3.706   0.852  13.441 -0.2060 -0.2677  0.3092
  955TIP3    H124356   3.783   0.822  13.489  0.0383  0.2341  0.2393
  955TIP3    H224357   3.678   0.777  13.390  0.0770 -0.5342  0.5444
  956TIP3   OH224358   2.537   5.118  16.088 -0.0288  0.1114 -0.1369
  956TIP3    H124359   2.497   5.118  16.001  0.0495 -0.4279 -0.1756
  956TIP3    H224360   2.463   5.128  16.148 -0.3814 -2.0124 -0.1573
  957TIP3   OH224361   1.892   1.014  15.370  0.0080 -0.4446 -0.1974
  957TIP3    H124362   1.846   0.977  15.446 -0.0878  0.0489 -0.0161
  957TIP3    H224363   1.822   1.041  15.311  0.0355  1.3781  0.5813
  958TIP3   OH224364   4.611   5.115  16.707 -0.1407 -0.3282  0.0941
  958TIP3    H124365   4.607   5.078  16.795  2.6525 -1.5872 -0.2572
  958TIP3    H224366   4.553   5.059  16.655 -0.9824 -0.2189  0.9042
  959TIP3   OH224367   6.323   4.438   1.993 -0.0986  0.4994 -0.0339
  959TIP3    H124368   6.302   4.344   1.992  0.9340  0.2602 -0.2642
  959TIP3    H224369   6.281   4.473   1.915  1.0411 -0.1311 -0.9613
  960TIP3   OH224370   4.693   2.133   1.094  0.1985 -0.9826  0.2952
  960TIP3    H124371   4.705   2.044   1.128 -2.2048 -1.0738  1.0179
  960TIP3    H224372   4.648   2.120   1.010  1.0608 -0.5024 -0.2435
  961TIP3   OH224373   3.107   5.659  15.063  0.1933  0.0008 -0.3471
  961TIP3    H124374   3.176   5.659  15.130 -0.2645 -0.3967  0.1355
  961TIP3    H224375   3.034   5.705  15.105  0.3939  1.0098 -1.1018
  962TIP3   OH224376   6.291   5.340  12.158 -0.3731 -0.3065 -0.4125
  962TIP3    H124377   6.243   5.270  12.112 -1.7515 -0.3068  0.9839
  962TIP3    H224378   6.314   5.301  12.242  2.5826 -0.4741 -1.2342
  963TIP3   OH224379   2.717   2.193  17.234  0.2978 -0.4875 -0.2550
  963TIP3    H124380   2.711   2.104  17.268 -0.9641  0.3334  1.7937
  963TIP3    H224381   2.634   2.206  17.187 -0.0195 -0.0436  0.4074
  964TIP3   OH224382   4.906   4.333   0.903  0.3365 -0.3860 -0.4132
  964TIP3    H124383   4.923   4.420   0.868 -0.1717 -0.2760 -0.3854
  964TIP3    H224384   4.984   4.312   0.954  0.4755  0.0336 -0.4554
  965TIP3   OH224385   6.160   1.409   4.926 -0.3192  0.0134 -0.8503
  965TIP3    H124386   6.169   1.381   4.835  0.4256 -2.5782 -0.0181
  965TIP3    H224387   6.102   1.344   4.966  3.1792 -1.7108  1.6653
  966TIP3   OH224388   0.907   1.229   0.215  0.4462 -0.8131 -0.8571
  966TIP3    H124389   0.882   1.265   0.131 -1.4211 -0.8995 -0.3593
  966TIP3    H224390   0.912   1.305   0.273  0.1572 -0.9383 -0.6692
  967TIP3   OH224391   4.534   2.868  15.872 -0.8088  0.0483 -0.3107
  967TIP3    H124392   4.557   2.961  15.872 -0.3866 -0.0401  1.0324
  967TIP3    H224393   4.579   2.832  15.796 -1.2817  1.0163 -1.0545
  968TIP3   OH224394   2.965   4.727   1.593  1.1063 -0.6437  0.0495
  968TIP3    H124395   2.944   4.700   1.504 -1.3879  1.9352 -0.2278
  968TIP3    H224396   2.886   4.708   1.644  1.7361 -0.1525  1.2463
  969TIP3   OH224397   2.219   0.891   3.830 -0.4559 -0.1233 -0.2821
  969TIP3    H124398   2.210   0.907   3.737 -1.4753  0.9541 -0.0128
  969TIP3    H224399   2.174   0.965   3.872 -1.1147 -1.2520  1.0443
  970TIP3   OH224400   4.574   5.392  15.387  0.8034  0.0793 -0.4830
  970TIP3    H124401   4.550   5.470  15.337  0.7585  0.7592  0.5760
  970TIP3    H224402   4.519   5.323  15.350 -2.4036  1.4653  1.4595
  971TIP3   OH224403   1.870   5.585  14.186  0.2735  0.5389 -0.0892
  971TIP3    H124404   1.915   5.668  14.200  3.3773 -1.1820  0.5027
  971TIP3    H224405   1.817   5.573  14.265  1.7117  0.8093  0.9356
  972TIP3   OH224406   3.233   2.918  13.140 -0.4128  0.0310 -0.1554
  972TIP3    H124407   3.143   2.946  13.158 -0.3070 -1.0476  2.2415
  972TIP3    H224408   3.223   2.831  13.101 -0.4179  0.1839 -0.5015
  973TIP3   OH224409   1.693   5.331  17.192 -0.0656 -0.4850 -0.0985
  973TIP3    H124410   1.604   5.348  17.222 -0.2931 -1.0275 -0.4524
  973TIP3    H224411   1.692   5.239  17.163  0.1395  0.0198 -1.7773
  974TIP3   OH224412   1.818   1.272   0.096 -0.0567 -0.1833 -0.2973
  974TIP3    H124413   1.889   1.269   0.160  0.7806 -0.1844 -1.2137
  974TIP3    H224414   1.801   1.365   0.084 -0.1618 -0.1807 -0.1196
  975TIP3   OH224415   1.851   1.924  16.469 -0.3226  0.1037  0.1288
  975TIP3    H124416   1.927   1.934  16.411  2.1441  0.2932  3.2897
  975TIP3    H224417   1.846   1.829  16.484 -0.4555  0.1358  0.2812
  976TIP3   OH224418   3.331   3.872   4.960  0.2610 -0.1770 -0.4532
  976TIP3    H124419   3.324   3.908   4.871  0.3264 -0.2061 -0.4701
  976TIP3    H224420   3.348   3.778   4.946 -1.2079 -0.4599 -0.4037
  977TIP3   OH224421   6.252   5.015   2.352  0.0106 -0.4265 -0.1471
  977TIP3    H124422   6.343   5.044   2.360  0.7239 -2.5941 -0.0813
  977TIP3    H224423   6.233   5.023   2.259  0.7072 -1.1889 -0.3648
  978TIP3   OH224424   6.659   0.428  15.792  0.4959  0.2119 -0.1369
  978TIP3    H124425   6.683   0.483  15.717  1.4759 -1.1092 -0.8168
  978TIP3    H224426   6.650   0.489  15.865  3.7472  1.0602 -0.3633
  979TIP3   OH224427   2.961   1.825   3.984  0.4307 -0.2287  0.2338
  979TIP3    H124428   3.019   1.750   3.996  1.7549  0.8060  0.4342
  979TIP3    H224429   3.003   1.896   4.032  0.3642  1.2234 -1.8024
  980TIP3   OH224430   3.729   1.569  13.775  0.0444  0.0875 -0.1580
  980TIP3    H124431   3.825   1.565  13.778  0.0456  0.3376  0.2090
  980TIP3    H224432   3.709   1.662  13.780 -0.2658 -0.0552  1.8669
  981TIP3   OH224433   6.189   3.497   3.244  0.0153  0.3185 -0.1476
  981TIP3    H124434   6.172   3.498   3.150 -0.3067  0.6309 -0.0856
  981TIP3    H224435   6.168   3.408   3.271 -2.5819  0.9862  0.1181
  982TIP3   OH224436   3.405   4.686   1.665  0.3319 -0.0441 -0.1855
  982TIP3    H124437   3.376   4.605   1.625  0.1059  0.7443 -1.6354
  982TIP3    H224438   3.498   4.692   1.642  0.1278  0.5631 -0.8632
  983TIP3   OH224439   2.149   4.188   4.541  0.5294 -0.0062  0.4514
  983TIP3    H124440   2.085   4.164   4.607 -1.9318  1.6176 -1.2535
  983TIP3    H224441   2.108   4.165   4.458  1.5678  2.2474 -0.7409
  984TIP3   OH224442   3.341   2.883  14.401  0.1460 -0.4164  0.3428
  984TIP3    H124443   3.312   2.868  14.491  0.0418 -0.6337  0.2732
  984TIP3    H224444   3.399   2.959  14.407 -0.5147  0.0832  0.4729
  985TIP3   OH224445   5.777   4.191  11.764 -0.5486 -0.5504  0.2374
  985TIP3    H124446   5.732   4.198  11.680 -0.6928  0.8571  0.4167
  985TIP3    H224447   5.851   4.251  11.757 -1.5404  0.9059  1.7208
  986TIP3   OH224448   4.243   6.443  14.057  0.3214  0.9564  0.3324
  986TIP3    H124449   4.250   6.520  14.002 -0.4885  1.0835  0.4055
  986TIP3    H224450   4.257   6.476  14.146 -1.2873  1.2308  0.4909
  987TIP3   OH224451   5.285   1.030  17.070 -0.5927 -0.3909  0.2399
  987TIP3    H124452   5.281   1.024  16.974  1.2542  0.3728  0.1056
  987TIP3    H224453   5.261   0.942  17.100 -1.0230 -0.6871 -0.9188
  988TIP3   OH224454   0.920   0.647   1.281 -0.1049  0.5844  0.1379
  988TIP3    H124455   0.864   0.594   1.337  0.8304 -1.1950 -0.5539
  988TIP3    H224456   0.860   0.691   1.220 -0.8593 -0.0174  0.4515
  989TIP3   OH224457   4.560   2.864   2.483 -0.0501  0.4058  0.3742
  989TIP3    H124458   4.566   2.783   2.533  0.1992 -0.0298 -0.3519
  989TIP3    H224459   4.572   2.933   2.547  2.5642 -0.1886  0.5789
  990TIP3   OH224460   0.516   6.365  12.260  0.9867  0.8157 -0.5026
  990TIP3    H124461   0.592   6.336  12.209  0.4035 -1.1765 -0.2916
  990TIP3    H224462   0.540   6.349  12.351 -0.4747 -1.9841 -0.5279
  991TIP3   OH224463   5.884   0.717   4.719 -0.1963  0.2946  0.5245
  991TIP3    H124464   5.894   0.810   4.700 -2.0969  0.9627  2.5518
  991TIP3    H224465   5.905   0.710   4.812 -1.0782 -1.1371  0.6239
  992TIP3   OH224466   1.327   3.967  17.037  0.0063 -0.4383  0.2250
  992TIP3    H124467   1.247   3.915  17.027  0.9452 -1.6011 -1.5111
  992TIP3    H224468   1.396   3.902  17.051  0.7809  0.5142  0.8995
  993TIP3   OH224469   3.029   6.646   1.416  0.2922 -0.4503 -0.5851
  993TIP3    H124470   3.110   6.602   1.393 -0.1789 -1.2932 -0.6522
  993TIP3    H224471   2.995   6.598   1.491 -1.3077 -1.5521 -1.9784
  994TIP3   OH224472   3.101   4.908  11.265 -0.2610 -0.1553  0.0921
  994TIP3    H124473   3.096   4.827  11.213 -2.2357 -0.1435  0.2143
  994TIP3    H224474   3.017   4.951  11.249  0.7037  1.7958  0.1754
  995TIP3   OH224475   1.876   5.175  13.287 -0.2737  0.5636 -0.4156
  995TIP3    H124476   1.798   5.227  13.308  0.3561  1.8503 -1.2511
  995TIP3    H224477   1.944   5.239  13.268  0.4950 -0.5630 -1.5336
  996TIP3   OH224478   2.558   0.248   1.983 -0.1513 -0.1100  0.3071
  996TIP3    H124479   2.625   0.277   1.921 -0.8135 -0.2784 -0.4976
  996TIP3    H224480   2.517   0.329   2.014  0.3065 -0.0154  0.6764
  997TIP3   OH224481   2.688   1.378   4.823 -0.0908  0.0230 -0.3931
  997TIP3    H124482   2.655   1.290   4.840  0.2189 -0.1402 -0.6272
  997TIP3    H224483   2.609   1.430   4.806 -0.4000  0.1547  1.3158
  998TIP3   OH224484   4.370   0.225   4.168 -1.2639  0.2906  0.4013
  998TIP3    H124485   4.427   0.301   4.157  0.2417 -0.8983 -0.3196
  998TIP3    H224486   4.416   0.169   4.230 -1.3917 -0.8953 -0.5425
  999TIP3   OH224487   1.766   4.550   0.831 -0.1105  0.9014 -0.1603
  999TIP3    H124488   1.742   4.613   0.899 -0.6065 -0.1017  0.6087
  999TIP3    H224489   1.683   4.510   0.806  0.3301 -0.1377  0.0522
 1000TIP3   OH224490   4.676   5.374  11.056  0.3181  0.1875  0.1991
 1000TIP3    H124491   4.706   5.434  11.123  0.7713 -0.7125  0.8149
 1000TIP3    H224492   4.740   5.384  10.985 -0.8197  1.9963 -0.6089
 1001TIP3   OH224493   2.495   1.054  15.277  0.0550 -0.0501 -0.2854
 1001TIP3    H124494   2.485   1.077  15.369 -0.9831  0.6636 -0.5702
 1001TIP3    H224495   2.585   1.077  15.256  0.0346  0.5906  0.3306
 1002TIP3   OH224496   1.063   1.204  11.476 -0.4980 -0.0019  0.0865
 1002TIP3    H124497   1.134   1.143  11.457 -1.2895 -0.8469 -0.2029
 1002TIP3    H224498   1.088   1.245  11.559 -0.0463 -0.8492  0.3764
 1003TIP3   OH224499   3.536   2.615  13.819 -0.8772 -0.3970 -0.2088
 1003TIP3    H124500   3.617   2.626  13.769 -0.3771 -0.1865  0.6198
 1003TIP3    H224501   3.537   2.688  13.882 -2.3398  0.3215 -1.0187
 1004TIP3   OH224502   5.976   2.579   3.801  0.5223 -0.3547  0.1871
 1004TIP3    H124503   5.999   2.633   3.726  2.1087 -0.6659  0.4158
 1004TIP3    H224504   6.056   2.578   3.855  0.7608 -3.4518 -0.1552
 1005TIP3   OH224505   6.320   5.583   4.261 -0.1996  0.4203  0.0783
 1005TIP3    H124506   6.275   5.632   4.330  0.1766  0.5356  0.2444
 1005TIP3    H224507   6.275   5.498   4.259 -1.8601  1.2912 -1.2634
 1006TIP3   OH224508   4.335   2.440  13.549 -0.4840  0.0434 -0.5011
 1006TIP3    H124509   4.273   2.367  13.554  0.5548 -0.8438 -0.1602
 1006TIP3    H224510   4.285   2.513  13.513 -0.9274 -1.5440 -3.2638
 1007TIP3   OH224511   2.432   5.865  10.690 -0.3948  0.2211 -0.1037
 1007TIP3    H124512   2.417   5.916  10.770  0.1005  0.8389 -0.3948
 1007TIP3    H224513   2.344   5.849  10.655 -0.5519  1.1527 -0.1687
 1008TIP3   OH224514   6.516   4.573  14.668 -0.5794 -0.2133 -0.3595
 1008TIP3    H124515   6.467   4.555  14.748  1.1073  0.4903  0.8533
 1008TIP3    H224516   6.464   4.532  14.599 -3.3974  1.3776  0.7276
 1009TIP3   OH224517   5.045   0.834  12.329  0.1931  0.2506  0.0707
 1009TIP3    H124518   5.026   0.886  12.251 -3.4509 -1.3250 -0.2183
 1009TIP3    H224519   4.964   0.838  12.380  0.3705 -3.6467  0.8452
 1010TIP3   OH224520   6.184   1.564  12.918  0.5731  0.0446 -0.0553
 1010TIP3    H124521   6.198   1.659  12.909  0.3672  0.1389  0.6090
 1010TIP3    H224522   6.163   1.552  13.010 -0.4218 -0.5178 -0.3553
 1011TIP3   OH224523   1.777   3.033  15.258 -0.1201  0.0587  0.2186
 1011TIP3    H124524   1.707   3.028  15.323 -0.2694 -1.5521 -0.0331
 1011TIP3    H224525   1.764   3.117  15.215  1.6017  2.3764  4.0498
 1012TIP3   OH224526   0.651   4.769  15.174 -0.2004 -0.5763  0.0820
 1012TIP3    H124527   0.702   4.719  15.238  0.9346 -0.5465 -0.7846
 1012TIP3    H224528   0.699   4.851  15.164 -0.5784 -0.4224 -0.5086
 1013TIP3   OH224529   6.350   4.209   2.360  0.4545  0.1992  0.3902
 1013TIP3    H124530   6.340   4.290   2.410 -0.3599  1.0689 -1.1362
 1013TIP3    H224531   6.263   4.194   2.322 -0.0867 -2.7334  2.6164
 1014TIP3   OH224532   1.814   4.002  11.508  0.2137 -0.0983 -0.1008
 1014TIP3    H124533   1.832   3.926  11.563  2.2275 -0.6384 -1.4757
 1014TIP3    H224534   1.841   4.077  11.561 -1.6440 -0.2981  1.2006
 1015TIP3   OH224535   6.261   1.202   2.102  0.0889 -0.0274  0.4680
 1015TIP3    H124536   6.253   1.139   2.030 -0.3030  1.0608 -0.4614
 1015TIP3    H224537   6.244   1.287   2.061  2.1625  0.8587  1.3671
 1016TIP3   OH224538   6.407   1.785   1.577 -0.2543 -0.3326 -0.0786
 1016TIP3    H124539   6.320   1.744   1.575  0.6172 -2.2091  0.0770
 1016TIP3    H224540   6.408   1.840   1.498 -2.4829  1.6555  1.2092
 1017TIP3   OH224541   3.160   5.696  13.172  0.0529  0.4381 -0.4185
 1017TIP3    H124542   3.075   5.682  13.129  1.5525 -1.6188 -2.8564
 1017TIP3    H224543   3.151   5.782  13.214 -3.0079  0.5548 -1.1651
 1018TIP3   OH224544   0.973   0.813   3.490 -0.4448 -0.7286  0.1279
 1018TIP3    H124545   1.024   0.880   3.445 -2.0457  1.2918  1.2251
 1018TIP3    H224546   0.959   0.745   3.424  3.1803 -1.1166 -0.3352
 1019TIP3   OH224547   1.865   1.039  12.178  0.1204  0.3812  0.2463
 1019TIP3    H124548   1.926   0.966  12.167 -1.9687 -1.3064 -0.4751
 1019TIP3    H224549   1.780   0.997  12.192 -1.0597  2.6906  0.1725
 1020TIP3   OH224550   4.927   1.197   0.534 -0.7043  0.1103  0.2681
 1020TIP3    H124551   4.961   1.231   0.450 -0.6419  4.0050  1.7449
 1020TIP3    H224552   5.005   1.187   0.588 -1.1764  3.1227  1.6404
 1021TIP3   OH224553   0.874   3.288  12.113 -0.4241 -0.2975  0.6878
 1021TIP3    H124554   0.837   3.258  12.030 -0.4781 -0.0721  0.6323
 1021TIP3    H224555   0.839   3.376  12.125 -0.8463 -0.5371  1.2123
 1022TIP3   OH224556   6.702   2.268  15.840 -0.1489  0.3693 -0.0448
 1022TIP3    H124557   6.700   2.226  15.754 -0.1184 -0.8048  0.5138
 1022TIP3    H224558   6.617   2.312  15.848  0.2255  1.3043 -1.0623
 1023TIP3   OH224559   2.850   5.060  15.219  0.1054  0.3384  0.4763
 1023TIP3    H124560   2.832   5.000  15.147  1.2375  1.7000 -0.9980
 1023TIP3    H224561   2.809   5.143  15.192 -0.8892  0.4281  2.1753
 1024TIP3   OH224562   5.173   3.616  11.749  0.1029 -0.0242  0.5861
 1024TIP3    H124563   5.163   3.608  11.655  2.2737 -2.1039  0.4907
 1024TIP3    H224564   5.227   3.695  11.761 -1.4857  1.1420  0.2092
 1025TIP3   OH224565   2.638   1.394   1.383 -0.0538 -0.9611 -0.1354
 1025TIP3    H124566   2.614   1.302   1.381 -0.5775 -0.8592  1.1431
 1025TIP3    H224567   2.568   1.437   1.433  1.2561 -0.2199  1.1213
 1026TIP3   OH224568   5.155   0.425  11.823 -0.1463 -0.7975  0.2524
 1026TIP3    H124569   5.124   0.469  11.744 -1.2683  1.9333  2.1562
 1026TIP3    H224570   5.084   0.365  11.847  0.1402 -1.5301 -0.7212
 1027TIP3   OH224571   3.425   0.285  12.817  0.2169  0.0311  0.2419
 1027TIP3    H124572   3.487   0.216  12.839  0.4035  0.1948  0.2271
 1027TIP3    H224573   3.417   0.338  12.896 -0.7289 -0.6161  0.5919
 1028TIP3   OH224574   1.953   6.651   4.369 -0.1462  0.1537  0.1433
 1028TIP3    H124575   1.977   6.719   4.306  0.6879  0.8579  1.2127
 1028TIP3    H224576   2.023   6.654   4.435  0.3251 -2.2404 -0.1923
 1029TIP3   OH224577   0.502   4.613  14.249 -0.0092  0.1005  0.5353
 1029TIP3    H124578   0.569   4.667  14.290  0.4725 -0.0647 -0.0283
 1029TIP3    H224579   0.433   4.674  14.224  0.8425  0.5644 -0.7388
 1030TIP3   OH224580   2.601   3.710   2.374 -0.1851  0.4241  0.3740
 1030TIP3    H124581   2.521   3.691   2.325  0.5463 -1.4041 -0.1284
 1030TIP3    H224582   2.672   3.691   2.313  0.6581  2.3636  0.6980
 1031TIP3   OH224583   5.561   1.957   0.856  0.6062  0.5890  0.0692
 1031TIP3    H124584   5.483   1.903   0.861 -0.4751  2.0205 -0.9646
 1031TIP3    H224585   5.628   1.899   0.820  0.2368 -0.8635  1.7044
 1032TIP3   OH224586   4.341   0.399   2.562  0.4341  0.4953  0.5038
 1032TIP3    H124587   4.257   0.422   2.522  0.2680 -0.3170  0.3711
 1032TIP3    H224588   4.362   0.474   2.617 -0.3997  0.6981  0.5610
 1033TIP3   OH224589   6.487   2.548  11.588 -0.3905  0.7034  0.7209
 1033TIP3    H124590   6.428   2.622  11.573 -0.1862  0.6429 -0.4249
 1033TIP3    H224591   6.549   2.580  11.653  0.5998  2.0544 -0.8427
 1034TIP3   OH224592   6.546   1.483  15.443 -0.1092  0.1653  0.1110
 1034TIP3    H124593   6.503   1.450  15.364  0.6595 -0.4410 -0.0665
 1034TIP3    H224594   6.605   1.412  15.470 -1.3765 -0.1894  2.0292
 1035TIP3   OH224595   4.156   6.684   2.161 -0.0755  0.0260 -0.2914
 1035TIP3    H124596   4.236   6.633   2.148  1.2439  2.1218 -0.4786
 1035TIP3    H224597   4.176   6.741   2.235 -1.4537  0.4671 -0.2520
 1036TIP3   OH224598   6.129   3.186  13.879 -0.9333  0.4065 -0.2901
 1036TIP3    H124599   6.216   3.188  13.919  0.3397  0.7084 -2.9752
 1036TIP3    H224600   6.090   3.271  13.899 -0.2413  0.6207  0.1400
 1037TIP3   OH224601   3.078   5.038   5.771  0.2889  0.4896  0.3056
 1037TIP3    H124602   3.041   5.069   5.688  1.1495 -0.6062 -0.5097
 1037TIP3    H224603   3.172   5.054   5.762  0.5633 -1.0008  0.4562
 1038TIP3   OH224604   5.836   4.654   3.829  0.3432  0.2137  0.2130
 1038TIP3    H124605   5.790   4.622   3.751  1.5225  0.7746 -0.7346
 1038TIP3    H224606   5.873   4.576   3.869 -1.2933 -0.2206  0.8926
 1039TIP3   OH224607   6.554   6.563   1.857  0.3774  0.5358  0.6846
 1039TIP3    H124608   6.642   6.601   1.866  0.6720 -0.0660  0.3828
 1039TIP3    H224609   6.532   6.534   1.945  0.5480  0.5462  0.7313
 1040TIP3   OH224610   4.555   0.753  16.570  0.4497 -0.3583  0.0512
 1040TIP3    H124611   4.490   0.799  16.623  0.7092 -0.5073  0.4990
 1040TIP3    H224612   4.639   0.777  16.609  0.5840 -1.2239  0.2998
 1041TIP3   OH224613   0.404   3.710   4.931  0.0984  0.2073 -0.2451
 1041TIP3    H124614   0.468   3.779   4.949 -1.2478  1.3387  0.2465
 1041TIP3    H224615   0.437   3.634   4.979 -0.3191  1.5335  2.2141
 1042TIP3   OH224616   5.926   0.597   5.011 -0.0520  0.5112  0.1973
 1042TIP3    H124617   5.865   0.671   5.014  0.3632  0.8382  0.6295
 1042TIP3    H224618   5.918   0.556   5.097 -1.2508 -0.7349 -0.5025
 1043TIP3   OH224619   3.694   0.575   4.502  0.0561  0.0986 -0.7228
 1043TIP3    H124620   3.646   0.590   4.421  0.3299 -0.2663 -0.9525
 1043TIP3    H224621   3.735   0.489   4.491 -3.4046 -1.9294  1.5196
 1044TIP3   OH224622   1.007   1.014  16.877 -0.0773 -0.1116 -0.0375
 1044TIP3    H124623   0.950   1.085  16.846 -0.2928 -0.5261 -0.6035
 1044TIP3    H224624   1.092   1.033  16.840  0.3136  0.8414  1.3018
 1045TIP3   OH224625   3.786   5.097  15.057  0.0336  0.5684 -0.3788
 1045TIP3    H124626   3.713   5.142  15.015 -0.3124  0.3369 -0.0272
 1045TIP3    H224627   3.788   5.011  15.015 -0.7371  0.0935  0.5543
 1046TIP3   OH224628   4.392   3.491   1.404  0.0337  0.4657  1.0100
 1046TIP3    H124629   4.329   3.558   1.376 -0.6791 -0.0233  1.4284
 1046TIP3    H224630   4.434   3.528   1.481  1.4100  1.4693 -0.1958
 1047TIP3   OH224631   2.922   2.489   4.278 -0.8326 -0.8475 -0.1383
 1047TIP3    H124632   2.907   2.566   4.222 -1.9499 -0.8920  0.0833
 1047TIP3    H224633   2.984   2.519   4.344 -1.6288  0.0153  0.2318
 1048TIP3   OH224634   5.034   1.218  17.242  0.1150 -0.1503  0.1850
 1048TIP3    H124635   5.070   1.130  17.236 -0.5443 -0.3344 -1.4049
 1048TIP3    H224636   5.029   1.236  17.336  0.9627 -1.5069  0.4977
 1049TIP3   OH224637   2.768   5.665  15.717  0.0668 -0.1006 -0.1714
 1049TIP3    H124638   2.779   5.666  15.622 -0.7223 -0.2485 -0.2673
 1049TIP3    H224639   2.857   5.656  15.752  0.2064 -1.7072 -0.9216
 1050TIP3   OH224640   4.154   6.316   1.980  0.3204  0.5379  0.2255
 1050TIP3    H124641   4.082   6.319   1.918  0.4160  0.9959  0.1345
 1050TIP3    H224642   4.119   6.359   2.059 -0.0136 -0.5969  0.7153
 1051TIP3   OH224643   1.037   0.842   3.756  0.5183 -0.0685 -0.1075
 1051TIP3    H124644   1.025   0.937   3.758 -0.1946 -0.1656  0.4139
 1051TIP3    H224645   0.996   0.815   3.674  1.1762  0.1335 -0.5048
 1052TIP3   OH224646   2.609   2.532  13.554  0.3139 -0.2988 -0.1534
 1052TIP3    H124647   2.543   2.467  13.531  2.7130 -2.0492 -2.4132
 1052TIP3    H224648   2.629   2.513  13.646 -2.0050  0.0226  0.4489
 1053TIP3   OH224649   5.638   5.221  17.191  0.8890 -0.2318 -0.1043
 1053TIP3    H124650   5.621   5.222  17.097  1.1070  0.9833 -0.1427
 1053TIP3    H224651   5.695   5.145  17.204  1.7374  0.2086 -1.1178
 1054TIP3   OH224652   6.055   4.259  16.620 -0.0575 -0.1860 -0.3228
 1054TIP3    H124653   6.112   4.183  16.607 -0.0209 -0.3506  0.7753
 1054TIP3    H224654   6.083   4.297  16.703 -1.0640  0.1508 -0.1280
 1055TIP3   OH224655   4.061   0.351   4.294 -0.5862 -0.0960  0.4546
 1055TIP3    H124656   4.107   0.430   4.322  0.9172 -0.7073 -0.2355
 1055TIP3    H224657   4.090   0.283   4.355 -0.0812 -0.6223 -0.3630
 1056TIP3   OH224658   3.000   0.901  12.958  0.0562 -0.7181  0.4670
 1056TIP3    H124659   3.018   0.831  13.020 -1.8344 -1.3610  0.3345
 1056TIP3    H224660   3.011   0.861  12.872 -0.4268 -0.6963  0.3912
 1057TIP3   OH224661   6.511   0.038   3.543 -0.1863 -0.2537 -0.1760
 1057TIP3    H124662   6.596   0.035   3.588  0.2180  0.3407 -0.8936
 1057TIP3    H224663   6.526   0.094   3.467 -2.2250  3.1684  1.8015
 1058TIP3   OH224664   1.786   0.738   3.359 -0.2930 -0.2083 -0.2561
 1058TIP3    H124665   1.867   0.727   3.408 -0.4559 -2.4594 -0.4329
 1058TIP3    H224666   1.764   0.650   3.328 -0.3534  1.0814 -4.1405
 1059TIP3   OH224667   2.927   3.700  10.641 -0.3240 -0.4200 -0.1448
 1059TIP3    H124668   3.020   3.694  10.618 -0.7478  0.3224 -2.1696
 1059TIP3    H224669   2.909   3.794  10.642 -1.3099 -0.5923 -0.9210
 1060TIP3   OH224670   0.334   0.980  13.133  0.4001  0.4280  0.0562
 1060TIP3    H124671   0.358   1.066  13.166  0.3347 -0.2343  1.9292
 1060TIP3    H224672   0.253   0.994  13.083  0.1723  1.3838  0.6926
 1061TIP3   OH224673   2.712   6.096  10.915  0.5704 -0.2064 -0.3945
 1061TIP3    H124674   2.736   6.046  10.838 -1.3471 -2.2809  0.2703
 1061TIP3    H224675   2.616   6.087  10.921  0.6091  0.3589  1.8835
 1062TIP3   OH224676   1.730   3.178  11.887  0.0123 -0.1262  0.0083
 1062TIP3    H124677   1.791   3.105  11.882  0.5625  0.3519 -0.3390
 1062TIP3    H224678   1.767   3.245  11.829 -0.7304  0.2456 -0.0525
 1063TIP3   OH224679   6.425   0.548  13.068  0.8205  0.5825  0.0517
 1063TIP3    H124680   6.453   0.486  13.000 -1.8434  0.1094 -0.6938
 1063TIP3    H224681   6.446   0.634  13.032  0.6039  0.2753 -0.8413
 1064TIP3   OH224682   6.745   2.389   0.103 -0.7842 -0.1103 -0.0862
 1064TIP3    H124683   6.800   2.318   0.071 -0.5470 -0.2122  0.5245
 1064TIP3    H224684   6.661   2.348   0.124 -0.6669 -0.2055  0.2089
 1065TIP3   OH224685   5.894   0.100   3.750 -0.5232  0.2532 -0.4691
 1065TIP3    H124686   5.880   0.007   3.733 -0.5552  0.6413 -2.6329
 1065TIP3    H224687   5.861   0.114   3.839 -3.3869 -1.1480 -1.2814
 1066TIP3   OH224688   6.187   1.840  12.870 -0.0043 -0.4986  0.4809
 1066TIP3    H124689   6.170   1.900  12.797  0.7100 -0.6798  0.1574
 1066TIP3    H224690   6.152   1.885  12.947 -1.2180 -0.5204 -0.0369
 1067TIP3   OH224691   5.924   1.473   2.725  0.4834  0.0883 -0.5499
 1067TIP3    H124692   5.932   1.514   2.812  1.6480  0.3776 -0.7825
 1067TIP3    H224693   5.980   1.526   2.668 -0.8544  0.3369 -1.6490
 1068TIP3   OH224694   1.647   4.289   0.174 -0.5356 -0.3357  0.3608
 1068TIP3    H124695   1.586   4.244   0.116 -1.3491 -0.9193  1.6422
 1068TIP3    H224696   1.697   4.347   0.116 -1.5665 -0.6425 -0.8593
 1069TIP3   OH224697   1.500   6.252  13.585 -0.1512  0.0023 -0.1901
 1069TIP3    H124698   1.485   6.324  13.646 -0.2924  0.4571 -0.7625
 1069TIP3    H224699   1.416   6.206  13.581 -0.7901  1.2699 -1.7253
 1070TIP3   OH224700   5.394   6.134   1.549  0.0734 -0.2078 -0.5422
 1070TIP3    H124701   5.353   6.055   1.584  0.1348  0.6790  1.5669
 1070TIP3    H224702   5.477   6.104   1.513 -0.3492 -1.2616 -0.6620
 1071TIP3   OH224703   3.700   5.181  13.685 -0.1178 -0.2263  0.2488
 1071TIP3    H124704   3.732   5.090  13.688  2.7004  0.7130  0.2381
 1071TIP3    H224705   3.772   5.233  13.721 -2.2015  1.9048  1.4773
 1072TIP3   OH224706   5.495   0.285   2.423  0.3975 -0.8282  0.3870
 1072TIP3    H124707   5.536   0.217   2.370 -0.8779 -1.7036  0.4939
 1072TIP3    H224708   5.567   0.343   2.448  1.3718 -1.6985 -0.3667
 1073TIP3   OH224709   4.667   1.329   2.321  0.4384 -0.1693  0.0128
 1073TIP3    H124710   4.635   1.241   2.342 -1.5092  0.4829 -0.1545
 1073TIP3    H224711   4.676   1.372   2.406  1.5423 -0.5550  0.1066
 1074TIP3   OH224712   0.060   4.650  13.024 -0.3176  0.0610  0.3266
 1074TIP3    H124713   0.069   4.740  12.991  1.8089 -0.5679 -0.9332
 1074TIP3    H224714  -0.014   4.614  12.976 -0.6377  0.8577  0.2079
 1075TIP3   OH224715   2.224   0.988  12.005  0.6835 -0.0431 -0.1130
 1075TIP3    H124716   2.279   1.058  12.042  0.0185  0.2314  0.3611
 1075TIP3    H224717   2.213   0.926  12.076  0.6883 -0.2879 -0.3261
 1076TIP3   OH224718   5.269   6.234  15.551  0.1748  0.1990  0.2769
 1076TIP3    H124719   5.326   6.165  15.588  0.4884 -0.7240 -1.8632
 1076TIP3    H224720   5.190   6.230  15.604  0.5036 -1.2816  0.6835
 1077TIP3   OH224721   0.857   3.011   4.901 -0.3623 -0.1489 -0.2035
 1077TIP3    H124722   0.849   3.055   4.986  2.7934 -0.5279  0.3402
 1077TIP3    H224723   0.898   3.075   4.844  1.0057 -1.1481 -0.3733
 1078TIP3   OH224724   5.509   5.005  10.818 -0.2433  0.1565 -0.0128
 1078TIP3    H124725   5.502   4.956  10.736 -0.5667  0.9707 -0.4746
 1078TIP3    H224726   5.421   4.999  10.856 -0.8168  1.9423 -0.9803
 1079TIP3   OH224727   4.758   3.297  13.972  0.4021  0.0947  0.9255
 1079TIP3    H124728   4.751   3.316  13.879 -0.2400 -0.1542  0.9162
 1079TIP3    H224729   4.825   3.229  13.978 -1.5009 -1.9278  0.3309
 1080TIP3   OH224730   5.740   6.720   5.614 -0.3126  0.0929  0.2256
 1080TIP3    H124731   5.728   6.814   5.600  0.8981  0.2688  0.3484
 1080TIP3    H224732   5.775   6.713   5.702  2.9523 -0.1979 -1.0286
 1081TIP3   OH224733   6.548   4.200   5.477 -0.2573 -0.0060  0.0772
 1081TIP3    H124734   6.567   4.172   5.567 -0.5603  0.3199  0.2424
 1081TIP3    H224735   6.518   4.120   5.433 -1.0109  0.0324  0.5194
 1082TIP3   OH224736   3.256   4.940   3.710  0.0424 -0.2025 -0.0610
 1082TIP3    H124737   3.335   4.898   3.744  1.2293  0.7882 -1.5459
 1082TIP3    H224738   3.250   5.022   3.759 -0.0977 -0.2951  0.0787
 1083TIP3   OH224739   6.673   6.652   6.958 -0.3105  0.1630 -0.0993
 1083TIP3    H124740   6.716   6.730   6.925  2.1825 -0.8033  0.7096
 1083TIP3    H224741   6.665   6.594   6.882 -0.5433  0.4957 -0.3291
 1084TIP3   OH224742   4.433   2.486  11.781  0.3382 -0.1534  0.3663
 1084TIP3    H124743   4.364   2.524  11.835  0.6807  2.2468 -0.8489
 1084TIP3    H224744   4.388   2.453  11.703  0.5469  1.5938 -0.5202
 1085TIP3   OH224745   6.744   4.812  15.439 -0.1519 -0.5791 -0.4864
 1085TIP3    H124746   6.732   4.740  15.500 -1.6993 -0.1903 -0.3068
 1085TIP3    H224747   6.791   4.879  15.489  0.5622 -1.1288 -0.4117
 1086TIP3   OH224748   1.109   3.958   3.313 -0.1444 -0.6506  0.1559
 1086TIP3    H124749   1.193   3.951   3.358 -0.3682  0.6235  0.7838
 1086TIP3    H224750   1.116   3.897   3.240  1.7749  0.3175 -0.5053
 1087TIP3   OH224751   3.977   6.650  11.545 -0.1890  0.1175  0.3096
 1087TIP3    H124752   3.936   6.660  11.631 -0.7507 -0.6595  0.1336
 1087TIP3    H224753   3.918   6.594  11.497  0.3606  0.1763 -0.4398
 1088TIP3   OH224754   4.815   2.509   4.658  0.2758  0.3023  0.0013
 1088TIP3    H124755   4.899   2.486   4.698  0.0620  0.0298  0.2988
 1088TIP3    H224756   4.792   2.432   4.605  0.8960  0.9417 -1.2072
 1089TIP3   OH224757   6.416   2.690  14.267  0.1024 -0.1800 -0.1380
 1089TIP3    H124758   6.448   2.734  14.346 -1.7959  0.2121  0.4525
 1089TIP3    H224759   6.485   2.628  14.244  1.1891  0.5288  1.1574
 1090TIP3   OH224760   4.855   2.904  16.461  0.0270  0.0380  0.2810
 1090TIP3    H124761   4.913   2.973  16.493  0.2064  0.1436 -0.2693
 1090TIP3    H224762   4.832   2.931  16.372  1.7677 -1.6550 -0.7191
 1091TIP3   OH224763   2.694   1.470  15.546  0.4422 -0.5552 -0.6707
 1091TIP3    H124764   2.753   1.541  15.520 -2.0264  0.8814 -2.5493
 1091TIP3    H224765   2.686   1.415  15.469 -1.4479 -0.1527 -0.7913
 1092TIP3   OH224766   5.065   3.587  16.029  0.2962 -0.4666 -0.2312
 1092TIP3    H124767   4.976   3.612  16.002  0.7958  1.5123 -0.1439
 1092TIP3    H224768   5.056   3.562  16.121 -0.1976 -0.3882 -0.2543
 1093TIP3   OH224769   4.054   2.168  12.881  0.1728  0.4643 -0.3764
 1093TIP3    H124770   3.975   2.113  12.887  0.6513 -0.5606 -2.9281
 1093TIP3    H224771   4.091   2.166  12.970  0.0910 -3.2383 -0.3219
 1094TIP3   OH224772   1.611   2.621   2.168 -0.2302  0.0453 -0.1274
 1094TIP3    H124773   1.525   2.648   2.136  0.3314  0.5272 -1.2490
 1094TIP3    H224774   1.617   2.528   2.145 -0.4256  0.0189 -0.0802
 1095TIP3   OH224775   5.284   5.796  15.239 -0.1948 -0.2696 -0.6975
 1095TIP3    H124776   5.330   5.835  15.313 -2.7950  1.4368  0.0954
 1095TIP3    H224777   5.278   5.703  15.261 -2.0093  0.3889  1.9230
 1096TIP3   OH224778   2.103   2.827   6.075 -0.0581  0.0068 -0.5020
 1096TIP3    H124779   2.051   2.803   6.152  1.2633 -3.2671 -0.5294
 1096TIP3    H224780   2.056   2.787   6.001 -0.7846  2.2885 -1.3056
 1097TIP3   OH224781   4.414   2.760   5.653  0.3116  0.5204 -0.0206
 1097TIP3    H124782   4.443   2.740   5.563  1.6731 -0.8492  0.6922
 1097TIP3    H224783   4.407   2.855   5.655  1.8156  0.6820 -1.1618
 1098TIP3   OH224784   2.325   4.586  10.453  0.2750 -0.1027  0.1773
 1098TIP3    H124785   2.354   4.509  10.502  2.4933 -0.7954 -2.1075
 1098TIP3    H224786   2.230   4.576  10.447  0.5731 -3.0421 -0.6302
 1099TIP3   OH224787   6.149   3.689  13.911  0.0567 -0.1043  0.3915
 1099TIP3    H124788   6.211   3.708  13.840 -0.1512  0.9726  0.5005
 1099TIP3    H224789   6.072   3.742  13.891 -0.3482 -0.4760  0.9514
 1100TIP3   OH224790   0.556   1.820  12.877  0.7143 -0.1000  0.2274
 1100TIP3    H124791   0.648   1.828  12.903  0.6171  1.1846  0.1923
 1100TIP3    H224792   0.534   1.905  12.840 -1.0716  0.2593  2.0677
 1101TIP3   OH224793   1.293   2.996   2.560 -0.2886 -0.0558 -0.1766
 1101TIP3    H124794   1.275   3.058   2.489 -1.8650 -0.4990 -0.1821
 1101TIP3    H224795   1.322   2.916   2.516 -1.3474 -0.3590 -0.3434
 1102TIP3   OH224796   0.374   3.394   2.069  0.4521  0.5106  0.1852
 1102TIP3    H124797   0.395   3.478   2.110  1.7013 -0.5613  1.8579
 1102TIP3    H224798   0.332   3.417   1.987  0.8982  2.7758  0.5455
 1103TIP3   OH224799   6.592   1.084   0.557  0.1541 -0.3398  0.0388
 1103TIP3    H124800   6.651   1.152   0.525  2.2080 -1.9927  0.1301
 1103TIP3    H224801   6.540   1.059   0.481  1.0907 -0.3565 -0.6094
 1104TIP3   OH224802   1.054   6.780  16.453 -0.7825  0.6228  0.1224
 1104TIP3    H124803   0.970   6.751  16.488 -0.9920  0.1442 -0.7731
 1104TIP3    H224804   1.052   6.756  16.360  1.4349 -1.8894  0.6457
 1105TIP3   OH224805   5.799   0.945  15.220  0.0302  0.4335  0.2700
 1105TIP3    H124806   5.882   0.907  15.191 -0.3462 -0.7040  0.6559
 1105TIP3    H224807   5.778   0.899  15.301 -0.2769  1.7160  0.9337
 1106TIP3   OH224808   6.788   1.680   5.567 -0.3187  0.6363  0.2894
 1106TIP3    H124809   6.708   1.664   5.517 -0.2362 -3.7913  1.3334
 1106TIP3    H224810   6.845   1.606   5.545  1.7763  1.4009  2.8543
 1107TIP3   OH224811   6.088   0.630   1.423  0.3689 -0.1226  0.0287
 1107TIP3    H124812   6.036   0.605   1.499 -1.1413  0.2220 -0.8877
 1107TIP3    H224813   6.111   0.722   1.439  0.8466 -0.3193  0.5013
 1108TIP3   OH224814   1.447   0.669   5.982 -0.0133 -0.0038  0.2853
 1108TIP3    H124815   1.357   0.697   5.965 -0.8305 -2.4916  0.3491
 1108TIP3    H224816   1.474   0.720   6.058 -1.0246  1.4575 -0.3086
 1109TIP3   OH224817   4.925   5.683   5.262  0.7919  0.0048  0.4318
 1109TIP3    H124818   4.929   5.617   5.332 -1.1619 -1.4607 -0.7739
 1109TIP3    H224819   4.835   5.714   5.264  1.1521  1.1079 -0.4236
 1110TIP3   OH224820   1.081   0.095   5.168 -0.3142  0.1569  0.3496
 1110TIP3    H124821   1.049   0.017   5.121  2.5918 -0.0659 -1.4204
 1110TIP3    H224822   1.035   0.168   5.126  0.5408 -0.2380 -1.3386
 1111TIP3   OH224823   6.214   3.943  12.741  0.3274  0.0962  0.0536
 1111TIP3    H124824   6.178   4.027  12.770  0.0576  0.4880 -1.4104
 1111TIP3    H224825   6.253   3.961  12.656  0.3968 -1.2376 -0.2140
 1112TIP3   OH224826   5.651   4.793   1.798 -0.4869 -0.5404  0.2102
 1112TIP3    H124827   5.594   4.773   1.872  0.1193  0.1680  0.8702
 1112TIP3    H224828   5.670   4.886   1.806 -1.3040 -0.2171 -1.4676
 1113TIP3   OH224829   6.056   4.090   4.457 -0.0885 -0.1087 -0.3218
 1113TIP3    H124830   5.974   4.049   4.429 -0.4654  0.3134  0.1509
 1113TIP3    H224831   6.056   4.081   4.552  0.6494 -0.5339 -0.3570
 1114TIP3   OH224832   6.575   0.866  11.534  0.0826  0.1598 -0.3930
 1114TIP3    H124833   6.599   0.895  11.447 -1.0604  0.5540 -0.5846
 1114TIP3    H224834   6.649   0.813  11.563  0.9066  0.8757 -1.1883
 1115TIP3   OH224835   3.359   2.363   4.410  0.0433  0.6645 -0.3650
 1115TIP3    H124836   3.422   2.356   4.338  0.3532  0.0488 -0.0381
 1115TIP3    H224837   3.410   2.395   4.484 -0.5287  2.5023 -0.7392
 1116TIP3   OH224838   3.186   3.205   2.929  0.0455  0.7611  0.1724
 1116TIP3    H124839   3.176   3.242   2.842 -0.9183  0.2952  0.0761
 1116TIP3    H224840   3.276   3.173   2.932  0.6873  2.5290  0.0475
 1117TIP3   OH224841   0.195   2.012  13.116  0.0710  0.2260 -0.0017
 1117TIP3    H124842   0.113   1.964  13.106  1.4489 -2.3026  0.5437
 1117TIP3    H224843   0.242   1.997  13.034  1.4639 -1.2133  1.0557
 1118TIP3   OH224844   5.596   2.260   1.256 -0.1779  0.5190 -0.1312
 1118TIP3    H124845   5.612   2.193   1.189 -1.6132 -1.1130  1.0897
 1118TIP3    H224846   5.541   2.324   1.213 -0.4563 -0.1212 -0.7449
 1119TIP3   OH224847   5.436   6.440   3.450 -0.0755 -0.8468 -0.1013
 1119TIP3    H124848   5.359   6.414   3.399  0.0745 -0.3131 -0.5969
 1119TIP3    H224849   5.470   6.517   3.405  1.8206 -2.1386 -0.9599
 1120TIP3   OH224850   6.212   5.819   1.659 -0.5052  0.4272  0.3356
 1120TIP3    H124851   6.133   5.797   1.708  0.1748  0.8405  1.6095
 1120TIP3    H224852   6.201   5.773   1.575 -0.3340 -2.6991  1.9512
 1121TIP3   OH224853   6.224   5.558  14.341  0.4546 -1.3538 -0.6331
 1121TIP3    H124854   6.302   5.583  14.292 -0.7795 -0.1436 -2.0311
 1121TIP3    H224855   6.257   5.506  14.414  2.5860 -0.5607 -1.0075
 1122TIP3   OH224856   5.798   4.150   3.091 -0.2769 -0.2810  0.0059
 1122TIP3    H124857   5.875   4.161   3.147 -0.7344 -2.0906  1.0185
 1122TIP3    H224858   5.829   4.171   3.003  1.2969 -0.7083  0.4421
 1123TIP3   OH224859   4.376   5.321   4.985  0.4796 -0.4878 -0.1357
 1123TIP3    H124860   4.353   5.372   4.908  1.4459 -1.1742 -0.8795
 1123TIP3    H224861   4.332   5.237   4.973 -2.3700  0.6073  1.8068
 1124TIP3   OH224862   2.794   2.715  16.526 -0.3098 -0.3508  0.2509
 1124TIP3    H124863   2.788   2.623  16.554 -1.3515 -0.3104  0.1882
 1124TIP3    H224864   2.740   2.763  16.589  0.7750  0.3140  0.6752
 1125TIP3   OH224865   2.516   3.134   4.980  0.1627  0.0723 -0.3941
 1125TIP3    H124866   2.472   3.213   5.012  0.8942  0.8367 -1.2234
 1125TIP3    H224867   2.600   3.166   4.945  0.2739 -1.0138 -1.1581
 1126TIP3   OH224868   1.041   5.030  12.646  0.3954  0.3578 -0.7828
 1126TIP3    H124869   1.020   5.123  12.659 -1.5889 -0.2552  0.5879
 1126TIP3    H224870   1.089   5.028  12.563  1.1113  2.6920 -0.4803
 1127TIP3   OH224871   1.062   5.320  16.278 -0.2167 -0.1506 -0.1182
 1127TIP3    H124872   1.037   5.397  16.328 -0.4754 -0.7738  0.7315
 1127TIP3    H224873   1.021   5.332  16.192  0.6568  1.1728 -0.3572
 1128TIP3   OH224874   2.102   3.509  10.875 -0.0683 -0.0690  0.4260
 1128TIP3    H124875   2.163   3.579  10.850 -0.7345  0.3313 -0.0875
 1128TIP3    H224876   2.021   3.531  10.830 -0.1131 -1.4854 -0.1883
 1129TIP3   OH224877   1.028   6.760   0.561 -0.6363  0.5625  0.1242
 1129TIP3    H124878   1.059   6.791   0.646  1.3107  1.3224 -0.8259
 1129TIP3    H224879   1.091   6.796   0.498 -0.6928 -1.9131 -1.4250
 1130TIP3   OH224880   6.564   5.360   4.198 -0.0334 -0.2743 -0.0367
 1130TIP3    H124881   6.545   5.395   4.111 -2.7269 -0.0810  0.5973
 1130TIP3    H224882   6.501   5.289   4.210  0.5904 -0.5847  1.5890
 1131TIP3   OH224883   2.438   5.868   6.270 -0.6265 -0.3833 -0.0110
 1131TIP3    H124884   2.524   5.863   6.227  0.3253 -0.5813  1.8509
 1131TIP3    H224885   2.407   5.956   6.251 -0.1234 -0.3883 -0.9060
 1132TIP3   OH224886   1.676   2.728  10.571 -0.0056  0.2701 -0.1581
 1132TIP3    H124887   1.711   2.774  10.647 -0.1654  1.2595 -0.6772
 1132TIP3    H224888   1.724   2.765  10.497 -2.3965  1.9410 -0.9240
 1133TIP3   OH224889   3.706   4.289  14.746 -0.5175  0.2911  0.0529
 1133TIP3    H124890   3.653   4.368  14.755 -0.9814  0.0690 -0.6630
 1133TIP3    H224891   3.687   4.257  14.657  3.0909  1.8465 -1.3614
 1134TIP3   OH224892   4.870   0.631   3.815  0.3950 -0.5929  0.3268
 1134TIP3    H124893   4.956   0.668   3.837  0.1164  0.3707 -0.2312
 1134TIP3    H224894   4.873   0.542   3.852  2.8649 -1.7685 -2.4971
 1135TIP3   OH224895   4.254   2.230   1.526 -0.0082  0.0957  0.7956
 1135TIP3    H124896   4.305   2.218   1.606 -1.6313 -0.4005  1.7688
 1135TIP3    H224897   4.320   2.236   1.456  1.3424 -1.8358  1.8529
 1136TIP3   OH224898   3.829   1.509   0.619  0.3510 -0.4428 -0.4601
 1136TIP3    H124899   3.906   1.465   0.582 -0.3636 -1.0480 -1.2633
 1136TIP3    H224900   3.852   1.601   0.622  1.8833 -0.8590  1.2471
 1137TIP3   OH224901   2.722   3.272  11.931 -0.0623 -0.1370  0.0243
 1137TIP3    H124902   2.776   3.201  11.966  2.8824  2.5320  1.1169
 1137TIP3    H224903   2.785   3.338  11.902 -2.7087  1.6920 -1.7577
 1138TIP3   OH224904   2.312   0.667   0.079  0.0526  0.0130  0.0857
 1138TIP3    H124905   2.238   0.608   0.060 -1.2947  1.5718  0.3378
 1138TIP3    H224906   2.304   0.736   0.013  1.2446  0.2448  0.1836
 1139TIP3   OH224907   4.808   2.518   3.034  0.8267 -0.3303 -0.6909
 1139TIP3    H124908   4.722   2.479   3.052 -0.2437  1.7998 -1.1050
 1139TIP3    H224909   4.851   2.523   3.120 -0.2202  0.3433 -0.1991
 1140TIP3   OH224910   5.602   3.115   2.328 -0.1895  0.2447 -0.7951
 1140TIP3    H124911   5.585   3.085   2.418 -0.2838 -1.0919 -1.2560
 1140TIP3    H224912   5.530   3.175   2.309 -0.8809 -0.4546 -0.4272
 1141TIP3   OH224913   6.061   2.756   6.068 -0.2798 -0.5306 -0.6256
 1141TIP3    H124914   6.125   2.778   6.135  0.7202 -1.2312 -1.3495
 1141TIP3    H224915   6.003   2.692   6.110 -0.7362  0.3697  0.1382
 1142TIP3   OH224916   5.487   5.070   4.835 -0.7007 -0.0187 -0.7868
 1142TIP3    H124917   5.417   5.122   4.794 -0.4546 -0.1666 -1.4071
 1142TIP3    H224918   5.567   5.097   4.789 -0.3324  0.2265 -0.0092
 1143TIP3   OH224919   3.460   3.156   4.257  0.0616 -0.3827  0.0216
 1143TIP3    H124920   3.502   3.075   4.229  1.2752  1.1154 -2.6309
 1143TIP3    H224921   3.367   3.143   4.238  0.2459 -1.1688 -0.3519
 1144TIP3   OH224922   1.230   1.503  10.568 -0.1639  0.4313  0.1682
 1144TIP3    H124923   1.300   1.448  10.604 -1.5941 -1.0327  0.7880
 1144TIP3    H224924   1.253   1.592  10.595 -0.1759 -0.4018  3.1329
 1145TIP3   OH224925   0.158   0.460  17.291 -0.5224 -0.2944 -0.2145
 1145TIP3    H124926   0.069   0.494  17.301 -1.1503 -1.7599 -0.7711
 1145TIP3    H224927   0.191   0.504  17.212 -0.2486  1.2822  0.7526
 1146TIP3   OH224928   1.294   1.622   4.131 -0.5788  0.5042 -0.3089
 1146TIP3    H124929   1.337   1.581   4.206  1.1612 -0.0843 -1.6064
 1146TIP3    H224930   1.201   1.601   4.142 -0.0989 -1.1993  0.6514
 1147TIP3   OH224931   2.608   4.760   1.432  0.4509  0.5630  0.1432
 1147TIP3    H124932   2.555   4.768   1.353  1.7733  0.2603 -0.7833
 1147TIP3    H224933   2.581   4.677   1.471  2.6325 -1.2952 -2.1530
 1148TIP3   OH224934   5.671   1.604   1.664  0.2661 -0.2171  0.2510
 1148TIP3    H124935   5.647   1.695   1.679 -1.3270 -0.7282  0.9249
 1148TIP3    H224936   5.589   1.561   1.638  1.8000 -0.5490 -4.6295
 1149TIP3   OH224937   4.038   3.388   2.052  0.1393  0.3868  0.1100
 1149TIP3    H124938   4.108   3.419   2.109  0.4821  4.3462 -2.2497
 1149TIP3    H224939   3.958   3.401   2.102  0.6886  0.8003  0.8918
 1150TIP3   OH224940   5.881   5.484  11.915  0.4064  0.1005  0.1426
 1150TIP3    H124941   5.943   5.536  11.967  0.1592  0.3222  0.2153
 1150TIP3    H224942   5.805   5.473  11.973  0.2385  0.1206 -0.0742
 1151TIP3   OH224943   1.049   2.970  12.804 -0.0862  0.1522  0.1218
 1151TIP3    H124944   1.101   2.897  12.771 -0.0739 -0.0436  0.5721
 1151TIP3    H224945   1.113   3.032  12.838 -0.1359 -0.0435  0.5820
 1152TIP3   OH224946   6.637   6.100  12.896 -0.0212  0.0667 -0.1134
 1152TIP3    H124947   6.573   6.032  12.917  1.1473 -0.6238  1.2800
 1152TIP3    H224948   6.590   6.182  12.908 -0.6579 -0.4330  0.8895
 1153TIP3   OH224949   0.825   6.705  16.229 -0.3203 -0.0416 -0.1129
 1153TIP3    H124950   0.900   6.668  16.182  0.3852  0.1852  0.8263
 1153TIP3    H224951   0.748   6.674  16.180  0.2529 -2.5790  0.5348
 1154TIP3   OH224952   1.286   6.762  11.516 -0.4954 -0.5735 -0.5221
 1154TIP3    H124953   1.287   6.781  11.422  0.8506 -0.4934 -0.5091
 1154TIP3    H224954   1.210   6.809  11.550 -0.4886  0.1049 -1.4312
 1155TIP3   OH224955   4.189   3.686   5.345 -0.5438 -0.1790 -0.1480
 1155TIP3    H124956   4.221   3.773   5.322 -0.9954  0.0100 -0.0588
 1155TIP3    H224957   4.248   3.656   5.414  0.2364 -0.3621 -0.8824
 1156TIP3   OH224958   2.245   4.066   2.979  0.1637 -0.0883 -0.5324
 1156TIP3    H124959   2.234   3.998   3.045 -0.5889 -0.1844 -0.7518
 1156TIP3    H224960   2.332   4.049   2.941  0.2676 -0.5004 -0.1123
 1157TIP3   OH224961   5.499   0.363   2.969  0.4218  0.7312 -0.2739
 1157TIP3    H124962   5.485   0.275   2.934  0.6884  0.3260  0.6129
 1157TIP3    H224963   5.429   0.416   2.931 -0.8025 -0.2604  0.5450
 1158TIP3   OH224964   6.201   1.169   0.450 -0.0703 -0.2433 -0.2311
 1158TIP3    H124965   6.221   1.174   0.543 -0.6343 -0.4975 -0.0935
 1158TIP3    H224966   6.111   1.135   0.446 -1.0019  2.1222 -0.7763
 1159TIP3   OH224967   2.708   2.631   0.887  0.1222  0.0923  0.0986
 1159TIP3    H124968   2.668   2.712   0.855  0.5750  0.4147  0.3462
 1159TIP3    H224969   2.635   2.569   0.893 -0.1302  0.3145 -0.6312
 1160TIP3   OH224970   2.553   5.389  16.732 -0.0846  0.6381 -0.7884
 1160TIP3    H124971   2.597   5.336  16.799  0.5906  2.2223  0.0460
 1160TIP3    H224972   2.557   5.479  16.766 -0.1968  1.3861 -2.7207
 1161TIP3   OH224973   0.207   3.031   0.935 -0.5602 -0.4978  0.1555
 1161TIP3    H124974   0.196   2.958   0.995  0.0502 -0.0111  0.8656
 1161TIP3    H224975   0.126   3.032   0.883 -0.7541 -1.3995  0.4271
 1162TIP3   OH224976   3.391   4.051   4.421 -0.8183  1.1058 -0.5080
 1162TIP3    H124977   3.356   4.140   4.419 -0.5063  1.2389  0.0972
 1162TIP3    H224978   3.334   4.002   4.361  0.0367  2.0848 -2.1472
 1163TIP3   OH224979   6.576   5.782   1.867  0.4403 -0.5446  0.2121
 1163TIP3    H124980   6.511   5.713   1.855 -0.2757  0.2683 -0.6328
 1163TIP3    H224981   6.542   5.835   1.939 -0.3039  0.4021 -0.8151
 1164TIP3   OH224982   0.140   1.396  16.585  0.3510 -0.1429 -0.3434
 1164TIP3    H124983   0.068   1.335  16.605  0.9980 -1.2322 -1.2767
 1164TIP3    H224984   0.099   1.464  16.531 -0.0246 -0.6283 -0.6770
 1165TIP3   OH224985   5.402   5.428  17.288  0.3135 -0.7378  0.4570
 1165TIP3    H124986   5.453   5.433  17.207  2.0055 -1.9407  1.3894
 1165TIP3    H224987   5.468   5.424  17.358 -1.1099  0.7324  1.9385
 1166TIP3   OH224988   2.469   0.978  16.733  0.1030 -0.0208 -0.2227
 1166TIP3    H124989   2.536   1.015  16.790 -0.8334  1.0314  0.2037
 1166TIP3    H224990   2.395   0.958  16.790 -0.5527  0.3259 -0.9267
 1167TIP3   OH224991   2.167   1.833   3.908 -0.1107  0.1743 -0.2072
 1167TIP3    H124992   2.221   1.789   3.842  1.7929  0.5213  1.0551
 1167TIP3    H224993   2.174   1.778   3.985 -3.2077 -0.8019 -0.5565
 1168TIP3   OH224994   3.338   1.460  13.837  0.2815  0.2626 -0.5100
 1168TIP3    H124995   3.373   1.467  13.926  0.0256  2.0989 -0.5375
 1168TIP3    H224996   3.329   1.366  13.822  2.6005 -0.1519  0.5176
 1169TIP3   OH224997   2.188   4.732  14.408  0.2738 -0.3844  0.6069
 1169TIP3    H124998   2.161   4.653  14.455 -1.0673 -0.6569 -0.5732
 1169TIP3    H224999   2.164   4.714  14.317  2.2294  0.3889 -0.0895
 1170TIP3   OH225000   6.350   5.969  15.436 -0.1083  0.1211 -0.2099
 1170TIP3    H125001   6.434   5.925  15.422 -0.8362 -1.7493  1.0668
 1170TIP3    H225002   6.363   6.017  15.518 -0.2319 -0.0463 -0.0925
 1171TIP3   OH225003   5.009   3.688   4.006 -0.5350 -0.7079  0.1595
 1171TIP3    H125004   5.087   3.632   4.014 -1.5840 -2.0199  1.3754
 1171TIP3    H225005   5.032   3.750   3.937  0.7015 -2.5874 -1.1772
 1172TIP3   OH225006   1.832   2.491   0.279 -0.3948 -0.3181 -0.1231
 1172TIP3    H125007   1.900   2.474   0.345 -1.2342  1.2203  1.1854
 1172TIP3    H225008   1.817   2.407   0.238  1.3610 -0.9660  0.4897
 1173TIP3   OH225009   0.881   1.869   5.365  0.5302  0.1692  0.2374
 1173TIP3    H125010   0.917   1.837   5.283  1.0374  2.1037 -0.3304
 1173TIP3    H225011   0.923   1.816   5.433  1.6061 -0.1011 -0.6311
 1174TIP3   OH225012   1.995   2.809   0.963 -1.0047  0.5444 -0.0650
 1174TIP3    H125013   1.904   2.793   0.937 -1.1475  1.5010 -0.1668
 1174TIP3    H225014   1.997   2.787   1.056 -0.9487 -1.0487 -0.4324
 1175TIP3   OH225015   4.412   4.036  11.454 -0.0836 -0.3421  0.4040
 1175TIP3    H125016   4.353   4.055  11.381 -1.0029  0.7044  1.3948
 1175TIP3    H225017   4.500   4.044  11.417 -0.5364  0.5032 -0.5003
 1176TIP3   OH225018   0.744   0.211   0.693  0.0218  0.5324 -0.5996
 1176TIP3    H125019   0.728   0.281   0.757  0.1908  0.0200  0.0079
 1176TIP3    H225020   0.756   0.132   0.746 -0.4833 -0.0204 -1.2960
 1177TIP3   OH225021   1.527   5.891   2.115  0.2029 -0.2650  0.1009
 1177TIP3    H125022   1.583   5.820   2.144 -1.1597 -1.7360 -0.7910
 1177TIP3    H225023   1.449   5.884   2.170  0.0100  0.4515 -0.0785
 1178TIP3   OH225024   4.279   4.447  14.063  0.1907  0.5894  0.0057
 1178TIP3    H125025   4.228   4.446  13.982 -0.4999 -1.5260  0.4486
 1178TIP3    H225026   4.246   4.523  14.111 -1.3188  0.2601 -0.4892
 1179TIP3   OH225027   6.455   2.978   5.600  0.4036  0.2648  0.1704
 1179TIP3    H125028   6.445   2.973   5.505  0.0691  1.0460  0.1609
 1179TIP3    H225029   6.371   3.011   5.632  0.7619  0.7144  0.6689
 1180TIP3   OH225030   1.738   0.086  16.697 -0.3646 -0.1796 -0.4682
 1180TIP3    H125031   1.689   0.038  16.763 -0.7527  1.4631  0.4793
 1180TIP3    H225032   1.754   0.022  16.628 -1.2709 -1.5257  0.5305
 1181TIP3   OH225033   0.221   0.819   0.446  0.6272 -0.0018  0.1803
 1181TIP3    H125034   0.182   0.802   0.531  0.6144 -1.8536 -0.1813
 1181TIP3    H225035   0.174   0.896   0.413 -0.0130  0.1493  1.4157
 1182TIP3   OH225036   5.462   3.287  14.089 -0.5356  0.0891 -0.3977
 1182TIP3    H125037   5.544   3.241  14.071 -1.0711 -0.4765 -1.4495
 1182TIP3    H225038   5.465   3.305  14.183  1.0929  0.6787 -0.5375
 1183TIP3   OH225039   0.060   2.307  14.138  0.2484 -0.0813 -0.2786
 1183TIP3    H125040  -0.018   2.269  14.181  1.3356 -0.6866  1.2094
 1183TIP3    H225041   0.079   2.246  14.067 -0.0533 -0.4912 -0.0172
 1184TIP3   OH225042   3.423   2.719   2.146 -0.0457  0.0260  0.0806
 1184TIP3    H125043   3.412   2.718   2.241 -2.6272 -1.4017 -0.2040
 1184TIP3    H225044   3.423   2.627   2.120  1.5061  0.3673 -1.2481
 1185TIP3   OH225045   6.412   4.572   2.213 -0.4355  0.0747 -0.0203
 1185TIP3    H125046   6.384   4.493   2.165 -1.1364  1.6922 -2.3740
 1185TIP3    H225047   6.386   4.644   2.156  0.2939  2.0142  2.0666
 1186TIP3   OH225048   3.372   2.554  16.886  0.9907  0.0669  0.0159
 1186TIP3    H125049   3.395   2.519  16.800  0.1026 -0.4746 -0.0099
 1186TIP3    H225050   3.296   2.503  16.913  1.2100  0.2919  1.0887
 1187TIP3   OH225051   5.548   2.750  16.058 -0.5838  0.1694 -0.2965
 1187TIP3    H125052   5.596   2.802  15.993  1.3385 -1.1650  0.0050
 1187TIP3    H225053   5.578   2.660  16.044 -0.8465 -0.2819  1.7818
 1188TIP3   OH225054   0.589   5.157   0.712  0.5221 -0.2903  0.7511
 1188TIP3    H125055   0.615   5.232   0.766 -0.4967  0.7416 -0.1642
 1188TIP3    H225056   0.652   5.157   0.640  0.1069  0.1199  0.3815
 1189TIP3   OH225057   2.657   1.294   5.539 -0.5251  0.0438 -0.2028
 1189TIP3    H125058   2.645   1.203   5.510 -0.5371 -0.1938  0.5502
 1189TIP3    H225059   2.728   1.290   5.603 -0.5217  0.5674 -0.1750
 1190TIP3   OH225060   2.755   2.859  11.237 -0.1316 -1.1009 -0.0470
 1190TIP3    H125061   2.678   2.847  11.181  0.1398 -3.2948 -0.0075
 1190TIP3    H225062   2.829   2.848  11.178  0.1521 -1.2264  0.3369
 1191TIP3   OH225063   3.126   5.795   3.694 -0.0775 -0.2546  0.5907
 1191TIP3    H125064   3.108   5.724   3.756  0.7040 -0.1642  0.9238
 1191TIP3    H225065   3.119   5.754   3.608  1.3593 -0.9813  0.8027
 1192TIP3   OH225066   5.228   6.190   2.984 -0.1096  0.6933 -0.3828
 1192TIP3    H125067   5.201   6.135   2.910 -0.3210  0.5885 -0.2273
 1192TIP3    H225068   5.195   6.144   3.061 -0.9792  1.4511 -0.2971
 1193TIP3   OH225069   0.670   2.000   0.476 -1.0003 -0.7110 -0.0638
 1193TIP3    H125070   0.756   2.001   0.517 -0.9341 -1.5081 -0.1775
 1193TIP3    H225071   0.629   2.082   0.503 -1.1189 -1.4002  1.9405
 1194TIP3   OH225072   1.077   0.908  11.337 -0.3360  0.3914 -0.5102
 1194TIP3    H125073   1.068   0.930  11.429 -1.1858  0.1007 -0.5201
 1194TIP3    H225074   0.987   0.891  11.307  0.0061 -0.2541 -1.2007
 1195TIP3   OH225075   5.022   4.841   0.879 -0.4287 -0.4349  0.1952
 1195TIP3    H125076   5.071   4.806   0.805 -0.7768 -0.3035 -0.0997
 1195TIP3    H225077   4.930   4.832   0.853 -0.5225  0.7570  0.0824
 1196TIP3   OH225078   0.463   3.719  13.990  0.6214  0.2659 -0.3077
 1196TIP3    H125079   0.545   3.749  14.029 -0.0603  1.3210  0.3311
 1196TIP3    H225080   0.489   3.650  13.930  1.7858 -0.7251  1.3026
 1197TIP3   OH225081   1.499   1.109   1.316 -0.4975 -0.3032  0.5841
 1197TIP3    H125082   1.469   1.157   1.238  1.4091  0.4480  0.2825
 1197TIP3    H225083   1.419   1.084   1.361 -1.6008  2.6430  0.3915
 1198TIP3   OH225084   0.860   0.625  12.568  0.0123 -0.0434 -0.0288
 1198TIP3    H125085   0.806   0.689  12.520  0.0975 -0.4635 -0.6757
 1198TIP3    H225086   0.799   0.586  12.631 -0.4023 -0.4053 -0.6549
 1199TIP3   OH225087   1.642   3.922  12.681  0.4825  0.2679  0.3056
 1199TIP3    H125088   1.691   3.876  12.613  0.9718 -0.5479  1.2050
 1199TIP3    H225089   1.709   3.949  12.744 -0.1215 -0.0832  1.1001
 1200TIP3   OH225090   2.387   5.102   0.960  0.6016  0.1223 -0.3828
 1200TIP3    H125091   2.361   5.024   0.912 -0.8842  0.4825 -0.1892
 1200TIP3    H225092   2.451   5.071   1.024  0.2089 -0.8815 -0.4759
 1201TIP3   OH225093   3.727   5.781   2.475  0.3594  0.1654  0.3030
 1201TIP3    H125094   3.732   5.806   2.383  1.4999 -1.0537  0.0097
 1201TIP3    H225095   3.634   5.764   2.490  0.1064  0.8110 -0.4941
 1202TIP3   OH225096   5.719   5.031   3.698  0.1502  0.2798 -0.0528
 1202TIP3    H125097   5.681   5.119   3.703 -0.2479  0.1211 -0.2389
 1202TIP3    H225098   5.643   4.973   3.701  0.3160 -0.0085 -1.4553
 1203TIP3   OH225099   1.751   1.707  12.025  0.2737  0.1544  0.4395
 1203TIP3    H125100   1.768   1.710  11.930  2.1930 -2.4766  0.6609
 1203TIP3    H225101   1.806   1.777  12.061  0.0980  0.6872 -0.2984
 1204TIP3   OH225102   4.958   4.904  15.213 -0.3933  0.0740  0.7216
 1204TIP3    H125103   4.972   4.852  15.293  0.6042 -1.5281 -0.4675
 1204TIP3    H225104   4.862   4.911  15.206 -0.5449 -1.6333  0.8905
 1205TIP3   OH225105   3.191   1.108   5.261 -0.5342 -0.1264 -0.5312
 1205TIP3    H125106   3.105   1.086   5.297 -1.1490 -0.0850 -1.9480
 1205TIP3    H225107   3.231   1.024   5.242 -0.5276 -0.1328 -0.4886
 1206TIP3   OH225108   4.464   4.404   0.917  0.1274  0.5811  0.5169
 1206TIP3    H125109   4.470   4.499   0.901 -0.0915  0.6708  0.9700
 1206TIP3    H225110   4.446   4.396   1.011 -0.7892  0.1188  0.3054
 1207TIP3   OH225111   4.070   4.431   0.508  0.4707  0.7008 -0.0519
 1207TIP3    H125112   3.985   4.434   0.464  0.5942  2.1985 -0.2401
 1207TIP3    H225113   4.089   4.338   0.519 -1.4609  0.3548  0.5173
 1208TIP3   OH225114   5.429   5.161   0.299 -0.4122  0.4780 -0.5076
 1208TIP3    H125115   5.382   5.129   0.375  0.1166 -0.2159 -0.4684
 1208TIP3    H225116   5.366   5.217   0.253 -0.8592  0.5616  0.2127
 1209TIP3   OH225117   2.988   1.593  12.954 -0.2771 -0.5988 -0.5663
 1209TIP3    H125118   2.985   1.648  12.876 -1.2422 -0.0585 -0.1595
 1209TIP3    H225119   3.046   1.640  13.014 -0.6037 -0.3314 -0.4559
 1210TIP3   OH225120   0.086   2.513  13.241 -0.3282  0.5417 -0.2509
 1210TIP3    H125121   0.085   2.427  13.200 -1.4237  0.9922 -1.1746
 1210TIP3    H225122   0.131   2.570  13.178  1.4306  0.4256  0.8502
 1211TIP3   OH225123   6.699   2.374  15.502  0.3691 -0.1096  0.3932
 1211TIP3    H125124   6.677   2.468  15.503 -1.3125 -0.4774 -0.4311
 1211TIP3    H225125   6.788   2.371  15.467 -0.2864  1.0709 -1.4863
 1212TIP3   OH225126   4.956   2.694   4.442  0.2454  0.5747 -1.0746
 1212TIP3    H125127   4.919   2.608   4.463  0.2970  0.8991  0.3688
 1212TIP3    H225128   5.050   2.683   4.457  0.1109  1.2258  0.3674
 1213TIP3   OH225129   1.135   5.104   2.546 -0.2017 -0.1460  0.0611
 1213TIP3    H125130   1.202   5.144   2.601 -0.7306  1.2007 -0.2433
 1213TIP3    H225131   1.057   5.158   2.561  0.2210  1.6461 -3.6785
 1214TIP3   OH225132   0.334   1.924   5.410  0.5220  0.6037 -0.3624
 1214TIP3    H125133   0.424   1.920   5.377  0.0361 -1.2245 -1.5418
 1214TIP3    H225134   0.333   1.859   5.481  0.3753  1.3372  0.3163
 1215TIP3   OH225135   2.498   5.290   5.228  0.4432 -0.1040  0.6826
 1215TIP3    H125136   2.444   5.270   5.303  0.1949  2.5688  1.2667
 1215TIP3    H225137   2.474   5.225   5.162 -0.7577 -1.2286  2.2119
 1216TIP3   OH225138   5.562   1.919   1.224 -0.1332 -0.1488 -0.1493
 1216TIP3    H125139   5.630   1.934   1.157  0.7935 -1.9087  0.3617
 1216TIP3    H225140   5.605   1.943   1.306 -0.7628  0.5227 -0.0125
 1217TIP3   OH225141   3.786   6.678   0.462 -0.0039 -0.1766 -0.2067
 1217TIP3    H125142   3.802   6.660   0.369 -2.3690  0.5251 -0.7960
 1217TIP3    H225143   3.859   6.733   0.489 -0.0533  0.8437 -2.0528
 1218TIP3   OH225144   1.167   0.638   5.900  0.3740  0.5659  0.2445
 1218TIP3    H125145   1.132   0.554   5.929 -1.2271 -0.5091 -4.2753
 1218TIP3    H225146   1.114   0.703   5.944  0.8223 -0.7842  2.8626
 1219TIP3   OH225147   3.193   0.593  12.935  0.3220  0.1371  0.1320
 1219TIP3    H125148   3.151   0.558  13.013  1.4969 -0.8426  0.3448
 1219TIP3    H225149   3.153   0.545  12.862 -0.1346  0.4088  0.2063
 1220TIP3   OH225150   5.161   5.181   4.018 -0.3386  0.2736 -0.4480
 1220TIP3    H125151   5.127   5.128   4.091 -2.6353 -0.9690 -2.3388
 1220TIP3    H225152   5.254   5.158   4.013 -0.7823 -1.8052  0.2675
 1221TIP3   OH225153   4.001   2.836   4.939 -0.7026  0.0004 -0.2052
 1221TIP3    H125154   3.995   2.855   5.032 -2.1792  1.3741 -0.5684
 1221TIP3    H225155   4.052   2.909   4.903 -1.0838  0.0537 -0.6390
 1222TIP3   OH225156   3.259   5.318   3.090  0.4321 -0.3266  0.5157
 1222TIP3    H125157   3.269   5.279   3.177  1.3737 -0.4479  0.3643
 1222TIP3    H225158   3.278   5.246   3.030 -0.6771 -0.3630  0.2034
 1223TIP3   OH225159   2.111   2.688  16.320 -0.2635 -0.3268 -0.5710
 1223TIP3    H125160   2.158   2.616  16.361  0.9216  0.7092 -0.0788
 1223TIP3    H225161   2.179   2.741  16.279 -0.9881  1.2377  0.2120
 1224TIP3   OH225162   6.132   3.984   0.953 -0.3294 -0.4562  0.1791
 1224TIP3    H125163   6.044   3.959   0.925 -0.2762 -1.9721  1.3554
 1224TIP3    H225164   6.171   4.025   0.875 -0.7868 -3.0754 -1.4610
 1225TIP3   OH225165   2.864   0.372  11.488  0.1040 -0.1032 -0.0871
 1225TIP3    H125166   2.922   0.401  11.417 -0.0483 -1.2654 -0.7044
 1225TIP3    H225167   2.783   0.422  11.474 -0.5103 -1.4799 -1.7415
 1226TIP3   OH225168   2.475   0.810  14.405 -0.4736  0.4016 -0.2694
 1226TIP3    H125169   2.564   0.845  14.394 -0.3999  0.8399  1.4698
 1226TIP3    H225170   2.480   0.721  14.370  0.7247  0.3586 -0.0206
 1227TIP3   OH225171   4.777   6.458  11.425 -0.0373 -0.3779 -0.2287
 1227TIP3    H125172   4.775   6.493  11.336  1.4082  0.5073  0.0759
 1227TIP3    H225173   4.777   6.535  11.481  4.7095 -0.7107  0.4281
 1228TIP3   OH225174   3.042   5.392  15.282 -0.0586  0.2846  0.3214
 1228TIP3    H125175   3.108   5.462  15.281  0.5173 -0.2075  1.7888
 1228TIP3    H225176   2.961   5.435  15.257  0.3757  1.3933  0.7700
 1229TIP3   OH225177   5.803   5.020  17.159  0.4291 -0.0190 -0.7059
 1229TIP3    H125178   5.852   5.057  17.232 -0.2757 -0.3989 -0.0354
 1229TIP3    H225179   5.865   4.959  17.117  1.2584  1.1488 -1.2180
 1230TIP3   OH225180   0.208   5.961  14.549  0.0792 -0.6279  0.8074
 1230TIP3    H125181   0.126   5.952  14.501  0.3661 -0.3275  0.2618
 1230TIP3    H225182   0.260   6.023  14.498 -0.5387  1.5743  2.7611
 1231TIP3   OH225183   2.520   4.809  11.210  0.1963  0.3836 -0.2693
 1231TIP3    H125184   2.535   4.902  11.223  0.1254  0.5656 -1.4316
 1231TIP3    H225185   2.605   4.768  11.225  0.4411  0.7403 -0.6751
 1232TIP3   OH225186   1.315   1.164  13.336  0.5027 -0.3137  0.2694
 1232TIP3    H125187   1.262   1.210  13.272  1.3292 -0.0708 -0.2514
 1232TIP3    H225188   1.263   1.166  13.417 -0.9635 -1.4773 -0.6347
 1233TIP3   OH225189   2.471   3.236  12.026 -0.3409 -0.2570  0.5939
 1233TIP3    H125190   2.557   3.262  11.994  1.7817 -4.4653  2.4350
 1233TIP3    H225191   2.422   3.214  11.947  1.0001  0.1833 -0.3846
 1234TIP3   OH225192   3.013   6.363   3.709  0.6750 -0.6783  0.0879
 1234TIP3    H125193   3.091   6.392   3.662  2.1115  1.2202  3.4677
 1234TIP3    H225194   3.026   6.269   3.721  1.3430 -0.7766 -1.2795
 1235TIP3   OH225195   2.845   4.692  14.294 -0.5305  0.5067  0.3397
 1235TIP3    H125196   2.842   4.788  14.289 -1.2569  0.4132 -1.1565
 1235TIP3    H225197   2.871   4.664  14.206  1.8961 -0.6026  1.3594
 1236TIP3   OH225198   6.442   5.820  15.710 -0.2969  0.5084 -0.2903
 1236TIP3    H125199   6.454   5.753  15.643 -2.7329 -0.8405  0.5721
 1236TIP3    H225200   6.527   5.824  15.755  0.2403 -1.1428 -1.1261
 1237TIP3   OH225201   1.680   2.816   4.603 -0.0850 -0.9940  0.2334
 1237TIP3    H125202   1.666   2.844   4.693 -0.8629  0.3144 -0.2821
 1237TIP3    H225203   1.609   2.753   4.586 -2.6947  2.0866 -0.8520
 1238TIP3   OH225204   2.907   2.183   1.419 -0.0018  0.0318 -0.0263
 1238TIP3    H125205   2.895   2.129   1.497  2.7283  1.3640  1.3970
 1238TIP3    H225206   2.954   2.127   1.358 -1.3520 -0.7153 -0.4106
 1239TIP3   OH225207   5.987   4.385   1.807  0.3526 -0.0656 -0.3181
 1239TIP3    H125208   6.032   4.345   1.881 -1.5094  0.4512  1.1384
 1239TIP3    H225209   5.930   4.315   1.773 -0.9428  0.5353  0.5765
 1240TIP3   OH225210   0.347   2.147   0.416  0.1138  0.1153  0.0092
 1240TIP3    H125211   0.274   2.084   0.422  1.4318 -1.2596  2.5591
 1240TIP3    H225212   0.399   2.117   0.342 -0.2807 -0.7180  0.0602
 1241TIP3   OH225213   3.393   2.817   6.016  0.1032  0.2343  0.4621
 1241TIP3    H125214   3.350   2.755   6.076  2.2595 -1.3934  0.3801
 1241TIP3    H225215   3.475   2.774   5.992  1.2945  2.8222 -0.2292
 1242TIP3   OH225216   1.694   0.610  15.331  0.1780 -0.3037 -0.1038
 1242TIP3    H125217   1.624   0.600  15.267 -0.6391 -2.6701  1.0959
 1242TIP3    H225218   1.656   0.663  15.401 -0.3755 -1.4688  0.4804
 1243TIP3   OH225219   3.676   0.216   1.237 -1.0101  0.5450 -0.2785
 1243TIP3    H125220   3.744   0.150   1.245 -0.6152  1.1629  1.8413
 1243TIP3    H225221   3.594   0.168   1.253 -0.8447  0.2875 -0.2029
 1244TIP3   OH225222   6.598   6.625  15.247 -0.1877 -0.0224  0.2770
 1244TIP3    H125223   6.674   6.614  15.305 -0.9446  0.5293  1.3861
 1244TIP3    H225224   6.626   6.691  15.184  0.6473 -0.6246  0.0163
 1245TIP3   OH225225   0.389   5.973   3.532  0.8158 -0.1849 -1.0218
 1245TIP3    H125226   0.463   6.010   3.484  1.1444  1.0628  0.4224
 1245TIP3    H225227   0.312   6.005   3.486  1.1219  1.3094 -0.4985
 1246TIP3   OH225228   1.994   3.670   2.964 -0.5495  0.3189 -0.5610
 1246TIP3    H125229   2.071   3.629   2.924 -0.1086  0.9241 -0.3472
 1246TIP3    H225230   2.025   3.702   3.049 -1.4419 -0.8321  0.2105
 1247TIP3   OH225231   6.681   2.994   4.203  0.0378  0.9659 -0.1589
 1247TIP3    H125232   6.752   3.012   4.265  0.7321  1.5137 -1.1009
 1247TIP3    H225233   6.664   3.079   4.161 -1.2401  0.8653  0.1206
 1248TIP3   OH225234   4.014   4.469   2.789  0.1249  0.2083 -0.0268
 1248TIP3    H125235   4.063   4.390   2.765 -1.2263 -0.1080 -1.8521
 1248TIP3    H225236   3.968   4.446   2.870 -0.0827 -0.7985 -0.4329
 1249TIP3   OH225237   4.635   0.283   3.669 -0.3450 -0.3669  0.2753
 1249TIP3    H125238   4.651   0.356   3.608 -0.2580  0.9855  1.8763
 1249TIP3    H225239   4.654   0.205   3.618 -0.5477  0.7251 -1.5270
 1250TIP3   OH225240   5.869   1.366  15.665 -0.2482  0.3241  0.3053
 1250TIP3    H125241   5.847   1.291  15.721 -0.6220  0.5941  0.5209
 1250TIP3    H225242   5.959   1.350  15.638 -0.4680 -0.4283 -0.0021
 1251TIP3   OH225243   6.127   5.183  11.398  0.0315 -0.0506 -0.5096
 1251TIP3    H125244   6.119   5.179  11.493  0.5753 -1.9725 -0.5307
 1251TIP3    H225245   6.201   5.241  11.383  0.4111 -0.3294  0.2570
 1252TIP3   OH225246   3.527   5.989  17.250  0.0390  0.6140  0.5570
 1252TIP3    H125247   3.580   6.047  17.195  2.4326 -0.8872  1.1972
 1252TIP3    H225248   3.555   5.900  17.225 -0.4298 -0.1448  2.6515
 1253TIP3   OH225249   0.722   4.776   2.934 -0.0429  0.3799 -0.5949
 1253TIP3    H125250   0.756   4.720   2.864  0.3142  0.5230 -0.5348
 1253TIP3    H225251   0.781   4.761   3.008  0.2108  1.0341 -0.6630
 1254TIP3   OH225252   2.927   2.020   5.733 -0.0382 -0.0145 -0.4243
 1254TIP3    H125253   2.921   1.930   5.700 -0.8607  0.8576 -2.7205
 1254TIP3    H225254   2.836   2.044   5.752  0.3620 -0.3196  2.1120
 1255TIP3   OH225255   1.254   4.171  14.626  0.1895 -0.5983 -0.7478
 1255TIP3    H125256   1.207   4.185  14.544  1.2644 -0.3182 -1.3216
 1255TIP3    H225257   1.319   4.104  14.606  2.4067  1.5334 -0.9271
 1256TIP3   OH225258   1.923   0.203   2.146  0.0078  0.6612 -0.1912
 1256TIP3    H125259   1.911   0.108   2.158  1.3789  0.8305  2.9668
 1256TIP3    H225260   1.983   0.210   2.071  0.4467 -0.9959 -0.0277
 1257TIP3   OH225261   1.163   4.709  15.399  0.3531  0.2810 -0.9243
 1257TIP3    H125262   1.241   4.764  15.407 -0.0865  0.6550  1.1698
 1257TIP3    H225263   1.180   4.635  15.457  0.6844 -1.5407 -3.2834
 1258TIP3   OH225264   1.755   4.631   0.284 -0.1367 -0.3747 -0.3541
 1258TIP3    H125265   1.820   4.562   0.268 -1.2377 -0.8945 -2.8905
 1258TIP3    H225266   1.671   4.585   0.280 -0.7651  0.7155  0.3334
 1259TIP3   OH225267   4.946   2.819   4.716 -0.3269  0.2952  0.0426
 1259TIP3    H125268   4.949   2.914   4.718  1.5643  0.3409 -2.1172
 1259TIP3    H225269   4.919   2.798   4.626  0.5715 -1.2002  0.1029
 1260TIP3   OH225270   2.244   5.009   0.333  0.3234 -0.5165  0.1917
 1260TIP3    H125271   2.257   5.097   0.298  2.3704 -1.2052 -0.8195
 1260TIP3    H225272   2.154   4.987   0.310 -0.3735  1.4764  0.8597
 1261TIP3   OH225273   4.135   6.182   2.550  0.4204  0.0999 -0.3245
 1261TIP3    H125274   4.220   6.178   2.594  1.0603 -1.3704 -1.6456
 1261TIP3    H225275   4.074   6.145   2.614  0.6900  1.4865  0.7660
 1262TIP3   OH225276   1.910   4.948  15.278 -0.4972  0.1642  0.5441
 1262TIP3    H125277   2.004   4.939  15.260 -0.5141 -0.4257  0.7352
 1262TIP3    H225278   1.884   4.863  15.312 -1.0557  0.4014  0.7178
 1263TIP3   OH225279   0.087   0.221   2.311 -0.4898  0.0569  0.3912
 1263TIP3    H125280   0.106   0.194   2.222 -0.1857  1.4464  0.0114
 1263TIP3    H225281   0.009   0.277   2.303 -1.0675 -0.6267  1.1294
 1264TIP3   OH225282   1.032   3.632   3.922 -0.1473 -0.2406 -0.2141
 1264TIP3    H125283   1.034   3.538   3.936  0.4744 -0.6742 -2.9045
 1264TIP3    H225284   1.121   3.654   3.894 -0.6337  0.9276 -0.8736
 1265TIP3   OH225285   4.823   3.889   1.610  0.1457  0.2468 -0.4519
 1265TIP3    H125286   4.912   3.919   1.626  0.2546 -0.5480  0.4434
 1265TIP3    H225287   4.822   3.865   1.517  1.2489 -1.0284 -0.1448
 1266TIP3   OH225288   4.452   5.970   5.254  0.2150  0.3436 -0.3814
 1266TIP3    H125289   4.360   5.995   5.261  0.1239 -0.1688  0.2887
 1266TIP3    H225290   4.474   5.934   5.340  0.8756 -0.1021 -0.7295
 1267TIP3   OH225291   0.438   0.923  11.599  0.6451  0.0844 -0.0941
 1267TIP3    H125292   0.439   0.859  11.528  1.8514  0.0672 -0.0727
 1267TIP3    H225293   0.356   0.970  11.588  0.2325 -0.7695 -0.7334
 1268TIP3   OH225294   5.836   1.235   2.681 -0.1353 -0.0691  0.5162
 1268TIP3    H125295   5.874   1.323   2.686 -1.5338  0.4758  1.6357
 1268TIP3    H225296   5.871   1.199   2.599  2.0083  0.7806  1.0159
 1269TIP3   OH225297   0.516   6.316  12.554 -0.2023  0.9252 -0.1335
 1269TIP3    H125298   0.588   6.365  12.593 -0.0172  1.1621 -0.7557
 1269TIP3    H225299   0.448   6.315  12.621  0.5679  0.2587  0.6592
 1270TIP3   OH225300   3.096   5.969  12.861  0.5228  0.1676 -0.5404
 1270TIP3    H125301   3.059   6.038  12.807 -2.9372 -1.2701 -0.1669
 1270TIP3    H225302   3.115   6.010  12.945 -1.4992  0.6862 -0.3254
 1271TIP3   OH225303   4.461   3.694   3.390 -0.2482  0.1988  0.7213
 1271TIP3    H125304   4.371   3.727   3.388  0.3480  1.9020  1.5090
 1271TIP3    H225305   4.487   3.689   3.298 -0.9909  0.1181  0.5120
 1272TIP3   OH225306   4.513   0.847   3.322  0.2414  0.0563 -0.1880
 1272TIP3    H125307   4.463   0.838   3.241  1.5817 -1.5614 -0.8683
 1272TIP3    H225308   4.464   0.796   3.387  1.4397 -2.3310 -1.0865
 1273TIP3   OH225309   5.572   5.700  14.209  0.4874  0.0888 -0.5442
 1273TIP3    H125310   5.485   5.686  14.247  0.6296  0.1090 -0.2149
 1273TIP3    H225311   5.554   5.736  14.122  0.1098 -1.6726 -1.2284
 1274TIP3   OH225312   1.590   2.753   1.251  0.5598 -0.2655  0.1684
 1274TIP3    H125313   1.599   2.836   1.204 -0.5243 -0.0513  0.3337
 1274TIP3    H225314   1.503   2.721   1.228  0.2671 -0.4692  1.5275
 1275TIP3   OH225315   1.529   2.863   6.009 -0.3897 -0.5862  0.1060
 1275TIP3    H125316   1.459   2.928   6.000  0.2981  0.0406 -0.7998
 1275TIP3    H225317   1.520   2.830   6.098 -2.4708 -1.2335 -0.3245
 1276TIP3   OH225318   2.113   4.639   5.059  0.5604 -0.0436  0.8200
 1276TIP3    H125319   2.174   4.651   4.987  0.4623 -1.0042  0.5783
 1276TIP3    H225320   2.111   4.545   5.075 -1.4128 -0.1100  0.3458
 1277TIP3   OH225321   3.358   4.119   3.434 -0.2984 -0.0721  0.5521
 1277TIP3    H125322   3.362   4.108   3.529 -1.2914  0.5281  0.6631
 1277TIP3    H225323   3.368   4.031   3.399 -0.0609 -0.3109  1.2166
 1278TIP3   OH225324   6.232   4.800  11.541 -0.2104 -0.7937 -0.5987
 1278TIP3    H125325   6.266   4.783  11.629  0.9925  2.4948 -0.3632
 1278TIP3    H225326   6.139   4.821  11.555  0.1611  0.4856 -0.0025
 1279TIP3   OH225327   4.440   3.932  16.876 -0.2980 -0.2325  0.0681
 1279TIP3    H125328   4.423   4.017  16.916 -1.1078 -0.6152  0.5372
 1279TIP3    H225329   4.354   3.895  16.859  0.0210 -0.1097 -1.9834
 1280TIP3   OH225330   3.530   4.406  11.326 -0.1456  0.0424  0.4826
 1280TIP3    H125331   3.489   4.423  11.411 -1.6616 -1.3092  0.0545
 1280TIP3    H225332   3.466   4.352  11.280  1.9108 -1.6512 -0.4296
 1281TIP3   OH225333   2.959   5.034   5.142  0.0920  0.0549  0.1967
 1281TIP3    H125334   2.916   5.019   5.226 -1.0437  0.3555 -0.3199
 1281TIP3    H225335   3.044   5.071   5.165 -0.7503  1.4125  1.1760
 1282TIP3   OH225336   4.232   4.628  14.979  1.2234 -0.1855  0.5636
 1282TIP3    H125337   4.288   4.634  14.902  0.9696 -0.3616  0.3672
 1282TIP3    H225338   4.249   4.541  15.016  0.4898 -0.5516  0.0490
 1283TIP3   OH225339   4.332   2.583   1.113  0.3643 -0.2705 -0.0522
 1283TIP3    H125340   4.341   2.501   1.065 -0.1910  0.4062 -1.3265
 1283TIP3    H225341   4.239   2.605   1.107  1.0657  2.2999 -2.8486
 1284TIP3   OH225342   5.495   1.443   4.716 -0.7087 -0.0554  0.5266
 1284TIP3    H125343   5.425   1.433   4.651 -0.2183  0.5957 -0.1111
 1284TIP3    H225344   5.524   1.534   4.705  0.0840 -0.2575  0.9499
 1285TIP3   OH225345   2.143   3.031  14.643  0.2502 -0.1274  0.2839
 1285TIP3    H125346   2.057   3.069  14.623 -0.5373 -0.2531  3.1806
 1285TIP3    H225347   2.138   2.942  14.607 -0.7865 -0.0810  0.2882
 1286TIP3   OH225348   1.456   4.575   1.471 -0.5288 -0.1901  0.3125
 1286TIP3    H125349   1.404   4.618   1.403  1.4395  1.0664 -0.4558
 1286TIP3    H225350   1.483   4.492   1.431 -1.1198 -0.3934  0.3376
 1287TIP3   OH225351   2.324   4.457  10.868 -0.2435 -0.3945  0.0566
 1287TIP3    H125352   2.408   4.435  10.828 -0.2745 -0.6774  0.1475
 1287TIP3    H225353   2.337   4.545  10.905 -0.0102 -0.4097  0.0089
 1288TIP3   OH225354   0.779   5.865  16.817 -0.2949  0.8072  0.1490
 1288TIP3    H125355   0.738   5.925  16.755  1.5298  2.0328  0.0685
 1288TIP3    H225356   0.771   5.909  16.902 -1.0898  0.0273  0.4866
 1289TIP3   OH225357   5.462   3.316   4.381  0.2178  0.0189  0.2549
 1289TIP3    H125358   5.472   3.283   4.470  2.8155  1.2493  0.4712
 1289TIP3    H225359   5.415   3.247   4.335  0.2530 -1.3340  2.1742
 1290TIP3   OH225360   4.117   5.444   3.921  0.0751 -0.3931  0.2279
 1290TIP3    H125361   4.129   5.358   3.882 -2.5158 -0.1585 -1.2168
 1290TIP3    H225362   4.160   5.505   3.861 -0.4635 -0.4168 -0.1815
 1291TIP3   OH225363   4.923   5.788  14.549 -0.2255  0.4795 -0.2742
 1291TIP3    H125364   4.938   5.835  14.631  1.2263 -2.7349  1.3595
 1291TIP3    H225365   4.829   5.769  14.549 -0.0896 -0.2297  1.0689
 1292TIP3   OH225366   6.527   0.207   3.314  0.2504 -0.0959 -0.2410
 1292TIP3    H125367   6.579   0.194   3.235  0.1564  0.3563 -0.3763
 1292TIP3    H225368   6.527   0.302   3.328 -2.4339  0.1360 -1.5516
 1293TIP3   OH225369   3.886   5.876  13.037  0.1295  0.2074  0.1777
 1293TIP3    H125370   3.931   5.840  12.961 -0.6970 -0.7326  0.1113
 1293TIP3    H225371   3.814   5.928  13.000 -0.2992 -0.2864  0.3153
 1294TIP3   OH225372   6.698   5.028  13.127  0.3508  0.3231  0.4112
 1294TIP3    H125373   6.757   5.000  13.057  1.4401 -1.5409  1.9841
 1294TIP3    H225374   6.619   5.057  13.083  0.7134 -1.5667 -1.5625
 1295TIP3   OH225375   0.211   4.248  17.068  0.2395 -0.7630  0.1203
 1295TIP3    H125376   0.118   4.226  17.054 -0.2333  0.5043  1.1899
 1295TIP3    H225377   0.209   4.324  17.126  1.9537 -0.5287 -0.1153
 1296TIP3   OH225378   4.251   6.788  13.891 -0.0010  0.4382 -0.3835
 1296TIP3    H125379   4.282   6.768  13.980 -1.5301 -1.5996 -0.2610
 1296TIP3    H225380   4.330   6.780  13.837  0.6340  0.0845  0.5671
 1297TIP3   OH225381   2.876   6.575   3.818  0.3907 -0.4970  0.4423
 1297TIP3    H125382   2.921   6.494   3.794  2.1451  1.2592 -2.5553
 1297TIP3    H225383   2.946   6.634   3.848 -0.3609  1.0129 -0.6770
 1298TIP3   OH225384   5.925   4.433   3.986  0.0897 -0.0974  0.1559
 1298TIP3    H125385   6.020   4.440   3.983  0.3228 -2.3880  1.3696
 1298TIP3    H225386   5.904   4.431   4.080 -1.0620 -0.6353 -0.1094
 1299TIP3   OH225387   6.025   2.709  16.290  0.3723 -0.2357  0.0563
 1299TIP3    H125388   6.099   2.656  16.321  0.4887  0.8131  1.6227
 1299TIP3    H225389   5.975   2.729  16.369  0.2447  1.8357 -0.5127
 1300TIP3   OH225390   0.622   5.942   5.563 -0.1328 -0.3822 -0.3867
 1300TIP3    H125391   0.581   5.872   5.613  0.9889 -0.3744  0.5574
 1300TIP3    H225392   0.558   6.014   5.566 -1.6650 -1.6170 -2.0857
 1301TIP3   OH225393   6.097   4.768   1.340  0.4300 -0.2933  0.4752
 1301TIP3    H125394   6.036   4.735   1.274  0.8858 -0.6877  0.2502
 1301TIP3    H225395   6.168   4.808   1.290 -0.6361  2.0606  0.7339
 1302TIP3   OH225396   0.923   3.996  12.299  0.4483  0.1218  0.0379
 1302TIP3    H125397   0.908   4.006  12.394 -2.4156  0.3683 -0.3968
 1302TIP3    H225398   0.989   4.062  12.279  1.6713 -0.4535  1.9854
 1303TIP3   OH225399   5.651   6.283   0.972 -0.5115  0.3916 -0.6139
 1303TIP3    H125400   5.579   6.343   0.991 -1.3846 -0.8556  0.1204
 1303TIP3    H225401   5.620   6.231   0.898 -0.2048  0.1146 -0.5496
 1304TIP3   OH225402   2.806   6.268  11.892 -0.1312 -0.1802 -0.2306
 1304TIP3    H125403   2.850   6.334  11.946 -1.1893  0.1473  0.2468
 1304TIP3    H225404   2.804   6.305  11.804  0.3540 -0.1083 -0.2126
 1305TIP3   OH225405   2.311   5.566   5.018  0.0164  0.4858  0.1652
 1305TIP3    H125406   2.287   5.537   4.930 -0.3987  0.3922  0.3041
 1305TIP3    H225407   2.255   5.513   5.076  1.3765 -0.5568  0.5434
 1306TIP3   OH225408   3.984   6.376  16.890 -0.6582  0.0943 -0.1663
 1306TIP3    H125409   4.044   6.310  16.856  0.8370  1.2146  0.2569
 1306TIP3    H225410   3.968   6.434  16.815 -1.5867 -0.4495 -0.4034
 1307TIP3   OH225411   1.576   4.220  14.117 -0.0187  0.0419  0.0720
 1307TIP3    H125412   1.582   4.199  14.024 -1.4889 -1.5772  0.3196
 1307TIP3    H225413   1.482   4.227  14.134  0.2498  0.4877  1.4021
 1308TIP3   OH225414   1.109   0.035   0.028  0.2980  0.4877  0.0893
 1308TIP3    H125415   1.189  -0.017   0.029 -1.3315 -2.1720 -0.7436
 1308TIP3    H225416   1.120   0.095  -0.046  1.5963  0.2529  0.0821
 1309TIP3   OH225417   5.327   5.622   5.342  0.3276 -0.1212  0.0529
 1309TIP3    H125418   5.377   5.647   5.264 -0.0247 -0.0040 -0.1359
 1309TIP3    H225419   5.394   5.594   5.405  0.4914 -2.5144 -1.1008
 1310TIP3   OH225420   2.196   1.850   2.389 -0.0703 -0.5357  0.1855
 1310TIP3    H125421   2.153   1.787   2.446  0.1110 -2.0249 -1.2899
 1310TIP3    H225422   2.290   1.837   2.405  0.0276 -1.7705 -1.2536
 1311TIP3   OH225423   2.140   4.888  12.747 -0.1617  0.2953 -0.4994
 1311TIP3    H125424   2.169   4.912  12.659  2.2708 -2.9511 -0.6707
 1311TIP3    H225425   2.081   4.814  12.733  0.9548 -0.8316  0.6071
 1312TIP3   OH225426   3.563   6.217   5.615  0.1500 -0.2213  0.0818
 1312TIP3    H125427   3.612   6.217   5.533  0.2320 -0.7321  0.1292
 1312TIP3    H225428   3.596   6.140   5.663 -0.5630 -0.4685  0.1859
 1313TIP3   OH225429   1.410   1.362   3.418  0.1825  0.1470  0.0423
 1313TIP3    H125430   1.470   1.330   3.485 -0.8312 -1.5229  0.1625
 1313TIP3    H225431   1.323   1.352   3.457 -0.2505  1.6520 -0.5075
 1314TIP3   OH225432   2.187   5.729  16.196 -0.1867  0.5421 -0.5727
 1314TIP3    H125433   2.130   5.696  16.127 -2.6631  1.3242  1.0456
 1314TIP3    H225434   2.212   5.652  16.246  1.7062 -0.0464 -2.3331
 1315TIP3   OH225435   1.309   3.679   3.840 -0.5673 -0.1437 -0.1307
 1315TIP3    H125436   1.334   3.687   3.748 -1.4113  1.8207 -0.2178
 1315TIP3    H225437   1.368   3.614   3.876  0.8183  0.2299 -1.7024
 1316TIP3   OH225438   0.634   2.273  15.680  0.0267  0.3417 -0.0835
 1316TIP3    H125439   0.577   2.262  15.756  0.2162 -0.3171 -0.0362
 1316TIP3    H225440   0.700   2.206  15.689 -0.4419 -0.3075 -1.2796
 1317TIP3   OH225441   3.761   4.611  12.030  0.0913 -0.1066 -0.0068
 1317TIP3    H125442   3.713   4.694  12.032  0.3281  0.0961 -1.6806
 1317TIP3    H225443   3.749   4.574  12.117  0.1152  1.7652  0.8026
 1318TIP3   OH225444   5.183   2.311   3.817  0.1136 -0.1955  0.3812
 1318TIP3    H125445   5.179   2.356   3.732  1.5120 -1.4339 -0.3535
 1318TIP3    H225446   5.237   2.369   3.872 -0.1936  0.2549  0.2141
 1319TIP3   OH225447   6.543   1.176   6.278 -0.3049  0.4433  0.2035
 1319TIP3    H125448   6.575   1.126   6.202  0.0377  1.0941 -0.0809
 1319TIP3    H225449   6.563   1.120   6.353  0.2442  0.2271 -0.0999
 1320TIP3   OH225450   4.053   5.732   3.265  0.1615  0.0947 -0.4396
 1320TIP3    H125451   3.964   5.708   3.239  0.3956  1.0393 -2.2271
 1320TIP3    H225452   4.109   5.674   3.214  0.6016  0.7029 -0.6546
 1321TIP3   OH225453   4.270   2.609   3.714  0.1798  0.3374  0.4775
 1321TIP3    H125454   4.251   2.518   3.694  1.6803  0.2231 -0.5692
 1321TIP3    H225455   4.262   2.615   3.809 -0.7052 -0.6950  0.4737
 1322TIP3   OH225456   1.403   5.577   4.311 -0.0740 -0.4759 -0.4953
 1322TIP3    H125457   1.432   5.544   4.396 -0.4022 -1.0776 -0.6096
 1322TIP3    H225458   1.375   5.667   4.328 -3.3187 -1.6306  0.7557
 1323TIP3   OH225459   2.033   1.390   1.470  0.2853 -0.5682 -0.4682
 1323TIP3    H125460   2.075   1.401   1.384  2.6703 -0.8551  0.6087
 1323TIP3    H225461   2.041   1.297   1.490 -1.0474 -0.6599 -0.2991
 1324TIP3   OH225462   0.414   0.719   0.251  0.4275 -0.6774  0.0860
 1324TIP3    H125463   0.381   0.763   0.329  1.9504 -0.1406  0.4424
 1324TIP3    H225464   0.370   0.762   0.178 -0.1894 -0.4564  0.5835
 1325TIP3   OH225465   6.573   5.253  11.523 -0.4636 -0.6326  0.3509
 1325TIP3    H125466   6.493   5.304  11.512 -1.6589 -2.2626  1.3625
 1325TIP3    H225467   6.561   5.178  11.465 -0.1280 -1.4107  1.2857
 1326TIP3   OH225468   5.142   0.282   0.228  0.1458 -0.8466 -0.4114
 1326TIP3    H125469   5.148   0.191   0.197 -0.3309 -0.7389 -0.8351
 1326TIP3    H225470   5.229   0.318   0.214  0.3988 -1.3112 -0.0211
 1327TIP3   OH225471   1.941   6.488  14.752 -0.0011  0.0558  0.4344
 1327TIP3    H125472   2.015   6.520  14.803  0.6631  1.7807 -1.5515
 1327TIP3    H225473   1.895   6.567  14.722  0.9609 -0.7517 -3.5295
 1328TIP3   OH225474   0.953   1.779   1.902  0.3511  0.7639  0.4356
 1328TIP3    H125475   0.883   1.714   1.892  0.5581  0.5594  0.3063
 1328TIP3    H225476   0.911   1.853   1.944  0.0488  0.6493  0.3379
 1329TIP3   OH225477   0.600   0.175   3.125 -0.5761 -0.1647  0.7199
 1329TIP3    H125478   0.689   0.195   3.154 -1.5141  0.5556  3.2558
 1329TIP3    H225479   0.603   0.083   3.100  0.6759 -0.3759  1.5991
 1330TIP3   OH225480   1.950   6.478   2.438  0.4264 -0.1225  0.0348
 1330TIP3    H125481   1.878   6.416   2.425  0.3372  0.2198 -1.2284
 1330TIP3    H225482   2.025   6.434   2.396  0.8646 -0.3145  1.0188
 1331TIP3   OH225483   3.242   2.350  11.211  0.6806  0.3082 -0.0450
 1331TIP3    H125484   3.230   2.399  11.130  0.3687 -1.2161 -0.9485
 1331TIP3    H225485   3.329   2.312  11.203  0.4776 -0.2014  0.1156
 1332TIP3   OH225486   1.762   2.992   6.448  0.3391  0.4830  0.0431
 1332TIP3    H125487   1.798   3.081   6.451 -1.0941  1.0524  0.6876
 1332TIP3    H225488   1.679   3.001   6.401  0.2311 -0.5337  0.0229
 1333TIP3   OH225489   2.205   5.280  12.793  0.1534 -0.3373 -0.0802
 1333TIP3    H125490   2.226   5.319  12.708  1.4450 -1.1968 -0.1621
 1333TIP3    H225491   2.275   5.217  12.809 -0.6579 -0.9531  1.1341
 1334TIP3   OH225492   0.955   5.159   4.650 -0.3020  0.0243  0.0898
 1334TIP3    H125493   0.891   5.143   4.719 -1.9813  1.8428 -0.9942
 1334TIP3    H225494   0.921   5.111   4.574  0.7653 -0.7543  0.0848
 1335TIP3   OH225495   3.547   1.501   2.619  0.2579 -0.0814  0.1168
 1335TIP3    H125496   3.452   1.490   2.627  0.0972  1.8402  1.1277
 1335TIP3    H225497   3.561   1.595   2.626  2.4549 -0.5160  2.3740
 1336TIP3   OH225498   3.220   5.101   1.223  0.0845  0.0649  0.2736
 1336TIP3    H125499   3.209   5.110   1.318  0.7684  1.2883  0.2432
 1336TIP3    H225500   3.315   5.106   1.209 -0.0413  0.3076 -0.5250
 1337TIP3   OH225501   3.038   3.206   1.322  0.3076  0.4272 -0.2567
 1337TIP3    H125502   2.997   3.119   1.331 -3.0178  1.7091 -2.0690
 1337TIP3    H225503   3.013   3.253   1.401  1.7404 -0.0930  0.5204
 1338TIP3   OH225504   0.177   6.190  13.707  0.3964  0.4118  0.2485
 1338TIP3    H125505   0.102   6.232  13.749 -0.1995  0.6042 -0.9989
 1338TIP3    H225506   0.215   6.135  13.776 -1.2560 -0.1584  0.7377
 1339TIP3   OH225507   5.961   1.868   4.270  0.2941  0.2577 -0.4914
 1339TIP3    H125508   6.020   1.933   4.309  0.3092 -0.5909  0.9219
 1339TIP3    H225509   5.921   1.914   4.196  2.3619  1.0083 -1.1788
 1340TIP3   OH225510   1.172   2.340   0.084  0.7064  0.0476 -0.2224
 1340TIP3    H125511   1.260   2.305   0.080  1.1945  1.4219 -1.9937
 1340TIP3    H225512   1.160   2.386   0.001 -2.1019 -1.1165 -0.5416
 1341TIP3   OH225513   6.021   6.638   2.479  0.2256 -0.4908 -0.0579
 1341TIP3    H125514   6.014   6.670   2.569 -0.2261  0.7278 -0.5124
 1341TIP3    H225515   6.108   6.597   2.474  0.0291 -1.0424  1.0721
 1342TIP3   OH225516   2.656   3.365  14.015 -0.4125 -0.1020  0.0166
 1342TIP3    H125517   2.751   3.370  14.003 -0.6959 -0.8866 -3.2294
 1342TIP3    H225518   2.640   3.274  14.041 -0.2625 -0.0062  0.4327
 1343TIP3   OH225519   0.739   3.186  13.245  0.3582 -0.5519 -0.3256
 1343TIP3    H125520   0.806   3.119  13.230  1.0196  0.1894 -0.6958
 1343TIP3    H225521   0.788   3.261  13.280 -0.3445 -0.1717 -0.1549
 1344TIP3   OH225522   5.856   3.377  12.845  0.3550 -0.1521 -0.1694
 1344TIP3    H125523   5.929   3.388  12.906  0.6083 -1.0170 -0.3078
 1344TIP3    H225524   5.857   3.283  12.824  0.0102  0.0675 -1.1777
 1345TIP3   OH225525   5.122   6.429  14.817  0.0075 -0.0507  0.1867
 1345TIP3    H125526   5.201   6.375  14.807  0.3669  0.4595  0.2491
 1345TIP3    H225527   5.050   6.367  14.806  0.4108 -0.7936  1.6529
 1346TIP3   OH225528   6.104   0.817   4.547  0.3388 -0.0972 -0.1396
 1346TIP3    H125529   6.105   0.722   4.536 -0.8363 -0.0898 -0.3731
 1346TIP3    H225530   6.194   0.839   4.571  0.8139 -1.1690 -0.8896
 1347TIP3   OH225531   6.306   6.038   1.799  0.0768  0.1295 -0.0986
 1347TIP3    H125532   6.368   5.990   1.854  0.9534 -1.2556 -2.2614
 1347TIP3    H225533   6.274   5.974   1.736 -0.1345  1.9282 -1.8788
 1348TIP3   OH225534   1.399   0.166   5.938 -0.1601 -1.0581  0.3057
 1348TIP3    H125535   1.447   0.118   6.005 -1.1013 -3.2895 -0.5803
 1348TIP3    H225536   1.358   0.098   5.884  0.5995  0.6637 -2.5453
 1349TIP3   OH225537   3.707   3.062   1.986 -0.5203 -0.5087  0.0728
 1349TIP3    H125538   3.685   3.109   1.906  1.8210 -0.2380 -0.4524
 1349TIP3    H225539   3.797   3.088   2.005 -0.3465 -2.1573  1.6542
 1350TIP3   OH225540   3.967   3.125  12.678  0.2815  0.0944 -0.5671
 1350TIP3    H125541   3.981   3.150  12.587  1.0191 -1.6020 -0.9408
 1350TIP3    H225542   4.014   3.190  12.729  0.3668  0.7008 -1.4187
 1351TIP3   OH225543   4.619   5.686   1.947 -0.0540 -0.1792 -0.2364
 1351TIP3    H125544   4.576   5.615   1.899 -2.1324  0.7746  0.1347
 1351TIP3    H225545   4.707   5.654   1.964 -0.4851 -2.0580 -1.3757
 1352TIP3   OH225546   3.104   3.415  14.493 -0.6229 -0.1685 -0.1248
 1352TIP3    H125547   3.117   3.321  14.499  0.0744 -0.1341 -0.9844
 1352TIP3    H225548   3.029   3.425  14.434 -1.0256 -0.1905  0.3744
 1353TIP3   OH225549   2.981   0.245   4.290 -0.3722 -0.4006 -0.6641
 1353TIP3    H125550   2.954   0.325   4.246 -0.9525 -0.7775 -1.0036
 1353TIP3    H225551   2.917   0.179   4.263 -1.0917 -0.5068  1.2227
 1354TIP3   OH225552   3.682   6.568   5.275  0.3069  0.5945  0.2915
 1354TIP3    H125553   3.748   6.531   5.334  1.6833  0.1151 -1.5071
 1354TIP3    H225554   3.712   6.658   5.259 -0.5965  1.0470  1.0768
 1355TIP3   OH225555   4.118   0.901   0.200 -0.0274  0.0753  0.0423
 1355TIP3    H125556   4.165   0.983   0.188 -1.0515  0.5497 -0.8350
 1355TIP3    H225557   4.187   0.834   0.207  0.7973  0.9654  0.5020
 1356TIP3   OH225558   2.089   6.601  13.986  0.3616 -0.1457  1.0507
 1356TIP3    H125559   2.130   6.515  13.993  4.0179  1.6117  2.3629
 1356TIP3    H225560   2.048   6.615  14.071 -0.1937 -0.5800  0.8523
 1357TIP3   OH225561   5.037   5.152   3.370  0.1012  0.5980  0.2089
 1357TIP3    H125562   5.040   5.246   3.350 -2.8757  0.3839 -1.4762
 1357TIP3    H225563   4.967   5.118   3.315  1.2220 -2.6743  0.6879
 1358TIP3   OH225564   5.264   0.243  14.652 -0.5069  0.5192 -0.1332
 1358TIP3    H125565   5.215   0.238  14.570 -1.0973 -0.7707  0.2881
 1358TIP3    H225566   5.199   0.266  14.718 -0.3497 -0.0739  0.2393
 1359TIP3   OH225567   4.815   3.633   0.776 -0.3702 -0.0148  0.3670
 1359TIP3    H125568   4.818   3.609   0.868  0.4512  1.4091  0.7249
 1359TIP3    H225569   4.905   3.658   0.754 -1.0531  2.1366 -0.1272
 1360TIP3   OH225570   0.702   1.759  11.222  0.1601 -0.2091 -0.6216
 1360TIP3    H125571   0.711   1.786  11.313  1.2089 -1.7315 -0.2379
 1360TIP3    H225572   0.760   1.818  11.173  0.4272 -0.0817 -0.1519
 1361TIP3   OH225573   0.548   4.840  12.195 -0.2355 -0.4811  0.0459
 1361TIP3    H125574   0.545   4.762  12.251 -1.7459 -0.4225  0.0590
 1361TIP3    H225575   0.624   4.825  12.138  2.5829  0.3884  3.4145
 1362TIP3   OH225576   0.148   0.200   3.855  0.8838  0.1279  0.1186
 1362TIP3    H125577   0.178   0.127   3.909 -0.9345 -0.6793  0.0673
 1362TIP3    H225578   0.073   0.236   3.904  0.3026  0.4788 -1.0168
 1363TIP3   OH225579   0.709   5.430   2.672 -0.4745 -0.4356 -0.1615
 1363TIP3    H125580   0.740   5.467   2.755 -1.9844 -0.3202  0.3847
 1363TIP3    H225581   0.699   5.506   2.615 -0.2717 -0.4088 -0.1604
 1364TIP3   OH225582   0.472   1.625  15.415 -0.2307 -0.3482 -0.3689
 1364TIP3    H125583   0.510   1.645  15.501 -1.0601 -1.3436  0.2493
 1364TIP3    H225584   0.540   1.649  15.352  0.2912  0.6248  0.5549
 1365TIP3   OH225585   3.678   1.888  14.567  0.1245  0.0440 -0.2335
 1365TIP3    H125586   3.730   1.812  14.593 -0.8652 -0.6978 -0.4055
 1365TIP3    H225587   3.692   1.952  14.637  0.2065 -0.6461  0.3859
 1366TIP3   OH225588   6.386   5.006  14.458  0.1282 -0.1674  0.3003
 1366TIP3    H125589   6.465   4.983  14.506 -0.5999  0.0314  1.6380
 1366TIP3    H225590   6.330   4.929  14.465 -0.8598  0.6468  1.6780
 1367TIP3   OH225591   0.707   3.764   2.732  0.3109 -0.0492  0.0144
 1367TIP3    H125592   0.668   3.833   2.678  0.0744 -0.5233 -0.4360
 1367TIP3    H225593   0.718   3.803   2.818 -1.5906 -0.0375  0.2668
 1368TIP3   OH225594   0.055   6.351   0.193  0.5284  0.3671  0.0087
 1368TIP3    H125595  -0.002   6.395   0.255  1.1312 -0.4424  1.1494
 1368TIP3    H225596   0.015   6.369   0.107 -1.4181 -0.1762  0.7713
 1369TIP3   OH225597   3.861   2.852  14.222  0.3188  0.0391  0.1124
 1369TIP3    H125598   3.876   2.941  14.252 -0.9255  0.6432 -0.9862
 1369TIP3    H225599   3.776   2.829  14.259  0.3066 -0.4223 -0.2012
 1370TIP3   OH225600   0.915   3.047  11.597 -0.2515 -0.3971  0.2015
 1370TIP3    H125601   0.971   2.995  11.654  0.4856 -0.1996 -0.3478
 1370TIP3    H225602   0.953   3.135  11.599 -1.1171 -0.0169  0.6162
 1371TIP3   OH225603   2.981   4.286  13.172  0.3637 -0.0074  0.3268
 1371TIP3    H125604   2.988   4.207  13.226 -2.0776 -0.9941 -0.7214
 1371TIP3    H225605   3.004   4.257  13.084 -2.0971  0.0136 -0.3735
 1372TIP3   OH225606   3.630   1.555   5.683 -0.5164  0.3830 -0.0431
 1372TIP3    H125607   3.599   1.605   5.759 -0.1807 -1.3504  1.2648
 1372TIP3    H225608   3.637   1.465   5.715  2.6865  0.1446 -1.2332
 1373TIP3   OH225609   1.357   5.414   2.146 -0.3999 -0.5488  0.2446
 1373TIP3    H125610   1.432   5.356   2.131  1.0255  1.4573 -0.6267
 1373TIP3    H225611   1.329   5.440   2.058 -0.6135  0.5759  0.6370
 1374TIP3   OH225612   5.779   3.588   0.682 -0.1941  0.5483  0.6596
 1374TIP3    H125613   5.769   3.496   0.703 -1.9328  0.6059  0.1093
 1374TIP3    H225614   5.859   3.592   0.629  1.1592 -0.3160  2.5773
 1375TIP3   OH225615   3.536   2.171   5.435  0.5214 -0.5686 -0.0003
 1375TIP3    H125616   3.601   2.240   5.453 -0.3321  0.3835 -0.5181
 1375TIP3    H225617   3.526   2.171   5.340  0.6561 -1.5485 -0.0201
 1376TIP3   OH225618   2.380   1.616  13.705  0.0401  0.0496 -0.3507
 1376TIP3    H125619   2.380   1.583  13.615 -0.1369  0.3881 -0.4761
 1376TIP3    H225620   2.396   1.538  13.759 -1.0298 -0.3494 -0.6014
 1377TIP3   OH225621   5.322   0.484  15.798 -0.1252  0.3742 -0.1644
 1377TIP3    H125622   5.386   0.541  15.840  1.4441 -1.2434 -0.3074
 1377TIP3    H225623   5.267   0.452  15.870  0.3782  0.3398  0.2027
 1378TIP3   OH225624   1.656   0.351  13.288  0.1177  0.5162  0.0849
 1378TIP3    H125625   1.677   0.444  13.278 -0.1286  0.8515  2.2803
 1378TIP3    H225626   1.607   0.329  13.209  1.7757  1.7672 -1.3392
 1379TIP3   OH225627   3.558   3.985  16.742 -0.0488  0.6878 -0.3015
 1379TIP3    H125628   3.571   3.998  16.648  2.2768 -2.7224 -0.5368
 1379TIP3    H225629   3.512   3.901  16.748  0.9444  0.2727  1.6374
 1380TIP3   OH225630   3.246   2.672  12.769 -0.0155  0.2239 -0.0986
 1380TIP3    H125631   3.188   2.616  12.822  1.0725 -0.1633  0.6951
 1380TIP3    H225632   3.333   2.636  12.784  0.3160  0.1548 -2.1167
 1381TIP3   OH225633   1.363   4.881   0.744  0.3837 -0.4912  0.3430
 1381TIP3    H125634   1.443   4.933   0.751  0.8343 -1.3445  1.8815
 1381TIP3    H225635   1.389   4.792   0.770 -1.0596 -0.7762  0.9009
 1382TIP3   OH225636   1.395   4.070  12.780 -0.2420  0.1521  0.0449
 1382TIP3    H125637   1.392   4.166  12.781 -0.2856  0.1490  0.5122
 1382TIP3    H225638   1.447   4.048  12.703  1.2841  0.5958  0.9099
 1383TIP3   OH225639   4.076   2.638  16.313  0.1948 -0.3176 -0.1651
 1383TIP3    H125640   4.146   2.701  16.298 -1.1580  1.2415 -0.1931
 1383TIP3    H225641   4.107   2.556  16.276  1.2561  0.8034 -1.8060
 1384TIP3   OH225642   3.421   2.165  13.785 -0.2231 -0.0766 -0.2353
 1384TIP3    H125643   3.439   2.251  13.822 -2.1070  0.2309  0.0355
 1384TIP3    H225644   3.413   2.108  13.862  0.3012 -0.3577 -0.3845
 1385TIP3   OH225645   4.116   2.969   3.385  0.4351  0.4061 -0.7518
 1385TIP3    H125646   4.084   2.995   3.298 -1.6511 -0.6770 -0.3277
 1385TIP3    H225647   4.068   3.026   3.446 -0.6069 -1.1408 -0.1118
 1386TIP3   OH225648   4.391   4.287  16.732 -0.5457  0.3400  0.0045
 1386TIP3    H125649   4.311   4.278  16.679 -0.0835 -1.2470 -0.4770
 1386TIP3    H225650   4.429   4.199  16.732 -0.9152  0.1343  3.6289
 1387TIP3   OH225651   0.798   4.340   3.336  0.5962  0.5179 -0.1678
 1387TIP3    H125652   0.845   4.277   3.391  0.4025  1.2376  0.8242
 1387TIP3    H225653   0.818   4.312   3.246  0.3846 -1.0425  0.2584
 1388TIP3   OH225654   6.601   0.545  13.436  0.2263  0.1321 -0.3815
 1388TIP3    H125655   6.652   0.591  13.369  0.7713  0.7349  0.4380
 1388TIP3    H225656   6.513   0.542  13.400  0.0654  2.2501 -0.2702
 1389TIP3   OH225657   2.531   4.776   5.888 -0.6936 -0.4374 -0.3736
 1389TIP3    H125658   2.449   4.815   5.917  1.5860  2.1085  3.0764
 1389TIP3    H225659   2.561   4.833   5.817  0.3203  1.3964  1.4892
 1390TIP3   OH225660   3.187   0.151  14.346 -0.5592  0.1950  0.5436
 1390TIP3    H125661   3.123   0.086  14.375  0.0750 -1.0581 -0.8396
 1390TIP3    H225662   3.257   0.100  14.305  0.0986  1.7245 -0.2875
 1391TIP3   OH225663   4.032   1.740  13.378 -0.1075 -0.2348  0.1307
 1391TIP3    H125664   4.008   1.797  13.451  0.5405 -0.7789  0.7795
 1391TIP3    H225665   4.034   1.652  13.416  0.4941 -0.4904 -0.4811
 1392TIP3   OH225666   1.429   6.164   0.993 -0.7936 -0.5637  0.4698
 1392TIP3    H125667   1.340   6.167   1.029 -0.7142 -0.9771  0.6895
 1392TIP3    H225668   1.480   6.114   1.056 -0.1403  0.6375  0.9055
 1393TIP3   OH225669   2.979   0.340  14.329  0.0132  0.0686 -0.5119
 1393TIP3    H125670   2.898   0.291  14.310 -0.1834 -0.4952  1.7060
 1393TIP3    H225671   3.049   0.281  14.302 -0.2866  0.3882 -2.0516
 1394TIP3   OH225672   6.702   0.377  16.084  0.0350  0.1201  0.4427
 1394TIP3    H125673   6.626   0.363  16.028  0.7706  1.5826 -0.9720
 1394TIP3    H225674   6.670   0.428  16.158 -0.5263 -0.0375  0.3077
 1395TIP3   OH225675   2.239   4.021  15.975 -0.0643  0.0613  0.0603
 1395TIP3    H125676   2.311   3.995  16.032 -0.0099  1.1267  0.4930
 1395TIP3    H225677   2.194   4.089  16.024 -0.8964 -0.0406 -0.5517
 1396TIP3   OH225678   1.803   2.927   0.117  0.2566  0.2552 -0.9127
 1396TIP3    H125679   1.714   2.962   0.114  0.9338  2.0668 -0.3690
 1396TIP3    H225680   1.805   2.874   0.197 -0.3226  0.2474 -0.9027
 1397TIP3   OH225681   6.146   4.925  17.236  0.7160 -0.4309  0.2376
 1397TIP3    H125682   6.156   4.880  17.319 -2.3570 -0.4525  0.6392
 1397TIP3    H225683   6.089   4.868  17.184  1.8400  0.0200 -1.5661
 1398TIP3   OH225684   4.061   6.718  12.632 -0.1800 -0.1873  0.0916
 1398TIP3    H125685   4.103   6.687  12.551 -0.2739 -1.2978  0.4628
 1398TIP3    H225686   3.990   6.775  12.601 -1.4953 -2.1902 -0.6902
 1399TIP3   OH225687   0.689   2.435  14.113 -0.5217 -0.3618 -0.3342
 1399TIP3    H125688   0.608   2.467  14.153 -0.6719 -1.2255  0.0605
 1399TIP3    H225689   0.742   2.513  14.100 -0.3520 -0.0783  1.8276
 1400TIP3   OH225690   1.877   3.979   2.844  0.4932 -0.2321 -0.4370
 1400TIP3    H125691   1.819   4.046   2.882 -0.0509  0.5761 -2.6294
 1400TIP3    H225692   1.841   3.896   2.876  0.0378  0.4264  0.7941
 1401TIP3   OH225693   2.602   0.744  15.433 -0.0398  0.2663  0.3680
 1401TIP3    H125694   2.576   0.764  15.344  0.2455 -0.2045  0.1772
 1401TIP3    H225695   2.610   0.649  15.436  0.5583  0.3184  0.7219
 1402TIP3   OH225696   2.856   3.971  13.711  0.1422 -0.0577 -0.4662
 1402TIP3    H125697   2.937   3.951  13.757 -0.9295  0.1056  1.5609
 1402TIP3    H225698   2.882   3.984  13.620  2.3526 -0.1534  0.1333
 1403TIP3   OH225699   4.135   5.367  12.331  0.6103 -0.1126 -0.5268
 1403TIP3    H125700   4.228   5.373  12.351  0.5511 -0.1859 -0.2131
 1403TIP3    H225701   4.099   5.313  12.403  0.3749 -0.3033 -0.7867
 1404TIP3   OH225702   5.272   6.600   1.479  0.3829  0.0983 -0.0585
 1404TIP3    H125703   5.189   6.645   1.493  0.3703 -0.2370  0.9839
 1404TIP3    H225704   5.258   6.512   1.514  0.3639 -0.7931 -2.2179
 1405TIP3   OH225705   3.911   3.952   2.719 -0.0185 -0.6849 -0.3193
 1405TIP3    H125706   3.825   3.946   2.762  0.5732  0.9412  1.1560
 1405TIP3    H225707   3.936   4.044   2.728  2.4876 -1.4091  0.4552
 1406TIP3   OH225708   3.659   4.172   3.531  1.0177 -0.4466 -0.2554
 1406TIP3    H125709   3.621   4.217   3.455 -2.3829 -1.5336  0.7237
 1406TIP3    H225710   3.669   4.240   3.597 -1.1876 -0.4967  0.1577
 1407TIP3   OH225711   5.262   0.297  15.601  0.0588  0.1338 -0.2420
 1407TIP3    H125712   5.307   0.329  15.523 -2.0175  1.9644 -0.7497
 1407TIP3    H225713   5.279   0.365  15.667 -2.4271  1.2047 -0.6374
 1408TIP3   OH225714   5.523   5.299   5.680  0.3889 -0.2152  0.4072
 1408TIP3    H125715   5.610   5.327   5.649  0.8786 -0.4247  1.5561
 1408TIP3    H225716   5.482   5.259   5.603  1.7193 -1.0646  0.1267
 1409TIP3   OH225717   6.643   4.327   1.152 -0.5763 -0.0202 -0.2288
 1409TIP3    H125718   6.711   4.365   1.096  1.4743 -1.5833  1.1552
 1409TIP3    H225719   6.646   4.378   1.233 -1.8687  0.6443 -0.5758
 1410TIP3   OH225720   6.517   1.744   1.171  0.3245  0.0073  0.4397
 1410TIP3    H125721   6.553   1.736   1.260 -0.6427 -1.1600  0.7343
 1410TIP3    H225722   6.572   1.686   1.118 -0.1680 -0.6184  0.6066
 1411TIP3   OH225723   1.386   0.974  11.291  0.3847  0.1396  0.1219
 1411TIP3    H125724   1.333   0.979  11.371 -0.1262 -0.3282 -0.1872
 1411TIP3    H225725   1.391   0.881  11.272  0.1952  0.2779 -0.6043
 1412TIP3   OH225726   3.408   5.452  13.374 -0.0631 -0.2020 -0.1063
 1412TIP3    H125727   3.342   5.433  13.308 -1.4365 -1.3784  1.5368
 1412TIP3    H225728   3.432   5.366  13.409  2.4555  0.1894 -0.7543
 1413TIP3   OH225729   0.593   5.931   2.308 -0.1530 -0.2141  0.4779
 1413TIP3    H125730   0.603   5.858   2.246 -1.0253 -0.7639  0.9729
 1413TIP3    H225731   0.683   5.952   2.335  0.1150 -1.0054  0.2177
 1414TIP3   OH225732   5.570   2.994  10.335 -0.4313  0.1300  0.1160
 1414TIP3    H125733   5.556   2.950  10.418  0.9346  0.7877  0.7035
 1414TIP3    H225734   5.657   3.034  10.342 -0.2316  0.0809 -1.6670
 1415TIP3   OH225735   0.869   1.213  14.084 -0.2542  0.0696 -0.0533
 1415TIP3    H125736   0.871   1.164  14.167  1.6621  0.2882  0.0441
 1415TIP3    H225737   0.863   1.146  14.017  1.3853 -0.2766  0.1272
 1416TIP3   OH225738   6.803   0.936   5.779  0.5115 -0.1438 -0.8674
 1416TIP3    H125739   6.789   1.016   5.729  0.1228  0.2361 -0.1602
 1416TIP3    H225740   6.860   0.962   5.851 -1.5689  0.0439  0.7485
 1417TIP3   OH225741   6.151   4.254   4.253 -0.5501 -0.2731 -0.3031
 1417TIP3    H125742   6.135   4.217   4.340  0.3605  1.9462  0.8662
 1417TIP3    H225743   6.065   4.283   4.223 -1.0641 -2.1567 -0.6980
 1418TIP3   OH225744   4.928   3.467  14.091 -0.0949 -0.4792 -0.8651
 1418TIP3    H125745   4.869   3.404  14.048 -2.3222 -0.0964  1.4677
 1418TIP3    H225746   4.978   3.413  14.153  2.1619 -0.8164 -2.9007
 1419TIP3   OH225747   3.151   0.636   0.397 -0.2618  0.0126  0.4449
 1419TIP3    H125748   3.172   0.726   0.371 -0.7068 -0.4577 -1.6568
 1419TIP3    H225749   3.061   0.623   0.367  0.2606 -1.5644 -0.5194
 1420TIP3   OH225750   2.891   5.355  13.060 -0.0234  0.3265  0.0341
 1420TIP3    H125751   2.923   5.295  13.127  0.1619  1.3316  0.8721
 1420TIP3    H225752   2.802   5.376  13.089 -0.9706 -1.4013 -1.5491
 1421TIP3   OH225753   2.157   4.254   2.208 -0.4131 -0.2966 -0.2446
 1421TIP3    H125754   2.149   4.336   2.258  0.2596 -1.0982  1.1884
 1421TIP3    H225755   2.194   4.281   2.124  0.6724  0.7529  0.5611
 1422TIP3   OH225756   4.236   4.896  15.784 -0.0330 -0.4217 -0.1775
 1422TIP3    H125757   4.161   4.860  15.831 -0.5470  1.0845  0.1904
 1422TIP3    H225758   4.276   4.957  15.846  0.7188 -0.2507 -0.8267
 1423TIP3   OH225759   2.039   2.073  13.068  0.7633  0.1786  0.0116
 1423TIP3    H125760   2.029   2.128  12.990 -0.8254 -0.9486 -0.6193
 1423TIP3    H225761   1.954   2.081  13.112  1.4866  0.4073  1.3676
 1424TIP3   OH225762   5.294   4.420   2.316  0.3002  0.0446 -0.1750
 1424TIP3    H125763   5.335   4.335   2.300 -1.3932 -0.3806 -2.5286
 1424TIP3    H225764   5.363   4.474   2.354  1.6440 -2.1019  0.5003
 1425TIP3   OH225765   3.816   2.468   0.841  0.1928  0.1900 -0.5038
 1425TIP3    H125766   3.847   2.545   0.888  3.2088 -1.3943  0.1864
 1425TIP3    H225767   3.817   2.494   0.749  0.5531  1.1910 -0.2212
 1426TIP3   OH225768   1.465   2.207  14.766 -0.3241 -0.2889  0.4753
 1426TIP3    H125769   1.548   2.160  14.755  0.2730  1.4572 -3.7126
 1426TIP3    H225770   1.491   2.299  14.777 -1.6753  0.1413  0.1920
 1427TIP3   OH225771   2.575   2.051  10.902  0.7723  0.1183 -0.4344
 1427TIP3    H125772   2.497   1.996  10.890  2.6622 -2.4045 -1.4721
 1427TIP3    H225773   2.559   2.127  10.845 -1.9141  0.7942  1.1063
 1428TIP3   OH225774   2.015   5.030   4.256 -0.3821 -1.0714  0.7753
 1428TIP3    H125775   2.054   5.106   4.213 -1.2913 -0.4570  1.0158
 1428TIP3    H225776   1.969   5.067   4.332  0.0943 -1.9928  1.5186
 1429TIP3   OH225777   3.266   6.199   0.713  0.3391 -0.1680 -0.4296
 1429TIP3    H125778   3.294   6.122   0.763  0.9088  0.2235 -0.1488
 1429TIP3    H225779   3.347   6.246   0.694  0.1588 -0.4678 -1.9859
 1430TIP3   OH225780   0.858   4.300   0.845 -0.0013  0.7407 -0.3924
 1430TIP3    H125781   0.785   4.361   0.834 -0.6366 -0.1261 -1.0608
 1430TIP3    H225782   0.935   4.356   0.854 -0.8922  1.6795  1.4600
 1431TIP3   OH225783   2.825   5.008   3.072 -0.1535 -0.0021  0.2481
 1431TIP3    H125784   2.771   4.937   3.109  0.6128 -1.0137 -0.5590
 1431TIP3    H225785   2.900   5.013   3.131 -0.8929  1.1206  1.1256
 1432TIP3   OH225786   3.341   3.457   4.291  0.2234 -0.8132  0.1972
 1432TIP3    H125787   3.396   3.430   4.364  0.6185  0.4724  0.3878
 1432TIP3    H225788   3.306   3.542   4.317  2.7491  1.0837 -2.3426
 1433TIP3   OH225789   1.647   5.221  14.530 -0.0937  0.2391  0.3835
 1433TIP3    H125790   1.625   5.177  14.612  0.7839 -1.1337 -0.0915
 1433TIP3    H225791   1.739   5.200  14.516 -0.1561  0.7205 -0.7988
 1434TIP3   OH225792   0.432   0.483   6.186  0.6061 -0.6492 -0.0680
 1434TIP3    H125793   0.416   0.460   6.278 -1.4536 -0.1840 -0.2687
 1434TIP3    H225794   0.492   0.557   6.189  0.1400 -0.3049  0.9476
 1435TIP3   OH225795   5.105   5.024   2.708  0.7124  0.0020 -0.3210
 1435TIP3    H125796   5.160   5.026   2.630  0.0066  0.7245 -0.8084
 1435TIP3    H225797   5.099   5.115   2.735 -0.5071 -0.0300 -0.4635
 1436TIP3   OH225798   6.815   6.383   2.371  0.3850 -0.1398 -0.4886
 1436TIP3    H125799   6.720   6.386   2.380  0.5323  1.2221  0.9639
 1436TIP3    H225800   6.846   6.358   2.459  1.3822 -0.0245 -0.8013
 1437TIP3   OH225801   6.087   1.669   2.225 -0.1055  0.3640 -0.4652
 1437TIP3    H125802   6.155   1.629   2.170 -0.4527  0.9186 -1.3115
 1437TIP3    H225803   6.068   1.602   2.291 -0.7866 -0.9601 -1.9406
 1438TIP3   OH225804   3.841   3.304  13.550 -0.0937  0.7559 -0.3700
 1438TIP3    H125805   3.859   3.243  13.621  0.4967 -0.3047 -1.4136
 1438TIP3    H225806   3.810   3.384  13.594 -1.0597 -0.3404  0.9977
 1439TIP3   OH225807   1.731   4.703  11.653  0.2059  0.3284  0.7509
 1439TIP3    H125808   1.684   4.620  11.657 -0.5918  0.5861 -2.1205
 1439TIP3    H225809   1.736   4.723  11.560  3.2940  1.8771  1.1957
 1440TIP3   OH225810   5.967   0.592  12.024 -0.1302 -0.5541 -0.1729
 1440TIP3    H125811   5.958   0.668  12.082  1.2371  0.3775 -1.1460
 1440TIP3    H225812   5.961   0.517  12.082 -1.7902  0.2905  0.7738
 1441TIP3   OH225813   5.540   5.306  12.924  0.7923 -0.2011 -0.3397
 1441TIP3    H125814   5.564   5.225  12.968 -0.9930 -0.8554 -0.5088
 1441TIP3    H225815   5.575   5.376  12.979 -2.4604 -0.9251  2.8945
 1442TIP3   OH225816   2.054   4.612   4.371 -0.2810 -0.6238 -0.0154
 1442TIP3    H125817   2.084   4.541   4.315 -0.2703 -1.5584  1.1438
 1442TIP3    H225818   1.965   4.631   4.341  0.3531  0.0914 -1.4829
 1443TIP3   OH225819   5.556   4.326  16.520  0.5875  0.0457  0.1753
 1443TIP3    H125820   5.629   4.380  16.551  0.3687  0.3405  0.1693
 1443TIP3    H225821   5.597   4.243  16.495  0.7454 -0.2644  1.4370
 1444TIP3   OH225822   3.419   5.410   2.172  0.0897 -0.1805 -0.4212
 1444TIP3    H125823   3.452   5.333   2.125 -0.5880 -1.1270  0.6214
 1444TIP3    H225824   3.491   5.473   2.170  1.4621 -1.6811  0.6042
 1445TIP3   OH225825   0.964   2.612  11.880  0.0946 -0.4551 -0.5236
 1445TIP3    H125826   0.972   2.596  11.786 -0.9391  0.1966 -0.7344
 1445TIP3    H225827   1.009   2.696  11.894  0.9739 -0.9634 -0.2958
 1446TIP3   OH225828   5.735   2.974   4.422  0.3418  0.2513 -0.6749
 1446TIP3    H125829   5.759   3.067   4.413  0.7061  0.5741  2.7794
 1446TIP3    H225830   5.811   2.934   4.462 -0.6220 -1.1050 -0.1820
 1447TIP3   OH225831   0.444   3.118   4.926  0.1440  0.5134 -0.1069
 1447TIP3    H125832   0.402   3.080   5.003  1.5285 -0.3388  0.2584
 1447TIP3    H225833   0.434   3.052   4.858  2.0283 -0.2957  0.3600
 1448TIP3   OH225834   5.677   6.041   4.033 -0.1094  0.0562  0.1274
 1448TIP3    H125835   5.756   6.073   3.990  0.7985 -2.2503  0.0139
 1448TIP3    H225836   5.609   6.105   4.009  0.8783  0.0616 -2.8507
 1449TIP3   OH225837   5.037   4.069  14.359 -0.3121 -0.0506  0.1284
 1449TIP3    H125838   4.992   4.096  14.279 -0.1843  0.2674  0.1593
 1449TIP3    H225839   5.038   4.148  14.413  1.3755  0.3152 -0.3795
 1450TIP3   OH225840   1.184   0.912   2.631  0.3507  0.5231 -0.6620
 1450TIP3    H125841   1.235   0.854   2.574  0.2411  0.3623 -0.5958
 1450TIP3    H225842   1.209   1.000   2.603  0.0047  0.4495 -1.2282
 1451TIP3   OH225843   5.710   1.081   2.136 -0.2473  1.0407 -0.1737
 1451TIP3    H125844   5.725   1.157   2.081  0.1218 -0.6292 -2.4469
 1451TIP3    H225845   5.697   1.009   2.075 -1.2792 -0.6133  1.9129
 1452TIP3   OH225846   2.645   3.767   2.019  0.2783 -0.3404 -0.5711
 1452TIP3    H125847   2.685   3.681   2.030 -0.6581 -0.6069  0.9047
 1452TIP3    H225848   2.709   3.828   2.054 -0.1882 -0.6838  0.9024
 1453TIP3   OH225849   0.704   2.655   6.087 -0.0980 -0.0015  0.3658
 1453TIP3    H125850   0.680   2.565   6.064  0.1121 -0.3752  1.5392
 1453TIP3    H225851   0.745   2.647   6.174 -0.4427  1.2761  0.6577
 1454TIP3   OH225852   4.670   2.676  14.719 -0.4935 -0.0374 -1.0656
 1454TIP3    H125853   4.742   2.613  14.728 -0.1077  0.2686 -1.9437
 1454TIP3    H225854   4.632   2.682  14.807 -0.2180 -1.1154 -0.8690
 1455TIP3   OH225855   5.445   1.564  13.359  0.7326  0.6038  0.0129
 1455TIP3    H125856   5.356   1.582  13.389  0.2147 -2.5745  0.5615
 1455TIP3    H225857   5.439   1.479  13.316  3.7552 -0.2389  1.1548
 1456TIP3   OH225858   1.565   5.631   4.081  0.1322 -0.4150  0.1337
 1456TIP3    H125859   1.529   5.711   4.043 -0.3875 -0.7917 -0.1685
 1456TIP3    H225860   1.508   5.611   4.155  0.5330 -0.2597  0.4891
 1457TIP3   OH225861   0.373   1.848  11.225 -0.7426  0.1308  0.5363
 1457TIP3    H125862   0.329   1.931  11.244 -0.8346 -0.0884  1.3239
 1457TIP3    H225863   0.302   1.790  11.196 -0.8148  0.0831  0.8036
 1458TIP3   OH225864   2.049   5.871   5.821  0.3721  0.3890  0.0958
 1458TIP3    H125865   2.118   5.902   5.879  1.5509 -1.8865 -0.0462
 1458TIP3    H225866   1.968   5.904   5.860  1.3688  1.4211  1.3450
 1459TIP3   OH225867   5.723   2.303   2.255 -0.4556 -0.3318  0.1404
 1459TIP3    H125868   5.629   2.303   2.275 -0.2175 -0.7302  1.3112
 1459TIP3    H225869   5.742   2.392   2.227 -1.2662 -0.3549 -0.5007
 1460TIP3   OH225870   4.656   1.965  13.271 -0.1569  0.3374  0.1868
 1460TIP3    H125871   4.672   2.059  13.266  0.3978  0.2725  0.7381
 1460TIP3    H225872   4.562   1.957  13.282  0.0343  0.9056  2.3658
 1461TIP3   OH225873   4.896   2.881  15.634 -0.8095 -0.0932  0.0919
 1461TIP3    H125874   4.923   2.936  15.706  0.1768 -0.4944  0.0321
 1461TIP3    H225875   4.964   2.892  15.567 -0.2431 -1.8567  0.3363
 1462TIP3   OH225876   1.777   3.016  14.385 -0.0373  0.2046 -0.1349
 1462TIP3    H125877   1.862   2.973  14.390  0.1618  0.3771 -1.8971
 1462TIP3    H225878   1.727   2.964  14.322 -0.9929  0.5100  0.3604
 1463TIP3   OH225879   5.710   3.088  15.965 -0.3530 -0.1480 -0.6043
 1463TIP3    H125880   5.794   3.093  16.010 -0.2879  2.0988 -0.9254
 1463TIP3    H225881   5.666   3.170  15.987 -1.0884  0.1608 -3.0915
 1464TIP3   OH225882   5.818   4.434  16.985  0.1416 -0.2747 -0.2229
 1464TIP3    H125883   5.764   4.407  17.060 -0.3258 -2.8584 -1.4297
 1464TIP3    H225884   5.777   4.515  16.954 -0.6504 -0.0724  1.3104
 1465TIP3   OH225885   2.471   2.859  16.991  0.5869  0.3609 -0.1499
 1465TIP3    H125886   2.427   2.779  17.019 -0.6416  0.5963 -1.3501
 1465TIP3    H225887   2.410   2.929  17.016  1.0164  0.8154 -0.3672
 1466TIP3   OH225888   1.570   3.505  16.874 -0.3501  0.2043  0.2078
 1466TIP3    H125889   1.561   3.549  16.790  1.4122 -0.6548 -0.4664
 1466TIP3    H225890   1.605   3.572  16.933 -0.0942  0.3884 -0.1540
 1467TIP3   OH225891   0.312   1.352   2.622  0.2073 -0.6406 -0.1093
 1467TIP3    H125892   0.227   1.388   2.648  0.7307  0.1655  0.5016
 1467TIP3    H225893   0.324   1.384   2.532  1.5044  2.2785  1.0693
 1468TIP3   OH225894   6.363   1.732  11.949 -0.0332  0.2889  0.4808
 1468TIP3    H125895   6.326   1.692  12.028  0.4865 -2.9588 -0.8162
 1468TIP3    H225896   6.384   1.822  11.974 -1.2362 -0.2549  3.5903
 1469TIP3   OH225897   5.228   1.379   4.577  0.8140  0.3246 -0.0294
 1469TIP3    H125898   5.149   1.356   4.527  0.0427  2.6048  0.1025
 1469TIP3    H225899   5.194   1.411   4.661  1.9683 -0.1281  0.6267
 1470TIP3   OH225900   2.825   5.971  11.917 -0.5429 -0.0038 -0.0459
 1470TIP3    H125901   2.781   6.055  11.900 -0.4148  0.1846  0.5431
 1470TIP3    H225902   2.770   5.927  11.981 -1.8206 -1.3644 -2.0212
 1471TIP3   OH225903   2.789   0.984   3.811 -0.2935  0.0397  0.6554
 1471TIP3    H125904   2.728   0.911   3.802 -2.2154  1.4281  2.1341
 1471TIP3    H225905   2.797   1.020   3.722 -2.6939  0.6887  0.6911
 1472TIP3   OH225906   2.370   6.532  11.801  0.8317  0.0863  0.0563
 1472TIP3    H125907   2.413   6.547  11.885  2.4695 -1.5817 -0.4616
 1472TIP3    H225908   2.294   6.478  11.824  0.1441  1.2989  0.7024
 1473TIP3   OH225909   5.404   0.532  10.594  0.0115 -0.6153  0.1936
 1473TIP3    H125910   5.416   0.465  10.661 -0.1511 -0.7024  0.1362
 1473TIP3    H225911   5.310   0.535  10.579 -0.2116  1.1073  1.7159
 1474TIP3   OH225912   2.759   5.849  17.097  0.5448  0.1665 -0.0774
 1474TIP3    H125913   2.799   5.821  17.179  0.1647 -1.7971 -0.5324
 1474TIP3    H225914   2.828   5.894  17.050  1.0671  0.3575  0.8750
 1475TIP3   OH225915   2.459   2.609  11.792 -0.4569  0.2088  0.1791
 1475TIP3    H125916   2.453   2.524  11.750  0.2816 -1.3019  3.0237
 1475TIP3    H225917   2.551   2.634  11.783 -0.6024  0.5657 -0.3542
 1476TIP3   OH225918   0.007   6.720  12.315  0.7314 -0.3980  0.2910
 1476TIP3    H125919   0.066   6.653  12.350  2.4242  0.4783 -0.8246
 1476TIP3    H225920   0.064   6.794  12.294 -0.9162  0.8581  0.1222
 1477TIP3   OH225921   3.209   1.502   3.612 -0.0855 -0.2772 -0.0724
 1477TIP3    H125922   3.153   1.435   3.572 -0.5725  0.9320 -1.4448
 1477TIP3    H225923   3.151   1.551   3.670 -0.3217  0.5967 -1.0406
 1478TIP3   OH225924   1.078   3.629  13.927  0.2513  0.0843 -0.1696
 1478TIP3    H125925   0.990   3.639  13.891 -0.1791  0.3536  0.9541
 1478TIP3    H225926   1.113   3.551  13.883 -0.7410 -0.3387 -0.2150
 1479TIP3   OH225927   5.848   0.370  12.158 -0.0912  0.1266  0.4492
 1479TIP3    H125928   5.831   0.312  12.232 -1.6198  2.1476  1.7206
 1479TIP3    H225929   5.801   0.331  12.084 -2.4428  0.5795  1.6741
 1480TIP3   OH225930   4.771   2.788  15.388  0.2297 -0.4751 -0.4132
 1480TIP3    H125931   4.698   2.728  15.405 -0.3266  0.9530  2.3930
 1480TIP3    H225932   4.756   2.817  15.298 -2.8563  0.0242  0.2110
 1481TIP3   OH225933   2.079   3.434   4.916  0.1897 -1.1073 -0.4804
 1481TIP3    H125934   2.015   3.381   4.869  0.9248 -1.3849 -1.1678
 1481TIP3    H225935   2.038   3.450   5.001 -2.2455  1.4422 -2.0366
 1482TIP3   OH225936   6.385   2.445  16.550 -0.3283  0.1240  0.5292
 1482TIP3    H125937   6.454   2.482  16.495 -0.8142  1.0459  0.5289
 1482TIP3    H225938   6.394   2.491  16.633 -1.5679  0.9843  0.2073
 1483TIP3   OH225939   1.677   3.924  15.724 -0.6041  0.4730  0.3151
 1483TIP3    H125940   1.729   3.972  15.660 -0.3157  1.1198  1.0282
 1483TIP3    H225941   1.624   3.864  15.672 -0.1293  0.7627 -0.5037
 1484TIP3   OH225942   6.084   2.719  14.561  0.1424  0.0218  0.9050
 1484TIP3    H125943   5.998   2.722  14.520  0.6622  0.7525 -0.1622
 1484TIP3    H225944   6.096   2.627  14.586 -0.4713 -0.3028  0.0324
 1485TIP3   OH225945   6.110   5.233   0.975  0.4215  0.0249  0.4347
 1485TIP3    H125946   6.017   5.220   0.956  0.2937 -0.3161  1.3078
 1485TIP3    H225947   6.155   5.175   0.914  0.1271  1.3321 -1.0712
 1486TIP3   OH225948   6.507   6.083  15.613  0.1974 -0.3569 -0.5552
 1486TIP3    H125949   6.516   5.992  15.640  1.9069 -0.1894 -0.5285
 1486TIP3    H225950   6.591   6.123  15.634 -0.1419  0.9530 -1.6350
 1487TIP3   OH225951   5.475   6.771   4.549  0.1062 -0.1101 -0.0755
 1487TIP3    H125952   5.449   6.860   4.573 -0.1844 -0.5597  1.3425
 1487TIP3    H225953   5.502   6.731   4.632 -1.6174 -1.9499 -0.3682
 1488TIP3   OH225954   4.948   2.215  16.440  0.8753  0.5762 -0.0743
 1488TIP3    H125955   4.991   2.299  16.420  0.2878  0.9169  0.0784
 1488TIP3    H225956   5.016   2.163  16.484  1.2052  1.0236 -0.0496
 1489TIP3   OH225957   1.655   5.711   4.601 -0.2678  0.0644 -0.1329
 1489TIP3    H125958   1.693   5.717   4.688 -2.0113  3.9452  0.4661
 1489TIP3    H225959   1.566   5.679   4.615 -0.4011  0.2540 -0.5170
 1490TIP3   OH225960   0.835   0.140   1.263  0.6674 -0.4325  0.0688
 1490TIP3    H125961   0.853   0.047   1.270 -0.8226 -0.7626 -0.2620
 1490TIP3    H225962   0.746   0.145   1.229  0.9718  1.1137 -0.5720
 1491TIP3   OH225963   5.169   1.486   3.920  0.0858  0.4586 -0.1227
 1491TIP3    H125964   5.180   1.438   4.003 -0.0898 -3.1720 -2.0854
 1491TIP3    H225965   5.075   1.505   3.916 -0.4438 -2.0371 -0.7945
 1492TIP3   OH225966   1.049   4.302  11.795 -0.2740 -0.4563  0.3303
 1492TIP3    H125967   0.962   4.333  11.767  0.7133  0.7819 -1.4480
 1492TIP3    H225968   1.071   4.233  11.732  0.5248  0.0236  0.0881
 1493TIP3   OH225969   6.547   5.401  11.897 -0.8473  0.3255  0.4097
 1493TIP3    H125970   6.540   5.462  11.824 -2.2143 -1.2310 -0.8018
 1493TIP3    H225971   6.638   5.371  11.895 -0.6928  0.8151 -0.2183
 1494TIP3   OH225972   0.416   1.931  12.225 -0.1510 -0.3479  0.4696
 1494TIP3    H125973   0.323   1.921  12.205 -0.3315  0.0315  1.1175
 1494TIP3    H225974   0.459   1.863  12.173 -0.6962  0.0771 -0.5513
 1495TIP3   OH225975   3.552   2.001   1.685 -0.1476  0.1206  0.2547
 1495TIP3    H125976   3.530   1.913   1.653 -0.1318  0.8923 -2.0023
 1495TIP3    H225977   3.467   2.043   1.699 -0.1835  0.7911 -1.7849
 1496TIP3   OH225978   5.789   1.106  15.754 -0.0689  0.6561 -0.0515
 1496TIP3    H125979   5.799   1.091  15.848 -0.6585 -0.9468 -0.2299
 1496TIP3    H225980   5.852   1.046  15.713 -0.8983  0.2355 -0.7230
 1497TIP3   OH225981   6.211   3.352   5.634 -0.3276  0.4277 -0.1475
 1497TIP3    H125982   6.190   3.396   5.716 -2.3955  2.8629 -1.8886
 1497TIP3    H225983   6.300   3.381   5.613 -0.1389  0.5185  0.7810
 1498TIP3   OH225984   0.533   2.361  12.787  0.0287  0.6775 -0.6692
 1498TIP3    H125985   0.573   2.446  12.770  1.7185 -0.0316 -0.2957
 1498TIP3    H225986   0.548   2.311  12.707 -0.7603  0.6472 -0.7996
 1499TIP3   OH225987   3.467   4.203   2.358 -0.1619 -0.4880 -0.5564
 1499TIP3    H125988   3.389   4.169   2.402 -0.2216 -1.5320 -1.4466
 1499TIP3    H225989   3.447   4.295   2.341 -1.1100 -0.6959 -0.5761
 1500TIP3   OH225990   2.502   6.297   1.740 -0.0421  0.4636  0.1226
 1500TIP3    H125991   2.407   6.284   1.743  0.0587 -0.3027  0.0374
 1500TIP3    H225992   2.534   6.231   1.679  0.6538  0.0702  0.9012
 1501TIP3   OH225993   0.330   3.910   1.705 -0.3736  0.5028  0.2019
 1501TIP3    H125994   0.298   4.000   1.712 -2.9930 -0.3986  0.6664
 1501TIP3    H225995   0.322   3.874   1.793  2.2754  0.2864  0.3906
 1502TIP3   OH225996   3.011   4.109   5.142  0.4479  0.3170 -0.4395
 1502TIP3    H125997   2.967   4.178   5.191 -1.7359 -1.1940 -0.2197
 1502TIP3    H225998   2.975   4.116   5.053  1.8481  0.8419 -0.9798
 1503TIP3   OH225999   2.747   1.832  13.254 -0.1531  0.4788  0.8941
 1503TIP3    H126000   2.757   1.923  13.224 -0.2094 -0.2850 -1.5353
 1503TIP3    H226001   2.831   1.811  13.294  0.3475  1.1573  0.2217
 1504TIP3   OH226002   6.114   1.027   1.914  0.0590 -0.0913  0.2665
 1504TIP3    H126003   6.169   0.955   1.885  0.9988 -0.8943  3.7610
 1504TIP3    H226004   6.032   0.985   1.941 -0.3833  0.4743 -0.1878
 1505TIP3   OH226005   1.669   2.745   2.853  0.0366 -0.3851  0.5816
 1505TIP3    H126006   1.622   2.774   2.931  0.6157 -0.9431  1.1479
 1505TIP3    H226007   1.612   2.680   2.813 -1.6560  2.1023 -1.1639
 1506TIP3   OH226008   6.249   1.431  17.197 -0.1502 -0.2511  0.3013
 1506TIP3    H126009   6.224   1.366  17.131 -2.3153 -0.3893  1.2170
 1506TIP3    H226010   6.225   1.515  17.158  0.5439 -0.1759  0.0377
 1507TIP3   OH226011   2.043   6.394  11.809  0.1075  0.7084  0.1556
 1507TIP3    H126012   2.035   6.303  11.780  0.4501  1.3476 -2.0563
 1507TIP3    H226013   2.048   6.389  11.904 -0.2122 -1.5625  0.0751
 1508TIP3   OH226014   6.672   3.367  17.220  0.1421 -0.4468 -0.3487
 1508TIP3    H126015   6.578   3.350  17.220 -0.1159  0.8585 -1.6986
 1508TIP3    H226016   6.694   3.376  17.313 -1.2800  0.2988 -0.0625
 1509TIP3   OH226017   4.204   6.434  12.820  0.6425  0.4227 -0.2507
 1509TIP3    H126018   4.286   6.440  12.869  0.0250  0.2718  0.8088
 1509TIP3    H226019   4.201   6.344  12.789  2.3810  1.2300 -2.9662
 1510TIP3   OH226020   0.075   3.563   5.098  0.4054  0.3835  0.3591
 1510TIP3    H126021   0.106   3.653   5.096  1.4996  0.0602  1.5821
 1510TIP3    H226022   0.074   3.540   5.191 -2.3670 -0.0265  0.2505
 1511TIP3   OH226023   6.308   0.372   4.263  0.1395  0.0100 -0.3637
 1511TIP3    H126024   6.289   0.295   4.208  2.2705  0.0306 -1.1804
 1511TIP3    H226025   6.299   0.341   4.353  1.5046 -1.3265 -0.6889
 1512TIP3   OH226026   0.906   6.736  14.859  0.1966 -0.2162  0.0391
 1512TIP3    H126027   0.983   6.791  14.846  0.9673 -1.7048 -2.0105
 1512TIP3    H226028   0.928   6.681  14.935 -0.3794  1.8962  1.7768
 1513TIP3   OH226029   3.039   6.536   2.491 -0.1017  0.2767 -0.3459
 1513TIP3    H126030   3.088   6.460   2.459  0.7970  0.6371  0.1618
 1513TIP3    H226031   2.954   6.500   2.516  0.2507 -0.5298 -0.2846
 1514TIP3   OH226032   4.847   3.882  11.977 -0.8853 -0.4586  0.0003
 1514TIP3    H126033   4.915   3.946  11.954 -1.1926 -0.1267  0.0130
 1514TIP3    H226034   4.893   3.814  12.026 -0.2680 -1.0205 -1.3262
 1515TIP3   OH226035   5.186   1.213  16.066  0.7552  0.5579  0.1725
 1515TIP3    H126036   5.096   1.244  16.071  0.0135 -1.6160  1.2042
 1515TIP3    H226037   5.218   1.243  15.981 -1.0802  1.0085 -0.3615
 1516TIP3   OH226038   2.298   4.272  11.680  0.1915 -0.0683  0.2224
 1516TIP3    H126039   2.221   4.222  11.708  0.7597 -0.6330  0.8097
 1516TIP3    H226040   2.276   4.305  11.594 -0.6093 -0.4537  0.2795
 1517TIP3   OH226041   5.421   5.653  14.885  0.5461  0.3737  0.1661
 1517TIP3    H126042   5.445   5.723  14.946  3.2886 -0.9584  0.7001
 1517TIP3    H226043   5.504   5.614  14.860 -0.8029 -1.3766 -1.7471
 1518TIP3   OH226044   5.992   6.123  17.206 -0.1254  0.3640  0.7097
 1518TIP3    H126045   5.966   6.196  17.262 -0.7912  1.1333 -0.5757
 1518TIP3    H226046   5.910   6.087  17.173  0.2753  0.5190 -0.5003
 1519TIP3   OH226047   5.225   6.694  11.611  0.0781  0.5124 -0.3641
 1519TIP3    H126048   5.195   6.769  11.560 -1.5158  0.2857  0.2291
 1519TIP3    H226049   5.189   6.708  11.698 -0.6634 -1.2046 -0.3853
 1520TIP3   OH226050   3.147   5.781  12.250  0.2971  0.0518 -0.4397
 1520TIP3    H126051   3.145   5.867  12.209 -1.5105  0.0568 -0.3672
 1520TIP3    H226052   3.158   5.719  12.178  1.5537  0.3225 -0.4934
 1521TIP3   OH226053   4.912   6.371   1.410  0.0020 -0.2808 -0.8365
 1521TIP3    H126054   4.921   6.286   1.453 -1.3350  0.8627  1.8229
 1521TIP3    H226055   4.937   6.435   1.477  1.5176  1.4196 -2.9578
 1522TIP3   OH226056   1.689   3.673  11.444  0.3186  0.4522 -0.1609
 1522TIP3    H126057   1.677   3.760  11.406 -2.2491 -0.7978 -2.4373
 1522TIP3    H226058   1.749   3.629  11.384 -0.4020 -0.1601 -0.4361
 1523TIP3   OH226059   4.495   2.108   0.864 -0.2396 -0.3454  0.4327
 1523TIP3    H126060   4.410   2.135   0.828 -0.5453 -0.5471  0.9992
 1523TIP3    H226061   4.484   2.014   0.881  0.9546 -0.9532 -1.9309
 1524TIP3   OH226062   0.939   5.391   4.117 -0.3453  0.0428  0.7117
 1524TIP3    H126063   0.861   5.345   4.147 -0.3521  0.1435  0.8518
 1524TIP3    H226064   0.922   5.412   4.026 -0.0087 -0.9502  0.4115
 1525TIP3   OH226065   4.635   5.051  12.263  0.2992  0.1912 -0.6923
 1525TIP3    H126066   4.554   5.000  12.254 -0.0617  0.6955 -0.2874
 1525TIP3    H226067   4.615   5.117  12.328  1.8527 -1.3109  1.3770
 1526TIP3   OH226068   1.520   5.998   3.131  0.1081  1.0393  0.0782
 1526TIP3    H126069   1.599   5.946   3.148 -0.6431 -0.0722  0.2515
 1526TIP3    H226070   1.495   5.974   3.042  1.2454  3.1333 -0.8525
 1527TIP3   OH226071   6.179   1.325   4.607 -0.2882 -0.5683 -0.5635
 1527TIP3    H126072   6.187   1.316   4.512 -2.9005 -0.3570 -0.8424
 1527TIP3    H226073   6.116   1.258   4.632 -0.1716 -0.1348  0.9235
 1528TIP3   OH226074   6.175   6.347   4.913  0.5419 -0.2105 -0.4786
 1528TIP3    H126075   6.182   6.376   4.822 -1.9941  0.6097 -0.4304
 1528TIP3    H226076   6.253   6.384   4.956 -0.5324  3.1657 -1.3114
 1529TIP3   OH226077   3.629   4.753   0.866 -0.5607 -0.0417 -0.1518
 1529TIP3    H126078   3.631   4.690   0.793  1.2141 -0.3443  0.1463
 1529TIP3    H226079   3.581   4.707   0.935  1.3541 -1.3920  0.3270
 1530TIP3   OH226080   6.132   0.130   2.941 -0.3827 -0.0202  0.0052
 1530TIP3    H126081   6.207   0.118   3.000 -1.0805 -3.1443  0.3419
 1530TIP3    H226082   6.164   0.101   2.855 -0.2626  1.7360 -0.5709
 1531TIP3   OH226083   1.125   0.946  14.027  0.1701 -0.6668 -0.0860
 1531TIP3    H126084   1.124   1.041  14.025  0.5635 -0.6257  1.0276
 1531TIP3    H226085   1.155   0.924  14.115 -1.4027 -1.8299  0.1908
 1532TIP3   OH226086   1.416   3.589   0.912  0.1487 -0.1521 -0.5265
 1532TIP3    H126087   1.433   3.561   1.002 -1.8516  0.0957 -0.0521
 1532TIP3    H226088   1.471   3.667   0.900 -0.8873  0.8640  1.0913
 1533TIP3   OH226089   3.838   5.891  11.083 -0.5484 -0.0787  0.1804
 1533TIP3    H126090   3.903   5.832  11.120 -1.0106 -0.1854  0.8446
 1533TIP3    H226091   3.859   5.896  10.990 -0.0159 -0.6504  0.2705
 1534TIP3   OH226092   0.933   4.390  13.846 -0.2039  0.3683  0.1281
 1534TIP3    H126093   0.966   4.330  13.914  0.8195  0.4046 -0.3304
 1534TIP3    H226094   1.006   4.400  13.786 -1.5057 -0.6419 -1.6751
 1535TIP3   OH226095   0.310   3.394   2.348 -0.0013  0.0524  0.1588
 1535TIP3    H126096   0.257   3.323   2.384  2.3331 -1.9845 -0.2709
 1535TIP3    H226097   0.346   3.358   2.267  1.6641  1.5067  0.2335
 1536TIP3   OH226098   3.244   5.237  13.949  0.1701 -0.1729 -0.0465
 1536TIP3    H126099   3.302   5.253  13.875  1.4230 -1.0200  0.7484
 1536TIP3    H226100   3.264   5.148  13.977 -2.4832 -1.0110 -0.6309
 1537TIP3   OH226101   3.517   2.828  13.283 -0.1559  0.5652  0.0107
 1537TIP3    H126102   3.582   2.888  13.246  0.7736 -0.3963  0.0462
 1537TIP3    H226103   3.443   2.884  13.307  1.6218  2.0324  2.2249
 1538TIP3   OH226104   6.493   1.745  11.164  0.0324 -0.0531 -0.2545
 1538TIP3    H126105   6.565   1.743  11.227 -1.1879  1.1381  1.1934
 1538TIP3    H226106   6.471   1.653  11.149 -0.3053 -0.3105  1.7798
 1539TIP3   OH226107   3.701   2.759   0.581  0.0113  0.3767 -0.3895
 1539TIP3    H126108   3.690   2.784   0.673  0.3643  0.6099 -0.4123
 1539TIP3    H226109   3.771   2.815   0.549 -0.0016  0.1812 -0.7593
 1540TIP3   OH226110   6.076   5.054   5.450 -0.4970  0.0329 -0.4910
 1540TIP3    H126111   6.135   5.124   5.422 -1.5955  0.6648 -1.3077
 1540TIP3    H226112   6.038   5.022   5.369 -0.9499 -0.6535 -0.0099
 1541TIP3   OH226113   0.352   5.923   0.632  0.6470  0.1917  0.1219
 1541TIP3    H126114   0.351   6.010   0.671  2.2319  0.4949 -0.4863
 1541TIP3    H226115   0.363   5.939   0.538  0.1739 -0.6462 -0.0862
 1542TIP3   OH226116   0.745   0.635   0.460  0.2953 -0.3013  0.4586
 1542TIP3    H126117   0.721   0.655   0.551 -0.8987 -0.0111  0.0833
 1542TIP3    H226118   0.727   0.542   0.451  1.4414 -0.5699  0.8285
 1543TIP3   OH226119   1.915   3.356   4.710 -0.0422 -1.0665  0.5339
 1543TIP3    H126120   1.993   3.372   4.656  2.5660 -1.2900  4.0319
 1543TIP3    H226121   1.852   3.422   4.682  1.7141 -0.3023 -1.7810
 1544TIP3   OH226122   6.109   1.106   4.209  0.1362 -0.3924  0.2936
 1544TIP3    H126123   6.027   1.115   4.258 -0.6420  1.8229 -1.2886
 1544TIP3    H226124   6.162   1.180   4.238 -0.8025  1.6643 -2.9306
 1545TIP3   OH226125   0.481   3.458   3.198  0.0714  0.1422  0.1997
 1545TIP3    H126126   0.392   3.458   3.163  0.2275 -0.2886 -0.1945
 1545TIP3    H226127   0.528   3.394   3.145  1.3716  2.4277 -1.4942
 1546TIP3   OH226128   4.026   5.609  17.186  0.1492 -0.1121  0.1090
 1546TIP3    H126129   3.964   5.605  17.114 -2.9081 -1.0007  2.6859
 1546TIP3    H226130   4.068   5.694  17.177 -2.8146  1.3160 -0.6180
 1547TIP3   OH226131   2.250   2.631  13.018  0.0989 -0.7658 -0.1848
 1547TIP3    H126132   2.158   2.620  12.995  0.3583  0.0036 -1.7208
 1547TIP3    H226133   2.260   2.725  13.034  0.7993 -0.6946 -0.9707
 1548TIP3   OH226134   2.104   0.472  15.768  0.2565 -0.4270 -0.0203
 1548TIP3    H126135   2.119   0.493  15.676 -1.5685 -0.7080 -0.4140
 1548TIP3    H226136   2.114   0.556  15.814 -2.1449  0.4338 -0.9463
 1549TIP3   OH226137   4.760   3.091   2.579  0.0966 -0.0828  0.2814
 1549TIP3    H126138   4.843   3.045   2.568  0.3679  0.5660 -0.3294
 1549TIP3    H226139   4.722   3.052   2.659 -1.2045 -3.7099 -1.9686
 1550TIP3   OH226140   1.079   0.465   0.469  0.1018  0.1233 -0.6533
 1550TIP3    H126141   1.160   0.493   0.426 -0.2510  0.6527 -0.9819
 1550TIP3    H226142   1.020   0.445   0.397 -0.0626 -0.2424 -0.4137
 1551TIP3   OH226143   1.286   1.645   5.158  0.2545 -0.5123 -0.3944
 1551TIP3    H126144   1.276   1.739   5.172  1.0224 -0.6390  1.2470
 1551TIP3    H226145   1.348   1.637   5.086 -0.4901  0.2439 -1.1113
 1552TIP3   OH226146   3.312   5.879   4.555 -0.6947  0.3099 -0.2164
 1552TIP3    H126147   3.353   5.865   4.641 -1.2274  2.5987  0.4299
 1552TIP3    H226148   3.241   5.815   4.552 -0.2810 -0.2169  0.7870
 1553TIP3   OH226149   6.082   1.035  15.388  0.2596  0.3260 -0.3280
 1553TIP3    H126150   6.120   1.115  15.350 -2.4676  1.2179 -1.3237
 1553TIP3    H226151   6.076   0.974  15.314  0.1270  0.0575 -0.0955
 1554TIP3   OH226152   0.245   0.114  14.792  0.0399  0.3222 -0.4208
 1554TIP3    H126153   0.289   0.074  14.867  1.6462  0.8003 -1.0813
 1554TIP3    H226154   0.243   0.207  14.812 -1.0282  0.2594 -0.2243
 1555TIP3   OH226155   2.931   1.851  13.793 -0.3185  0.6140  0.8221
 1555TIP3    H126156   3.022   1.822  13.789 -0.1755  0.9654  1.3191
 1555TIP3    H226157   2.879   1.771  13.785  0.0026  0.5632 -0.9194
 1556TIP3   OH226158   3.835   2.485  14.991  0.3657 -0.1367  0.0540
 1556TIP3    H126159   3.889   2.436  15.053 -1.0087 -0.6779  0.8368
 1556TIP3    H226160   3.837   2.575  15.024  0.5150 -0.2148  0.2596
 1557TIP3   OH226161   1.712   3.435   3.556  0.2048 -0.0630 -0.5027
 1557TIP3    H126162   1.723   3.403   3.645 -2.4858  0.6691  0.1496
 1557TIP3    H226163   1.720   3.357   3.501 -2.2682 -1.2625  0.7484
 1558TIP3   OH226164   0.597   4.935  14.224  0.5362  0.6248  0.1413
 1558TIP3    H126165   0.685   4.935  14.186  1.6701 -0.8908  2.6296
 1558TIP3    H226166   0.542   4.899  14.156  2.4566 -1.6734 -0.2690
 1559TIP3   OH226167   6.085   2.461   0.589  0.2545  0.1549 -0.0876
 1559TIP3    H126168   6.052   2.536   0.637  0.0164  0.1233 -0.1987
 1559TIP3    H226169   6.175   2.485   0.565  0.3034  0.2526  0.1930
 1560TIP3   OH226170   6.018   4.709   0.537  0.6060  0.0513  0.0305
 1560TIP3    H126171   6.036   4.620   0.505 -0.2106 -0.9474  2.2712
 1560TIP3    H226172   5.942   4.698   0.594 -0.2810  2.4169 -0.6616
 1561TIP3   OH226173   6.208   1.250  10.928 -0.6861 -0.4053 -0.3660
 1561TIP3    H126174   6.147   1.317  10.959 -0.8568 -0.5696 -0.3417
 1561TIP3    H226175   6.287   1.298  10.905 -0.1029 -0.4392  1.5142
 1562TIP3   OH226176   5.973   3.472   1.797  0.5697 -0.5034  0.2253
 1562TIP3    H126177   5.950   3.508   1.711  0.8821 -1.2622 -0.1806
 1562TIP3    H226178   5.921   3.524   1.859 -0.5485 -0.7257 -0.5049
 1563TIP3   OH226179   5.315   4.734   5.487 -0.4193  0.0780 -0.3206
 1563TIP3    H126180   5.220   4.745   5.477 -0.5331  0.0691  0.7330
 1563TIP3    H226181   5.326   4.702   5.576  0.4994 -0.9887 -0.8131
 1564TIP3   OH226182   0.211   1.329  14.744 -0.2945 -0.4984  0.5585
 1564TIP3    H126183   0.166   1.409  14.715 -2.0676 -1.9700 -0.8480
 1564TIP3    H226184   0.166   1.304  14.825 -0.0725 -0.3424  0.7296
 1565TIP3   OH226185   2.714   1.769   5.927  0.2277 -0.4151 -0.7579
 1565TIP3    H126186   2.744   1.682   5.902  0.7733 -0.4947  0.1447
 1565TIP3    H226187   2.627   1.754   5.965  0.0400 -0.4803 -1.2102
 1566TIP3   OH226188   2.369   2.590   5.735  0.0666  0.5030 -0.5648
 1566TIP3    H126189   2.462   2.575   5.723 -0.1523  0.0506 -1.7690
 1566TIP3    H226190   2.364   2.666   5.794  1.1776 -0.3648  0.6669
 1567TIP3   OH226191   5.329   5.914  12.201 -0.6490  0.1005  0.6614
 1567TIP3    H126192   5.352   5.959  12.119 -1.7486 -0.4374  0.0456
 1567TIP3    H226193   5.313   5.985  12.263 -1.1206  0.5449  0.0431
 1568TIP3   OH226194   4.390   0.344   3.788 -0.1781 -0.5296  0.1177
 1568TIP3    H126195   4.472   0.327   3.742  0.3288  0.3190  0.6959
 1568TIP3    H226196   4.400   0.432   3.824 -0.9114 -0.8399  1.1118
 1569TIP3   OH226197   2.408   4.513   3.057  0.0096  0.5024 -0.1546
 1569TIP3    H126198   2.334   4.505   2.997 -1.0506  1.1040  1.0376
 1569TIP3    H226199   2.405   4.433   3.110 -0.2205  0.8598  0.3729
 1570TIP3   OH226200   6.387   3.836  16.190  0.7487 -0.3080 -0.2673
 1570TIP3    H126201   6.414   3.927  16.175 -2.2861  0.7457  0.3749
 1570TIP3    H226202   6.398   3.824  16.285 -0.5095 -0.0505 -0.0879
 1571TIP3   OH226203   5.133   2.550   4.185  0.5603 -0.0660  0.2051
 1571TIP3    H126204   5.051   2.600   4.175 -0.3785 -1.9785 -2.1322
 1571TIP3    H226205   5.116   2.491   4.258  0.5898  0.8819  1.0017
 1572TIP3   OH226206   6.456   4.866   3.583  0.0700  0.3868  0.0865
 1572TIP3    H126207   6.464   4.888   3.676 -0.6957  3.5075 -0.5086
 1572TIP3    H226208   6.363   4.844   3.572  0.6501 -2.3858  0.4971
 1573TIP3   OH226209   1.371   0.909  10.916 -0.0752  0.3904  0.5642
 1573TIP3    H126210   1.307   0.975  10.888 -0.1153 -0.4895 -1.4803
 1573TIP3    H226211   1.319   0.831  10.934  0.6364 -1.4355 -4.5045
 1574TIP3   OH226212   1.142   3.019  13.153  0.0951 -0.5507 -0.2377
 1574TIP3    H126213   1.047   3.021  13.142  0.0171  0.2308  0.5508
 1574TIP3    H226214   1.172   3.106  13.127  0.4688 -0.4288  0.5807
 1575TIP3   OH226215   2.834   2.415   0.728 -0.0122  0.3343 -0.4853
 1575TIP3    H126216   2.767   2.480   0.751  0.0784 -0.5255  2.4428
 1575TIP3    H226217   2.784   2.336   0.708 -0.0246  0.7267 -2.0574
 1576TIP3   OH226218   6.029   2.257   4.649  0.1482  0.2727 -0.0350
 1576TIP3    H126219   6.033   2.164   4.672  0.8643 -0.0253 -1.3077
 1576TIP3    H226220   6.116   2.290   4.668 -0.0206  0.6194  0.1379
 1577TIP3   OH226221   0.181   6.479  13.739 -0.0987  0.0490  0.4777
 1577TIP3    H126222   0.255   6.419  13.736  0.8333  1.1987  0.5266
 1577TIP3    H226223   0.180   6.521  13.653 -0.9026 -0.2125  0.3537
 1578TIP3   OH226224   6.151   2.785   2.192 -0.1478  0.2032 -0.3121
 1578TIP3    H126225   6.224   2.843   2.172  2.7447 -3.2746 -0.3265
 1578TIP3    H226226   6.140   2.793   2.287 -0.5490  1.6203 -0.4691
 1579TIP3   OH226227   1.343   2.870   3.595 -0.5339 -0.0736 -0.3370
 1579TIP3    H126228   1.367   2.798   3.653 -0.4387 -0.5741 -0.9976
 1579TIP3    H226229   1.400   2.860   3.519  0.7872  1.7946  0.3746
 1580TIP3   OH226230   3.717   4.609   1.958 -0.0901  0.3336 -0.2725
 1580TIP3    H126231   3.762   4.533   1.992 -0.8829 -0.5718 -1.1982
 1580TIP3    H226232   3.775   4.643   1.890  0.6169  1.0198  0.6666
 1581TIP3   OH226233   0.018   3.955   0.901 -0.2000 -0.1452  0.2976
 1581TIP3    H126234   0.046   3.874   0.943 -0.4669 -0.3177  0.1531
 1581TIP3    H226235   0.085   3.973   0.836  0.0058 -0.0975  0.5250
 1582TIP3   OH226236   1.661   4.442   1.741  0.0224 -0.9077 -0.2419
 1582TIP3    H126237   1.663   4.512   1.807 -1.7444  0.3550 -1.5064
 1582TIP3    H226238   1.612   4.371   1.783 -1.0539 -0.1279 -0.1678
 1583TIP3   OH226239   0.123   4.720   2.810 -0.2535 -0.0647 -0.6897
 1583TIP3    H126240   0.172   4.638   2.810 -0.2076 -0.0620  1.3527
 1583TIP3    H226241   0.053   4.706   2.746  0.1374 -1.4575 -0.8297
 1584TIP3   OH226242   0.143   2.002   5.217  0.3006  0.1965 -0.1363
 1584TIP3    H126243   0.215   1.957   5.260  0.1440  1.2614  1.2646
 1584TIP3    H226244   0.066   1.950   5.239  0.2598  0.5890  0.6642
 1585TIP3   OH226245   5.075   4.233   5.468 -0.8799 -0.2241  0.0311
 1585TIP3    H126246   5.022   4.310   5.489  1.5063  1.1719  1.0104
 1585TIP3    H226247   5.035   4.162   5.519 -0.7919  1.1621  2.0482
 1586TIP3   OH226248   1.346   4.884  14.808 -0.1440 -0.4906 -0.3688
 1586TIP3    H126249   1.377   4.958  14.861 -2.7957 -0.2486  0.8642
 1586TIP3    H226250   1.253   4.900  14.796 -0.5409 -3.1150 -1.0035
 1587TIP3   OH226251   0.796   2.264   5.006 -0.0044 -0.2842  0.3888
 1587TIP3    H126252   0.745   2.195   4.963 -1.3936  0.6743  0.4949
 1587TIP3    H226253   0.762   2.345   4.970  1.3294  0.3793  0.6043
 1588TIP3   OH226254   2.516   4.998  16.423  0.0275  0.5050  0.0879
 1588TIP3    H126255   2.503   5.093  16.431  0.3536  0.5814 -0.2344
 1588TIP3    H226256   2.577   4.989  16.349  1.6848  0.1614  1.4551
 1589TIP3   OH226257   5.751   6.308   1.517  0.0404 -0.2893 -0.2425
 1589TIP3    H126258   5.746   6.336   1.609  0.1403 -0.7987 -0.0806
 1589TIP3    H226259   5.750   6.212   1.521 -0.4407 -0.3123 -0.7995
 1590TIP3   OH226260   0.829   0.366  12.342  0.1382 -0.4042 -0.7078
 1590TIP3    H126261   0.817   0.332  12.253 -0.5780 -0.8803 -0.4334
 1590TIP3    H226262   0.764   0.436  12.350  1.0681  0.5092 -0.9945
 1591TIP3   OH226263   0.558   3.795  11.804  0.9942 -0.1807 -0.0946
 1591TIP3    H126264   0.490   3.844  11.760  0.2632 -1.5687 -0.5478
 1591TIP3    H226265   0.635   3.802  11.747  0.0224 -2.0795 -1.7179
 1592TIP3   OH226266   1.511   1.732   1.721 -0.1760  0.3957  0.3604
 1592TIP3    H126267   1.424   1.759   1.694 -0.4876  0.1918  1.1695
 1592TIP3    H226268   1.507   1.727   1.816  0.8088  0.7022  0.4254
 1593TIP3   OH226269   6.326   2.835   0.997  0.2945  0.3428 -0.1758
 1593TIP3    H126270   6.272   2.756   0.990  0.3572  0.4104 -1.5789
 1593TIP3    H226271   6.305   2.886   0.919  2.2191  0.4677 -0.6461
 1594TIP3   OH226272   6.476   1.541   2.911 -0.1245  0.2710 -0.5775
 1594TIP3    H126273   6.401   1.482   2.905 -0.1148  0.2595 -0.5866
 1594TIP3    H226274   6.490   1.571   2.822 -1.0195  1.4160 -0.3485
 1595TIP3   OH226275   5.838   4.809   4.626 -0.1633  0.6621  0.1950
 1595TIP3    H126276   5.876   4.835   4.542 -1.6248  2.7381  0.1379
 1595TIP3    H226277   5.910   4.819   4.689  0.5269  0.5402 -0.5689
 1596TIP3   OH226278   2.280   2.012   1.390 -0.1330 -0.4438 -0.0059
 1596TIP3    H126279   2.244   2.031   1.477 -0.1040 -0.3450 -0.0159
 1596TIP3    H226280   2.205   2.017   1.331 -0.6083 -2.7673  0.3232
 1597TIP3   OH226281   4.379   2.172  10.805  0.4395  0.2007  0.2917
 1597TIP3    H126282   4.305   2.112  10.804  1.1115 -0.6484 -0.6999
 1597TIP3    H226283   4.378   2.212  10.718 -0.7623  2.6017  1.3872
 1598TIP3   OH226284   6.732   5.234  12.259 -0.0802  0.0870 -0.4796
 1598TIP3    H126285   6.708   5.219  12.351  0.7083 -1.4136 -0.5103
 1598TIP3    H226286   6.792   5.308  12.262 -1.7896  1.5082 -0.0350
 1599TIP3   OH226287   4.334   5.703  15.103  0.4737 -0.4794  0.2403
 1599TIP3    H126288   4.281   5.624  15.113  0.2236 -0.5638 -1.5722
 1599TIP3    H226289   4.365   5.700  15.012  0.3440  1.5623  0.0984
 1600TIP3   OH226290   1.981   6.740  15.618 -0.0814 -0.2412  0.1451
 1600TIP3    H126291   1.958   6.755  15.710 -3.9150  1.6776 -1.0317
 1600TIP3    H226292   2.062   6.789  15.606  0.4164 -0.4187  2.4253
 1601TIP3   OH226293   1.343   3.425   2.738  0.1351 -0.0348  0.2468
 1601TIP3    H126294   1.425   3.387   2.707  0.3032 -0.7172  1.4944
 1601TIP3    H226295   1.282   3.415   2.664  0.9705 -0.1708 -0.4288
 1602TIP3   OH226296   0.533   1.696   2.225 -0.0590  0.4108 -0.8061
 1602TIP3    H126297   0.445   1.727   2.203 -0.7547 -0.3325  0.8335
 1602TIP3    H226298   0.537   1.607   2.191 -0.1602  0.2224 -0.3202
 1603TIP3   OH226299   1.959   2.823  15.978 -0.0244 -0.3298  0.0203
 1603TIP3    H126300   1.912   2.822  15.895 -2.4279 -1.8915  1.3300
 1603TIP3    H226301   1.995   2.734  15.987  1.2603  0.1851  0.0982
 1604TIP3   OH226302   6.686   4.723  14.328 -0.1064  0.1417 -0.4242
 1604TIP3    H126303   6.634   4.765  14.397 -0.4694 -0.3700 -0.3813
 1604TIP3    H226304   6.660   4.631  14.331  1.0839 -0.1898 -0.1613
 1605TIP3   OH226305   5.275   3.194   2.707 -0.2312 -0.3570 -0.2503
 1605TIP3    H126306   5.341   3.262   2.693  1.1237 -1.6364 -0.1424
 1605TIP3    H226307   5.214   3.233   2.770  1.1086  0.3824  0.6197
 1606TIP3   OH226308   0.217   0.807   1.765 -0.1955 -0.6648  0.7720
 1606TIP3    H126309   0.256   0.882   1.720  0.1387 -1.3962 -0.1492
 1606TIP3    H226310   0.272   0.795   1.843 -0.6450  0.4562  1.2760
 1607TIP3   OH226311   6.067   6.730   3.916  0.3000 -0.3352 -0.2220
 1607TIP3    H126312   6.036   6.781   3.991  1.1279 -0.6526  0.3439
 1607TIP3    H226313   5.987   6.690   3.879 -0.0983 -0.2827  0.5690
 1608TIP3   OH226314   5.111   4.451  16.827 -0.2925 -0.3553  0.3744
 1608TIP3    H126315   5.029   4.497  16.805 -1.5720 -2.5890  0.2834
 1608TIP3    H226316   5.110   4.373  16.771  1.3229 -1.0003  1.2236
 1609TIP3   OH226317   5.771   4.690   2.860  0.4857  0.2163 -0.4903
 1609TIP3    H126318   5.740   4.778   2.837 -0.8290 -0.6332 -2.0425
 1609TIP3    H226319   5.862   4.704   2.888  0.6063  1.9557 -1.6174
 1610TIP3   OH226320   4.910   0.238  11.415  0.4930 -0.0699 -0.8054
 1610TIP3    H126321   4.933   0.316  11.465 -1.9576 -0.9137  1.8046
 1610TIP3    H226322   4.869   0.271  11.335 -0.3665  1.3453  0.1885
 1611TIP3   OH226323   1.267   4.234  17.012 -0.1511 -0.0785 -0.1592
 1611TIP3    H126324   1.297   4.146  17.034  2.4045  0.5538 -0.9557
 1611TIP3    H226325   1.201   4.221  16.944 -0.1565 -1.4040  0.0923
 1612TIP3   OH226326   6.164   1.786   1.468 -0.6550  0.7445 -0.4535
 1612TIP3    H126327   6.184   1.860   1.411 -1.0871  0.0851 -1.4785
 1612TIP3    H226328   6.103   1.822   1.533 -0.5198  1.3913 -0.6794
 1613TIP3   OH226329   1.498   3.830  15.551  0.5163  0.0540 -0.2180
 1613TIP3    H126330   1.473   3.739  15.535  1.3657 -0.0471 -1.0449
 1613TIP3    H226331   1.459   3.879  15.479 -0.9557  0.5284  0.8880
 1614TIP3   OH226332   5.656   6.413  15.157 -0.7036 -0.1374  0.1497
 1614TIP3    H126333   5.702   6.488  15.119 -0.0928  1.1754  3.3154
 1614TIP3    H226334   5.712   6.385  15.229 -2.6796 -1.3893  1.2478
 1615TIP3   OH226335   5.870   0.884   1.952  0.0030  0.3686 -0.3042
 1615TIP3    H126336   5.836   0.800   1.984  0.3243 -0.0121 -0.9479
 1615TIP3    H226337   5.797   0.924   1.905 -0.0546  0.3049 -0.2680
 1616TIP3   OH226338   5.113   5.459  11.199 -0.3397  0.4217 -0.4322
 1616TIP3    H126339   5.116   5.504  11.283 -1.5710 -1.2938  0.5638
 1616TIP3    H226340   5.032   5.408  11.202  0.2999 -0.7437 -2.0881
 1617TIP3   OH226341   1.412   3.568  16.297  0.0141 -0.4495 -0.5742
 1617TIP3    H126342   1.429   3.474  16.302 -3.3024 -1.0056  1.4662
 1617TIP3    H226343   1.490   3.608  16.335  0.4146 -2.4797  0.8584
 1618TIP3   OH226344   5.317   2.687  15.566  0.1999 -0.0619 -0.2482
 1618TIP3    H126345   5.409   2.702  15.546 -0.3631 -0.7395 -3.6472
 1618TIP3    H226346   5.276   2.772  15.553  0.1445 -0.0015  0.2737
 1619TIP3   OH226347   1.883   3.050  14.928 -0.2128 -0.3739  0.7295
 1619TIP3    H126348   1.874   3.121  14.864 -0.6897 -2.4577 -1.6307
 1619TIP3    H226349   1.971   3.060  14.964 -0.3206  1.4592  0.4992
 1620TIP3   OH226350   3.720   1.299  15.593 -0.5439  0.1951 -0.1620
 1620TIP3    H126351   3.690   1.345  15.672  0.2381  0.4505 -0.0074
 1620TIP3    H226352   3.814   1.318  15.589  0.5185 -4.1082  1.7326
 1621TIP3   OH226353   2.291   4.101  10.742  0.1778 -0.5042  0.3096
 1621TIP3    H126354   2.291   4.182  10.793 -1.0183 -0.2251 -0.1205
 1621TIP3    H226355   2.341   4.039  10.796 -0.1594  0.0899  1.3270
 1622TIP3   OH226356   3.855   3.919   4.990 -0.1798 -0.0847  0.0006
 1622TIP3    H126357   3.894   3.833   5.010 -0.1887 -0.1819 -0.3967
 1622TIP3    H226358   3.840   3.959   5.076 -0.9167 -0.8120  0.2137
 1623TIP3   OH226359   1.587   3.429  12.418  0.1906 -0.2505 -0.1787
 1623TIP3    H126360   1.675   3.417  12.455  0.1040  0.5006  0.2822
 1623TIP3    H226361   1.582   3.365  12.347  0.5754 -1.2980  0.7205
 1624TIP3   OH226362   4.309   1.048  11.605 -0.9963 -0.2797 -0.4537
 1624TIP3    H126363   4.280   1.135  11.632  0.4438  0.1587 -0.3109
 1624TIP3    H226364   4.390   1.033  11.652 -0.4122 -1.0511 -1.6713
 1625TIP3   OH226365   2.659   2.152   3.454  0.1270  0.4540 -0.1994
 1625TIP3    H126366   2.728   2.175   3.516 -0.5505  0.2492  0.6383
 1625TIP3    H226367   2.598   2.226   3.457 -1.1783 -0.6520  1.2332
 1626TIP3   OH226368   5.937   3.811  14.307  0.0198 -0.0941  0.2047
 1626TIP3    H126369   5.919   3.891  14.357 -1.2595  0.2377 -0.7600
 1626TIP3    H226370   5.850   3.775  14.289  0.5233 -0.7707 -0.8843
 1627TIP3   OH226371   1.306   4.853  16.270 -0.1596  0.2278 -0.1374
 1627TIP3    H126372   1.227   4.822  16.314 -0.4656  0.7158 -0.3364
 1627TIP3    H226373   1.308   4.804  16.188  0.4842 -0.7784  0.4764
 1628TIP3   OH226374   4.562   0.423   2.875 -0.4885 -0.2518 -0.2655
 1628TIP3    H126375   4.479   0.378   2.855 -0.9223  0.2376  0.3896
 1628TIP3    H226376   4.630   0.359   2.854 -0.9730 -0.2097 -2.0256
 1629TIP3   OH226377   1.597   3.556   6.011 -0.1335 -0.3052 -0.1750
 1629TIP3    H126378   1.640   3.508   6.081 -0.1759  1.8186  1.3379
 1629TIP3    H226379   1.653   3.542   5.934  1.9325  0.4318  1.1806
 1630TIP3   OH226380   4.544   6.350   4.036  0.5845 -0.7115 -0.0453
 1630TIP3    H126381   4.508   6.331   3.949  5.2948  0.0693 -2.2945
 1630TIP3    H226382   4.568   6.442   4.032 -0.6502 -0.2142  2.7456
 1631TIP3   OH226383   5.091   4.249  10.809 -0.0242  0.1401 -0.3120
 1631TIP3    H126384   5.183   4.239  10.786  0.3024 -0.0474  1.0004
 1631TIP3    H226385   5.048   4.172  10.772  0.1205  0.8555 -1.9963
 1632TIP3   OH226386   6.771   4.794   3.662  0.1321 -0.0934  0.0616
 1632TIP3    H126387   6.788   4.869   3.718 -0.2344  0.3840 -0.4643
 1632TIP3    H226388   6.813   4.720   3.707  0.3519  0.3935  0.6550
 1633TIP3   OH226389   2.364   0.541  15.604 -0.0267 -0.0033  0.9386
 1633TIP3    H126390   2.387   0.629  15.634  1.1467  0.3170 -0.8463
 1633TIP3    H226391   2.395   0.483  15.673 -0.0735  0.9138  1.7437
 1634TIP3   OH226392   6.189   0.775   1.013 -0.3358  0.1698  0.0665
 1634TIP3    H126393   6.181   0.869   0.999  1.1094  0.3699  0.5263
 1634TIP3    H226394   6.216   0.766   1.104 -0.4348 -0.6969  0.0166
 1635TIP3   OH226395   3.974   4.818   4.738 -0.1329  0.0740  0.3791
 1635TIP3    H126396   3.879   4.810   4.742 -0.0366 -0.4561  2.0029
 1635TIP3    H226397   4.000   4.762   4.664 -0.9417 -1.0424  0.9351
 1636TIP3   OH226398   5.940   4.736  16.052  0.3230 -0.0005 -0.4746
 1636TIP3    H126399   5.904   4.813  16.095  0.2550 -0.0513 -0.4403
 1636TIP3    H226400   5.922   4.749  15.959  0.0282 -0.1258 -0.4352
 1637TIP3   OH226401   0.109   3.051  12.233  0.1061  0.2758 -0.0893
 1637TIP3    H126402   0.142   3.050  12.143 -2.7508 -0.7741 -1.1739
 1637TIP3    H226403   0.071   3.139  12.244  1.3355  0.7504  0.4471
 1638TIP3   OH226404   5.897   2.810  12.098  0.2640 -0.1721  0.6401
 1638TIP3    H126405   5.927   2.901  12.089  0.4136 -0.0338  2.3172
 1638TIP3    H226406   5.977   2.758  12.095  0.6672  0.1124  3.9622
 1639TIP3   OH226407   1.642   3.766   3.843 -0.1942  0.7265 -0.0773
 1639TIP3    H126408   1.718   3.786   3.897 -1.0824  1.2422  1.0239
 1639TIP3    H226409   1.579   3.726   3.904 -0.2337 -1.1073 -1.2795
 1640TIP3   OH226410   5.415   5.955  10.996  0.1224 -0.6609 -0.2002
 1640TIP3    H126411   5.403   6.031  10.939 -0.7676 -0.4515  0.2509
 1640TIP3    H226412   5.364   5.885  10.954 -0.1124 -0.6485  0.0614
 1641TIP3   OH226413   3.207   6.549  11.532  0.6815  0.0847  0.0623
 1641TIP3    H126414   3.139   6.605  11.497  2.0145  2.1064  0.6383
 1641TIP3    H226415   3.244   6.598  11.606  0.8600 -2.2000  1.5426
 1642TIP3   OH226416   1.305   4.187   3.193 -0.3013 -0.6918  0.3212
 1642TIP3    H126417   1.362   4.230   3.258 -0.0650 -1.8882  0.9111
 1642TIP3    H226418   1.366   4.152   3.128 -0.3889 -1.5619  0.7040
 1643TIP3   OH226419   2.685   6.317   4.696 -0.2778  0.4252 -0.0861
 1643TIP3    H126420   2.598   6.283   4.717 -1.0483  0.7731 -2.4932
 1643TIP3    H226421   2.675   6.354   4.608  2.3593  0.2958 -0.4696
 1644TIP3   OH226422   3.022   6.083   4.088 -0.2899 -0.2957 -0.0849
 1644TIP3    H126423   2.982   6.124   4.164 -1.3114 -0.9365 -0.2640
 1644TIP3    H226424   3.000   6.141   4.015  2.0892  1.2037  0.3215
 1645TIP3   OH226425   6.729   1.203  11.404 -0.2377  0.6291  0.2165
 1645TIP3    H126426   6.650   1.214  11.457  0.9041 -1.3159  2.4778
 1645TIP3    H226427   6.728   1.110  11.379 -0.2236  1.3022 -2.3325
 1646TIP3   OH226428   0.431   4.095   3.796 -0.3798 -0.3412  0.3668
 1646TIP3    H126429   0.472   4.011   3.813 -0.2682 -0.2517  0.5468
 1646TIP3    H226430   0.419   4.098   3.701  0.0482 -0.3589  0.3136
 1647TIP3   OH226431   4.844   3.073  12.570 -0.4855 -0.4521  0.0363
 1647TIP3    H126432   4.895   3.050  12.492 -2.6881 -0.9161 -1.2893
 1647TIP3    H226433   4.866   3.165  12.586 -0.5891 -0.1269 -1.5810
 1648TIP3   OH226434   1.120   5.300  16.690 -0.4523 -0.2957 -0.1312
 1648TIP3    H126435   1.159   5.329  16.607  0.6947  0.7856  0.7747
 1648TIP3    H226436   1.126   5.204  16.686 -0.5544 -0.2641 -1.3595
 1649TIP3   OH226437   4.066   1.015  17.099 -0.3137  0.1663 -0.0040
 1649TIP3    H126438   4.062   1.052  17.011  1.1783 -1.9975 -1.0312
 1649TIP3    H226439   4.160   1.006  17.117 -0.6305 -1.3408  0.9724
 1650TIP3   OH226440   6.722   3.581   6.387  0.1324  0.3712  0.1749
 1650TIP3    H126441   6.730   3.589   6.482  2.9410 -0.8869  0.1042
 1650TIP3    H226442   6.812   3.590   6.355 -0.4876 -1.3631 -2.1802
 1651TIP3   OH226443   1.806   1.597  13.334 -0.1155  0.6298  0.2827
 1651TIP3    H126444   1.825   1.512  13.294 -0.1749  0.3680  0.8109
 1651TIP3    H226445   1.733   1.580  13.393  0.0947  0.9757  0.6412
 1652TIP3   OH226446   1.776   0.710   2.702  0.0983  0.3453 -0.4817
 1652TIP3    H126447   1.854   0.722   2.648 -0.1664  0.9075 -0.7392
 1652TIP3    H226448   1.763   0.794   2.746  1.1325 -0.5166  1.5659
 1653TIP3   OH226449   3.353   2.409   6.179 -0.6335 -0.5333  0.1214
 1653TIP3    H126450   3.294   2.352   6.229 -0.3924 -0.4841  0.4588
 1653TIP3    H226451   3.425   2.428   6.239 -1.3208  1.1463  0.4391
 1654TIP3   OH226452   0.120   2.628  13.926 -0.0321 -0.0083 -0.3795
 1654TIP3    H126453   0.130   2.636  14.021 -0.4801  1.6494 -0.4417
 1654TIP3    H226454   0.039   2.578  13.915  0.2831 -0.6357  0.1002
 1655TIP3   OH226455   6.458   2.460   2.607  0.6804 -0.3841  0.0408
 1655TIP3    H126456   6.443   2.550   2.576 -0.7828 -0.4809  0.4302
 1655TIP3    H226457   6.540   2.434   2.565  0.8881  0.9818 -0.4315
 1656TIP3   OH226458   3.741   4.570   3.464  0.7639  0.3915  0.3078
 1656TIP3    H126459   3.755   4.541   3.374 -1.8107 -2.0792  0.6090
 1656TIP3    H226460   3.655   4.613   3.462  0.1876 -0.6341  1.7255
 1657TIP3   OH226461   0.584   3.796  15.418 -0.5669 -0.1695 -0.3579
 1657TIP3    H126462   0.592   3.703  15.394  0.5792  0.1556 -1.3373
 1657TIP3    H226463   0.655   3.839  15.369  1.4103  0.6616  3.1016
 1658TIP3   OH226464   4.693   4.940  15.898  0.6021  0.4848 -0.1875
 1658TIP3    H126465   4.711   5.032  15.878  0.8475 -0.0452 -2.6496
 1658TIP3    H226466   4.611   4.921  15.852 -0.2958 -0.1179  1.6257
 1659TIP3   OH226467   1.240   6.808  16.704  0.4806  0.5913 -0.5464
 1659TIP3    H126468   1.234   6.724  16.749 -0.9425  0.6910 -0.5286
 1659TIP3    H226469   1.167   6.808  16.643  1.0038  1.4436 -1.1832
 1660TIP3   OH226470   5.713   4.785  12.721 -0.0353 -0.2069  0.2518
 1660TIP3    H126471   5.642   4.810  12.780 -0.0322  1.8320 -0.5599
 1660TIP3    H226472   5.670   4.765  12.638  0.1686 -0.6900  0.2631
 1661TIP3   OH226473   1.793   6.536   5.385  0.0389  0.2671  0.3261
 1661TIP3    H126474   1.824   6.593   5.455  2.5313 -0.4582 -0.1218
 1661TIP3    H226475   1.870   6.521   5.331 -1.9135  1.1968 -2.8726
 1662TIP3   OH226476   4.133   5.212  14.394  0.1743  0.2949  0.2703
 1662TIP3    H126477   4.041   5.229  14.370  0.3965  1.0958 -0.0221
 1662TIP3    H226478   4.183   5.241  14.318  0.5675 -1.9191 -0.3706
 1663TIP3   OH226479   2.856   5.483   1.053 -0.2325  0.1171  0.0228
 1663TIP3    H126480   2.823   5.394   1.050 -0.9394  0.3284  1.0139
 1663TIP3    H226481   2.783   5.537   1.025  0.4631  0.3371 -1.4240
 1664TIP3   OH226482   0.534   6.082   1.260  0.6450 -0.2568 -0.3616
 1664TIP3    H126483   0.517   6.044   1.347  2.0347 -1.1808 -0.4684
 1664TIP3    H226484   0.551   6.006   1.204 -0.3161  0.3318 -1.4581
 1665TIP3   OH226485   5.692   6.798   5.171 -0.4584 -0.2667  0.1933
 1665TIP3    H126486   5.615   6.771   5.221 -0.1325 -0.2151  0.7251
 1665TIP3    H226487   5.726   6.716   5.135 -0.7704 -0.2884 -0.0519
 1666TIP3   OH226488   4.617   3.126  15.846  0.8294 -0.0196  0.1490
 1666TIP3    H126489   4.572   3.135  15.762  0.1833  0.5993  0.5516
 1666TIP3    H226490   4.705   3.160  15.830 -0.4380  3.7715  0.6774
 1667TIP3   OH226491   3.446   1.790   0.716  0.4997  0.0692  0.2023
 1667TIP3    H126492   3.520   1.823   0.664  0.8584 -0.6507  0.2468
 1667TIP3    H226493   3.469   1.699   0.734  0.0448  0.1169  1.0297
 1668TIP3   OH226494   1.823   1.461  15.983  0.4980 -0.0351 -0.1557
 1668TIP3    H126495   1.819   1.551  16.016  0.6635 -0.0668 -0.0472
 1668TIP3    H226496   1.743   1.420  16.016  0.5714 -0.0140  0.0497
 1669TIP3   OH226497   1.710   5.530   2.149  0.0286  0.3798 -0.4734
 1669TIP3    H126498   1.677   5.579   2.224 -0.7020 -0.9150  0.0794
 1669TIP3    H226499   1.794   5.495   2.179 -0.2428 -0.1010 -0.2621
 1670TIP3   OH226500   4.896   4.409   5.596 -0.0731  0.6377 -0.2338
 1670TIP3    H126501   4.895   4.339   5.661  1.1471  1.8187  1.0725
 1670TIP3    H226502   4.822   4.465   5.620  0.3013  1.0048  0.0695
 1671TIP3   OH226503   2.054   1.558  16.232 -0.3285 -0.2898 -0.1171
 1671TIP3    H126504   2.049   1.593  16.321 -0.2590  0.3142 -0.3476
 1671TIP3    H226505   1.970   1.581  16.193  0.0562  0.3915 -0.5503
 1672TIP3   OH226506   3.934   5.874  13.774  0.5572  0.2468  0.1933
 1672TIP3    H126507   3.847   5.850  13.804  0.4105 -0.9847 -1.2104
 1672TIP3    H226508   3.922   5.958  13.730 -0.2855 -0.8533 -1.7300
 1673TIP3   OH226509   5.931   0.757  10.858  0.6959  0.3470 -0.1972
 1673TIP3    H126510   5.958   0.724  10.771  1.2614  0.1734  0.0371
 1673TIP3    H226511   5.995   0.824  10.879  0.0539  0.9893 -0.2846
 1674TIP3   OH226512   6.091   5.197  11.665  0.5256 -0.5648 -0.2129
 1674TIP3    H126513   6.139   5.271  11.701  0.9441 -0.8471 -0.1952
 1674TIP3    H226514   5.999   5.225  11.668  0.6490 -0.1945  0.1342
 1675TIP3   OH226515   4.579   0.916   5.049  0.0128  0.0072  0.1825
 1675TIP3    H126516   4.520   0.924   5.124  0.7715 -1.0201  0.9053
 1675TIP3    H226517   4.580   0.823   5.029 -0.1736  0.2783 -1.1080
 1676TIP3   OH226518   6.639   0.512   0.968 -0.0146 -0.4328  0.1273
 1676TIP3    H126519   6.735   0.508   0.972 -0.0625 -1.8362  0.0993
 1676TIP3    H226520   6.620   0.526   0.876  0.2012  1.9385  0.3964
 1677TIP3   OH226521   0.651   0.723   0.709 -0.1156 -0.2919  0.4832
 1677TIP3    H126522   0.681   0.757   0.793 -0.1622  0.2532  0.2752
 1677TIP3    H226523   0.555   0.724   0.716 -0.1154 -0.4985  0.5240
 1678TIP3   OH226524   2.888   5.115   1.316 -0.0492  0.0114 -0.3376
 1678TIP3    H126525   2.955   5.081   1.256  0.6372  0.3481  0.2463
 1678TIP3    H226526   2.924   5.100   1.403 -0.9029 -0.1577 -0.0096
 1679TIP3   OH226527   4.350   3.578   1.100 -0.2488  0.6617 -0.7396
 1679TIP3    H126528   4.309   3.578   1.186 -0.7604 -1.8330 -0.9302
 1679TIP3    H226529   4.367   3.670   1.081  0.3644  1.2306  2.2396
 1680TIP3   OH226530   3.914   0.560  14.826 -0.4876 -0.5818 -0.1666
 1680TIP3    H126531   3.877   0.585  14.741  0.1623 -1.6148 -0.7670
 1680TIP3    H226532   3.920   0.465  14.822  0.7698 -0.5351  0.5475
 1681TIP3   OH226533   2.266   1.881   2.082 -0.7657  0.4302 -0.0972
 1681TIP3    H126534   2.316   1.959   2.060  1.2151 -1.2524 -1.7818
 1681TIP3    H226535   2.311   1.845   2.159  0.7932 -1.1959 -1.7373
 1682TIP3   OH226536   4.011   3.578  13.422 -0.7482  0.4003 -0.6829
 1682TIP3    H126537   3.940   3.606  13.481 -1.1793 -0.8411 -0.6017
 1682TIP3    H226538   3.967   3.561  13.339 -0.4503  0.2034 -0.7980
 1683TIP3   OH226539   4.372   1.999  11.947 -0.1365  0.8972 -0.6990
 1683TIP3    H126540   4.387   1.938  12.019  1.5191  0.4203 -1.4216
 1683TIP3    H226541   4.399   2.084  11.981  1.0476  0.6025 -0.8745
 1684TIP3   OH226542   2.550   0.757   3.375 -0.1642 -0.3430 -0.6190
 1684TIP3    H126543   2.519   0.846   3.362  0.0038  0.0087  1.3221
 1684TIP3    H226544   2.601   0.738   3.297 -1.2595  0.7940 -1.6310
 1685TIP3   OH226545   6.754   3.196  15.292 -0.3806 -0.0307 -0.5756
 1685TIP3    H126546   6.739   3.270  15.234 -2.8602 -1.4933 -1.8603
 1685TIP3    H226547   6.667   3.164  15.314  0.5689 -0.6917  2.4580
 1686TIP3   OH226548   5.405   2.707  10.690 -0.7354 -0.6228 -0.0064
 1686TIP3    H126549   5.409   2.795  10.652  1.2813 -0.6322  0.1632
 1686TIP3    H226550   5.400   2.722  10.784  3.1708 -0.6932  0.2741
 1687TIP3   OH226551   3.144   2.276   3.505 -0.2282 -0.5164 -0.2411
 1687TIP3    H126552   3.098   2.341   3.452 -1.4270 -0.9047  0.3090
 1687TIP3    H226553   3.189   2.220   3.441 -0.9010 -0.4148 -0.8008
 1688TIP3   OH226554   1.937   3.069  10.660 -0.0329 -0.1134 -0.3569
 1688TIP3    H126555   1.974   3.066  10.572  0.5417 -2.0943 -0.0757
 1688TIP3    H226556   1.948   2.980  10.694 -1.5366  0.2599  1.1926
 1689TIP3   OH226557   3.890   3.817  15.723 -0.0324  0.7193 -0.2825
 1689TIP3    H126558   3.969   3.804  15.774 -0.4354 -0.2032  0.1142
 1689TIP3    H226559   3.882   3.738  15.670 -1.1556  0.4266  0.3084
 1690TIP3   OH226560   2.669   2.834  12.198 -0.0602  0.1502 -0.3350
 1690TIP3    H126561   2.760   2.807  12.188 -0.1089 -0.4105  0.7260
 1690TIP3    H226562   2.641   2.857  12.109  1.3716  1.1783 -0.5249
 1691TIP3   OH226563   6.222   3.223   0.479  0.6991  0.5175  0.2580
 1691TIP3    H126564   6.167   3.252   0.406 -0.9089  1.6234  1.8579
 1691TIP3    H226565   6.196   3.133   0.495 -0.3109  0.8660  0.6533
 1692TIP3   OH226566   4.175   0.691  13.644 -0.1988  0.3706 -0.2424
 1692TIP3    H126567   4.251   0.676  13.587 -0.7594 -0.5278 -0.7598
 1692TIP3    H226568   4.211   0.740  13.718  0.8530  0.1452 -0.5872
 1693TIP3   OH226569   2.764   0.740  12.195  0.1127  0.4212 -0.2590
 1693TIP3    H126570   2.802   0.802  12.259 -1.2314 -0.1079  1.0787
 1693TIP3    H226571   2.833   0.729  12.130  0.2115  3.7110 -0.8062
 1694TIP3   OH226572   3.365   3.149  12.052 -0.2578  0.2958 -0.3266
 1694TIP3    H126573   3.323   3.216  12.105  0.2200 -0.9151  1.6373
 1694TIP3    H226574   3.452   3.183  12.034  0.3519 -0.2607  1.5620
 1695TIP3   OH226575   0.498   2.422  11.134 -0.6348 -0.6532 -0.2171
 1695TIP3    H126576   0.577   2.372  11.113 -0.4728 -0.2025 -0.7065
 1695TIP3    H226577   0.526   2.482  11.204  0.3997  1.8656 -2.6725
 1696TIP3   OH226578   4.185   3.658   2.085 -0.0121 -0.1768  0.4802
 1696TIP3    H126579   4.093   3.674   2.062 -0.1527 -1.1232  0.3329
 1696TIP3    H226580   4.213   3.737   2.131 -0.9236  0.0931  0.5813
 1697TIP3   OH226581   6.278   5.136  16.457  0.2739  0.5770  0.2149
 1697TIP3    H126582   6.270   5.065  16.521  0.0707  1.5725  1.3043
 1697TIP3    H226583   6.267   5.093  16.372 -0.3504 -0.6125  0.8890
 1698TIP3   OH226584   6.268   5.442   1.015 -0.0312 -0.2561 -0.1761
 1698TIP3    H126585   6.299   5.446   0.924  0.6990  0.6289  0.1041
 1698TIP3    H226586   6.196   5.379   1.013 -0.3824  0.1649 -1.4834
 1699TIP3   OH226587   3.929   0.289  14.787 -0.1069 -0.3778 -0.5586
 1699TIP3    H126588   4.005   0.269  14.732  1.2574 -1.0669  1.5267
 1699TIP3    H226589   3.913   0.208  14.836  1.1234  1.3598  2.8707
 1700TIP3   OH226590   3.433   5.054  16.901 -0.3777  0.1527  0.5239
 1700TIP3    H126591   3.431   5.149  16.913  0.2763  0.2209  0.1269
 1700TIP3    H226592   3.517   5.037  16.858 -0.7238 -0.5491  0.1152
 1701TIP3   OH226593   6.231   5.630   3.697 -0.1929  0.0987 -0.3769
 1701TIP3    H126594   6.219   5.590   3.611 -2.3635 -0.5958  0.2039
 1701TIP3    H226595   6.144   5.625   3.738  0.6719  0.9181  1.6373
 1702TIP3   OH226596   3.243   5.471   0.320  0.0226  0.7466 -0.1295
 1702TIP3    H126597   3.169   5.505   0.371  0.8076  1.0708  0.8121
 1702TIP3    H226598   3.250   5.379   0.346 -0.2510  0.6299 -0.4639
 1703TIP3   OH226599   1.984   2.994  16.971  0.1570  0.6688  0.2891
 1703TIP3    H126600   1.939   3.042  17.041 -0.2220  1.5194 -0.5191
 1703TIP3    H226601   1.923   2.998  16.897  0.5157 -0.2957 -0.0633
 1704TIP3   OH226602   3.612   6.201  16.649  0.0413  0.1191 -0.0072
 1704TIP3    H126603   3.705   6.220  16.650  0.1649 -0.3812 -0.9952
 1704TIP3    H226604   3.572   6.276  16.604  0.2020 -0.5799 -1.3446
 1705TIP3   OH226605   2.072   6.699   0.635  0.4651  0.3509  0.6646
 1705TIP3    H126606   2.045   6.787   0.662 -0.3544  0.2885  0.0693
 1705TIP3    H226607   2.104   6.709   0.546 -0.1982 -0.0418  0.3713
 1706TIP3   OH226608   4.706   2.817   1.622  0.9220  0.2881  0.4603
 1706TIP3    H126609   4.611   2.816   1.615  0.8162  0.6701  1.6725
 1706TIP3    H226610   4.737   2.830   1.533 -0.1569 -0.0594  0.0321
 1707TIP3   OH226611   6.108   4.055  10.640  0.1495 -0.0544  0.2058
 1707TIP3    H126612   6.173   4.053  10.569 -0.3895  0.5460 -0.3140
 1707TIP3    H226613   6.155   4.022  10.716  1.1685  0.6908 -0.0868
 1708TIP3   OH226614   1.151   0.393   6.846 -0.9262  0.1102 -0.8359
 1708TIP3    H126615   1.071   0.356   6.884 -0.1892  0.4837  1.1283
 1708TIP3    H226616   1.150   0.364   6.754 -2.3875 -1.4000 -0.3617
 1709TIP3   OH226617   5.261   1.791   4.291 -0.5021  0.2940 -0.4482
 1709TIP3    H126618   5.256   1.754   4.379 -1.0737 -1.1307 -1.0697
 1709TIP3    H226619   5.170   1.814   4.269 -0.8828 -2.4435 -1.9491
 1710TIP3   OH226620   1.848   5.599  16.465  0.4771  0.3181 -0.0687
 1710TIP3    H126621   1.774   5.649  16.499 -0.6312 -0.5312 -1.2534
 1710TIP3    H226622   1.924   5.656  16.482 -0.4797  1.3836  0.7214
 1711TIP3   OH226623   4.665   6.288   1.316  0.3705 -0.1592  0.3553
 1711TIP3    H126624   4.673   6.358   1.252  0.8440 -2.5265 -2.2837
 1711TIP3    H226625   4.740   6.299   1.374  1.6089  0.2998 -1.3053
 1712TIP3   OH226626   2.189   2.403  12.194  0.1597  0.0714  0.0430
 1712TIP3    H126627   2.198   2.375  12.103  0.5619 -0.7757  0.3331
 1712TIP3    H226628   2.096   2.419  12.206  0.2932  1.6385 -0.9289
 1713TIP3   OH226629   0.144   4.233   0.777  0.6554  0.2439 -0.2103
 1713TIP3    H126630   0.112   4.292   0.845 -0.3251  0.1386 -0.5753
 1713TIP3    H226631   0.162   4.289   0.702 -0.3675  0.0670 -0.5886
 1714TIP3   OH226632   6.440   2.521   4.867 -0.4815  0.5990  0.0752
 1714TIP3    H126633   6.477   2.558   4.947 -0.6839 -1.4329  1.1505
 1714TIP3    H226634   6.382   2.589   4.834 -0.9724  1.1924  2.0750
 1715TIP3   OH226635   1.284   4.295   3.972  0.4195  0.0731  0.5445
 1715TIP3    H126636   1.373   4.272   3.999  0.7884  0.4989 -0.2697
 1715TIP3    H226637   1.228   4.262   4.042  1.5237  3.4511  3.1297
 1716TIP3   OH226638   2.475   6.246  16.497  0.3056  0.0744 -0.2341
 1716TIP3    H126639   2.518   6.160  16.498 -1.2243 -0.7311  2.5419
 1716TIP3    H226640   2.403   6.235  16.434 -0.5306 -1.0434  0.8880
 1717TIP3   OH226641   1.883   0.987  14.992  0.7959 -0.3527 -0.2107
 1717TIP3    H126642   1.798   0.991  14.949  1.1630  2.2093 -0.7652
 1717TIP3    H226643   1.936   0.930  14.936  1.2902  2.9797 -3.3368
 1718TIP3   OH226644   0.901   3.987  14.241  0.1619  0.2470  0.2245
 1718TIP3    H126645   0.822   4.027  14.277 -0.1759  0.2139 -0.4649
 1718TIP3    H226646   0.964   3.988  14.313 -0.7593 -0.5405  1.0532
 1719TIP3   OH226647   4.984   2.062  15.344  0.3977  0.0113 -1.1157
 1719TIP3    H126648   5.039   2.114  15.403  1.2785 -0.2452 -1.6982
 1719TIP3    H226649   4.908   2.118  15.327  0.2374  0.1731  0.0820
 1720TIP3   OH226650   2.912   3.493  14.061 -0.5186 -0.1929 -0.2211
 1720TIP3    H126651   2.880   3.512  14.149 -2.8478 -2.5210 -0.4994
 1720TIP3    H226652   2.994   3.445  14.075  0.4003  1.5624  0.5891
 1721TIP3   OH226653   5.215   0.307   1.169 -0.2182  0.9624  0.9452
 1721TIP3    H126654   5.151   0.351   1.224  0.6032  0.8759  1.9813
 1721TIP3    H226655   5.295   0.306   1.221 -0.2985 -2.0765  1.1081
 1722TIP3   OH226656   3.036   6.791  13.996 -0.5067  0.6561 -0.6496
 1722TIP3    H126657   3.085   6.746  14.065 -0.6092  1.3895 -0.0916
 1722TIP3    H226658   3.102   6.815  13.931 -0.5357 -0.8381 -1.2601
 1723TIP3   OH226659   2.967   5.503   2.327  0.4309 -0.5131  0.2900
 1723TIP3    H126660   2.972   5.576   2.389 -0.0184  0.2399 -0.5600
 1723TIP3    H226661   3.034   5.522   2.262 -1.3949  0.4683 -1.3430
 1724TIP3   OH226662   1.292   3.264  13.105  0.2891 -0.2810  0.2681
 1724TIP3    H126663   1.285   3.342  13.051 -0.0536  0.0211  0.7365
 1724TIP3    H226664   1.338   3.293  13.184 -0.6580 -0.3171  0.8540
 1725TIP3   OH226665   6.804   2.273  13.627  0.3812 -0.7196 -0.0965
 1725TIP3    H126666   6.851   2.203  13.672 -1.3790 -1.6157  0.3707
 1725TIP3    H226667   6.731   2.295  13.685  0.2797  0.7650 -0.7447
 1726TIP3   OH226668   0.491   1.261  14.703  0.1330 -0.2897  0.3857
 1726TIP3    H126669   0.418   1.321  14.716 -0.9956 -1.1509 -1.6854
 1726TIP3    H226670   0.529   1.288  14.619  1.4432 -0.6278  0.8526
 1727TIP3   OH226671   1.568   5.264   2.089  0.1235 -0.6119 -0.2790
 1727TIP3    H126672   1.632   5.265   2.160 -0.6224 -2.6331  0.4552
 1727TIP3    H226673   1.601   5.200   2.027  0.3242  0.5134 -1.3651
 1728TIP3   OH226674   4.867   0.265  15.947 -0.0575 -0.1315  0.2716
 1728TIP3    H126675   4.888   0.178  15.913  0.5165 -0.4254  1.3546
 1728TIP3    H226676   4.939   0.321  15.919 -0.0878 -0.1531  0.1521
 1729TIP3   OH226677   4.612   2.416  11.397  0.2199  0.0704  0.2393
 1729TIP3    H126678   4.551   2.487  11.380 -0.3610 -1.0763 -2.8564
 1729TIP3    H226679   4.697   2.459  11.407 -0.3339  1.3250 -0.3521
 1730TIP3   OH226680   4.517   4.466   2.633 -0.6798 -0.3059  0.1777
 1730TIP3    H126681   4.604   4.503   2.643 -0.4515 -0.5401 -0.9044
 1730TIP3    H226682   4.466   4.503   2.705 -0.6839  2.7242 -1.3140
 1731TIP3   OH226683   5.719   4.461  14.814  0.4864 -0.1437 -0.3756
 1731TIP3    H126684   5.810   4.440  14.795  0.9621  0.4507  1.2292
 1731TIP3    H226685   5.709   4.553  14.786  0.0370 -0.5686 -1.6764
 1732TIP3   OH226686   1.081   1.810   2.205  0.3232  0.0099 -0.9948
 1732TIP3    H126687   1.108   1.824   2.115  0.7168  1.8917 -0.6022
 1732TIP3    H226688   1.114   1.886   2.253  0.1473 -0.9672  0.7452
 1733TIP3   OH226689   1.457   6.522  13.967 -0.1250 -0.2245 -0.2515
 1733TIP3    H126690   1.503   6.446  13.932  0.8286 -0.2388  0.9792
 1733TIP3    H226691   1.527   6.586  13.983 -0.6236  0.0421  0.9097
 1734TIP3   OH226692   1.191   5.577  13.966 -0.3145  0.1662  0.1267
 1734TIP3    H126693   1.205   5.601  13.874  2.7596 -2.8164 -0.2692
 1734TIP3    H226694   1.224   5.652  14.016 -0.0106  0.9036 -1.1599
 1735TIP3   OH226695   0.677   4.461   3.056 -0.1127 -0.1366  0.0623
 1735TIP3    H126696   0.713   4.373   3.064 -1.1527 -0.5425  0.4321
 1735TIP3    H226697   0.718   4.510   3.126 -0.2640 -0.5908  0.4732
 1736TIP3   OH226698   2.016   5.684  10.958 -0.8321  0.6161  0.3363
 1736TIP3    H126699   2.037   5.598  10.923  0.6148  0.4110  1.6735
 1736TIP3    H226700   1.954   5.667  11.029  0.6286  0.5071  1.6218
 1737TIP3   OH226701   3.041   3.529  10.994 -0.1355 -0.2843 -0.3957
 1737TIP3    H126702   3.050   3.544  11.088  0.2105  1.6285 -0.7203
 1737TIP3    H226703   3.021   3.615  10.957  0.8663 -0.7927 -2.1978
 1738TIP3   OH226704   1.023   0.477   2.187  0.4817 -0.0304  0.5367
 1738TIP3    H126705   1.076   0.407   2.149 -0.0794  0.1940 -0.6711
 1738TIP3    H226706   1.084   0.526   2.242  1.2074 -0.5902  0.2378
 1739TIP3   OH226707   0.899   5.457   6.064  0.2068  0.1546 -0.5111
 1739TIP3    H126708   0.886   5.379   6.118 -1.3277 -0.0630 -1.1676
 1739TIP3    H226709   0.989   5.484   6.082  0.4457 -1.2211  0.4334
 1740TIP3   OH226710   2.547   3.553  14.169 -0.1401 -0.2656  0.4116
 1740TIP3    H126711   2.575   3.483  14.110  0.1590 -0.1528  0.4217
 1740TIP3    H226712   2.628   3.588  14.205 -0.3296 -0.4319  1.0051
 1741TIP3   OH226713   4.500   2.237  16.202  0.7411 -0.8329  0.8180
 1741TIP3    H126714   4.587   2.239  16.241  0.6504 -0.9466  1.0310
 1741TIP3    H226715   4.476   2.144  16.202 -0.0954 -0.6278  2.3598
 1742TIP3   OH226716   1.239   1.460  12.176 -0.2013 -0.6798 -0.5386
 1742TIP3    H126717   1.259   1.522  12.246 -0.4894 -1.5544  0.3265
 1742TIP3    H226718   1.271   1.503  12.097 -0.1531  0.4585  0.0784
 1743TIP3   OH226719   6.327   2.031  15.182  0.3713 -0.2452  0.3269
 1743TIP3    H126720   6.343   1.937  15.182  0.5818 -0.2429 -2.0700
 1743TIP3    H226721   6.411   2.069  15.208  0.8424 -0.6639 -0.5650
 1744TIP3   OH226722   0.784   0.394   1.397 -0.3816  0.0695  0.0865
 1744TIP3    H126723   0.691   0.415   1.404 -0.2455  1.1605 -1.2838
 1744TIP3    H226724   0.787   0.303   1.368 -1.0324  0.3129 -0.7531
 1745TIP3   OH226725   2.336   4.797  16.330 -0.0235 -0.4102 -0.2864
 1745TIP3    H126726   2.393   4.721  16.334  0.6166  0.1108  0.6778
 1745TIP3    H226727   2.372   4.858  16.394 -1.0317  0.3602 -0.4318
 1746TIP3   OH226728   1.596   3.986   1.721 -0.0562 -0.1226  0.1233
 1746TIP3    H126729   1.660   4.034   1.774  0.1299 -1.5621  1.2366
 1746TIP3    H226730   1.516   3.987   1.774 -0.7445  0.9716 -0.9063
 1747TIP3   OH226731   0.496   6.675  15.652 -0.1460  0.2030 -0.7483
 1747TIP3    H126732   0.459   6.595  15.613  0.1366 -0.5181  0.4511
 1747TIP3    H226733   0.423   6.712  15.703  0.8424 -1.4681  2.0059
 1748TIP3   OH226734   5.868   6.687  14.866  0.2620 -0.2172 -0.1071
 1748TIP3    H126735   5.845   6.648  14.950  0.8287 -0.4491 -0.0570
 1748TIP3    H226736   5.873   6.781  14.884  1.0117 -0.3252  0.2662
 1749TIP3   OH226737   4.968   4.548   0.764 -0.2101 -0.0335  0.0643
 1749TIP3    H126738   4.882   4.577   0.736  0.2126  1.9159  0.6913
 1749TIP3    H226739   5.029   4.612   0.726  0.8749 -0.8597  0.3773
 1750TIP3   OH226740   4.885   1.931   5.377  0.3962  0.5377 -0.2979
 1750TIP3    H126741   4.979   1.941   5.359  0.4687  0.0248 -0.2239
 1750TIP3    H226742   4.859   1.856   5.324 -0.8674  3.0878 -3.4402
 1751TIP3   OH226743   1.107   2.123  15.282  0.0669 -0.3786  0.1502
 1751TIP3    H126744   1.151   2.208  15.277 -0.1166 -0.3546 -1.2106
 1751TIP3    H226745   1.146   2.071  15.212 -0.6502 -1.0218  0.2175
 1752TIP3   OH226746   4.269   3.094  14.142  0.3163 -0.3271  0.3992
 1752TIP3    H126747   4.188   3.045  14.126  0.1579  0.3668 -0.9998
 1752TIP3    H226748   4.241   3.171  14.191  0.1789 -0.2938  0.2706
 1753TIP3   OH226749   1.668   2.781   6.610  0.1058  0.0678 -0.6695
 1753TIP3    H126750   1.728   2.717   6.571  0.3837  1.4735 -2.5698
 1753TIP3    H226751   1.700   2.866   6.581 -1.0953  1.0171  0.6879
 1754TIP3   OH226752   3.027   1.409  13.634  0.0609  0.5958 -0.4655
 1754TIP3    H126753   3.031   1.361  13.716  2.6501 -0.6063 -1.2449
 1754TIP3    H226754   3.017   1.501  13.660  0.2210  0.1709  1.1445
 1755TIP3   OH226755   3.873   0.894   2.877 -0.2138  0.4464 -0.1294
 1755TIP3    H126756   3.926   0.840   2.935 -1.9399 -0.5576  0.5517
 1755TIP3    H226757   3.920   0.893   2.794  1.7881  1.1209  0.9783
 1756TIP3   OH226758   6.264   2.526  17.287  0.0450 -0.4046  0.8266
 1756TIP3    H126759   6.313   2.606  17.266  0.8662 -1.0864  0.0965
 1756TIP3    H226760   6.245   2.486  17.202 -1.4162 -0.3795  1.1336
 1757TIP3   OH226761   1.621   0.943   0.295 -0.7128 -0.3648  0.2474
 1757TIP3    H126762   1.715   0.929   0.312 -0.8860 -1.9250  0.0362
 1757TIP3    H226763   1.596   1.013   0.355  0.6440  0.2327  0.1350
 1758TIP3   OH226764   3.195   6.577   3.693  0.2180 -0.5491 -0.0825
 1758TIP3    H126765   3.244   6.517   3.749  2.4194  0.1501 -1.2059
 1758TIP3    H226766   3.261   6.638   3.660 -1.5901  1.0643 -0.8228
 1759TIP3   OH226767   2.238   5.457   4.771 -0.5571  0.5323 -0.5017
 1759TIP3    H126768   2.285   5.528   4.728 -1.6344  0.6029 -1.5740
 1759TIP3    H226769   2.146   5.486   4.772 -0.9689 -0.7543 -0.7635
 1760TIP3   OH226770   0.629   1.356  15.201  0.1232  0.1446  0.2636
 1760TIP3    H126771   0.690   1.288  15.173 -1.0972 -0.2053 -1.7236
 1760TIP3    H226772   0.551   1.341  15.147 -1.3128  1.2249  1.9802
 1761TIP3   OH226773   0.232   5.564   1.936 -0.7756 -0.5358 -0.0007
 1761TIP3    H126774   0.252   5.488   1.991 -3.1147 -0.0509  1.5711
 1761TIP3    H226775   0.271   5.638   1.982  0.4160 -0.5983 -0.8901
 1762TIP3   OH226776   3.193   0.547  13.702  0.6994 -0.2418 -0.0916
 1762TIP3    H126777   3.143   0.609  13.649 -0.0690  0.9888  1.9838
 1762TIP3    H226778   3.224   0.481  13.640 -1.0409  0.5711 -1.8745
 1763TIP3   OH226779   1.715   2.802  11.994  0.2968  0.7521 -0.1853
 1763TIP3    H126780   1.796   2.775  12.039 -0.2361 -2.1616 -0.8747
 1763TIP3    H226781   1.671   2.859  12.058  1.4827 -0.0327  1.3857
 1764TIP3   OH226782   3.845   2.647  16.934 -0.0009  0.7450 -0.0245
 1764TIP3    H126783   3.926   2.677  16.893 -0.3866 -0.9639 -2.1252
 1764TIP3    H226784   3.782   2.641  16.862 -0.9996 -1.3086  0.9806
 1765TIP3   OH226785   5.786   2.552  10.796 -0.3591  0.3331  0.6764
 1765TIP3    H126786   5.878   2.576  10.787  0.0962 -1.4929  0.3147
 1765TIP3    H226787   5.745   2.585  10.717  0.1145  0.5438  0.5160
 1766TIP3   OH226788   5.141   5.380  13.485  0.1278 -0.0684  0.1287
 1766TIP3    H126789   5.101   5.467  13.475 -0.4428 -0.2417  0.8378
 1766TIP3    H226790   5.078   5.331  13.537  0.2661 -1.0390 -0.6078
 1767TIP3   OH226791   4.657   3.404  12.351 -0.3457  0.0066  0.2875
 1767TIP3    H126792   4.635   3.390  12.443  0.0552  0.8830  0.5229
 1767TIP3    H226793   4.737   3.353  12.338 -0.1816  0.2058  0.5246
 1768TIP3   OH226794   5.615   0.786  12.713  0.1955  0.6538 -0.1896
 1768TIP3    H126795   5.663   0.805  12.633 -0.1960  1.7891 -0.1561
 1768TIP3    H226796   5.555   0.715  12.689 -0.6787  1.7206 -1.1810
 1769TIP3   OH226797   5.504   5.897  11.341 -0.2549  0.3069 -0.0526
 1769TIP3    H126798   5.457   5.821  11.376  0.5321 -0.7763 -1.3132
 1769TIP3    H226799   5.533   5.869  11.254  0.4545  1.8887 -0.3332
 1770TIP3   OH226800   1.036   5.932   3.336  0.4095 -0.1478 -0.8967
 1770TIP3    H126801   1.069   6.006   3.388  1.3443 -0.3899 -1.1276
 1770TIP3    H226802   0.941   5.936   3.345  0.5185  0.3490  0.1034
 1771TIP3   OH226803   4.299   5.882   4.107  0.1781 -0.1435  0.4224
 1771TIP3    H126804   4.267   5.805   4.153  3.2054 -0.9099  1.3475
 1771TIP3    H226805   4.394   5.881   4.121  0.2849  3.8924  0.7349
 1772TIP3   OH226806   2.767   3.169   2.794 -0.3442 -0.3510  0.0983
 1772TIP3    H126807   2.793   3.239   2.855  1.8248 -0.2641 -0.8899
 1772TIP3    H226808   2.763   3.212   2.709  0.1221 -1.2565 -0.3802
 1773TIP3   OH226809   4.090   2.777   2.830 -0.3064  0.7899  0.2957
 1773TIP3    H126810   4.176   2.819   2.832 -0.6940  1.5988  0.1786
 1773TIP3    H226811   4.036   2.835   2.776 -1.0356  0.4996  0.7016
 1774TIP3   OH226812   5.498   5.331   2.496 -0.4505 -0.0255 -0.3175
 1774TIP3    H126813   5.432   5.378   2.444 -0.2741 -0.9908 -1.4502
 1774TIP3    H226814   5.449   5.295   2.570 -1.1525 -0.5019 -1.0038
 1775TIP3   OH226815   6.213   0.606  11.439  0.0650  0.4676  0.1499
 1775TIP3    H126816   6.117   0.596  11.444 -0.0259  1.4240  0.4365
 1775TIP3    H226817   6.230   0.690  11.481  1.0042  0.4701 -0.2345
 1776TIP3   OH226818   6.635   1.623   4.771  0.1366 -0.3349 -0.1461
 1776TIP3    H126819   6.724   1.590   4.761  0.2106 -0.2405  0.1792
 1776TIP3    H226820   6.643   1.717   4.759 -0.0642 -0.4268 -1.0150
 1777TIP3   OH226821   5.456   0.313   1.315 -0.0095  0.4886  0.0685
 1777TIP3    H126822   5.442   0.221   1.336  1.1038  0.5068  0.9161
 1777TIP3    H226823   5.414   0.361   1.386 -0.9634  0.6553 -0.5938
 1778TIP3   OH226824   4.999   3.293   3.995  1.1242  0.1721 -0.1456
 1778TIP3    H126825   4.956   3.364   3.949  0.8179  0.2334  0.2399
 1778TIP3    H226826   5.089   3.323   4.007  0.9252  0.6046  0.2598
 1779TIP3   OH226827   0.206   3.073  11.966  0.3616 -0.1630  0.4335
 1779TIP3    H126828   0.282   3.057  11.910  0.7082 -1.9554  1.3626
 1779TIP3    H226829   0.177   3.161  11.943  0.8312 -0.6412 -2.1467
 1780TIP3   OH226830   3.454   2.409  10.790  0.1851 -0.2722 -0.0704
 1780TIP3    H126831   3.358   2.400  10.789  0.0970  0.6149  0.5950
 1780TIP3    H226832   3.481   2.384  10.702 -0.5033 -2.2526  0.2417
 1781TIP3   OH226833   1.565   1.305   2.550 -0.2329  0.7659  0.1666
 1781TIP3    H126834   1.553   1.242   2.479  0.0494  1.6600 -0.6926
 1781TIP3    H226835   1.483   1.354   2.553 -0.5557  0.1582  1.0198
 1782TIP3   OH226836   1.414   1.240   4.972  0.3045  0.2052  0.3686
 1782TIP3    H126837   1.320   1.246   4.991  0.1213 -1.5346  0.1113
 1782TIP3    H226838   1.456   1.252   5.057 -0.1627  0.7167  0.5288
 1783TIP3   OH226839   1.152   0.892  16.592  0.1115 -0.0981 -0.4353
 1783TIP3    H126840   1.153   0.833  16.667 -0.5683 -0.4833 -0.7213
 1783TIP3    H226841   1.235   0.876  16.547  0.0994 -0.5627 -0.2959
 1784TIP3   OH226842   3.424   6.404   0.940 -0.3205 -0.0333  0.1374
 1784TIP3    H126843   3.458   6.487   0.906  1.5817 -0.4522  1.0061
 1784TIP3    H226844   3.458   6.337   0.881 -0.5299 -0.3621  0.3854
 1785TIP3   OH226845   3.072   1.672   0.925 -0.2339  0.3064 -0.4043
 1785TIP3    H126846   3.097   1.724   0.848 -0.8887  0.4225 -0.5445
 1785TIP3    H226847   3.144   1.610   0.936  0.4396  1.0786 -0.3821
 1786TIP3   OH226848   5.839   2.772   2.781 -0.0980 -0.0441 -0.3777
 1786TIP3    H126849   5.912   2.730   2.826 -0.8544 -0.8766  0.1000
 1786TIP3    H226850   5.788   2.699   2.744 -0.5015  0.5380 -0.9849
 1787TIP3   OH226851   6.285   4.278  14.960  0.4103  0.2297 -0.2850
 1787TIP3    H126852   6.375   4.249  14.974  0.3064  0.1113  0.1435
 1787TIP3    H226853   6.274   4.277  14.865  0.9295  0.4561 -0.3514
 1788TIP3   OH226854   5.696   2.964  14.938 -0.0136  0.3766  0.0246
 1788TIP3    H126855   5.760   3.035  14.931  2.4966 -1.8828 -0.9831
 1788TIP3    H226856   5.662   2.954  14.849 -1.1152  0.9939  0.3757
 1789TIP3   OH226857   1.417   6.362   5.196 -0.0286  0.4144 -0.2524
 1789TIP3    H126858   1.349   6.420   5.230 -1.1857 -0.6234 -0.7323
 1789TIP3    H226859   1.390   6.343   5.106  0.2812 -0.9119 -0.0836
 1790TIP3   OH226860   6.602   2.956  15.640  0.5976  0.0600  0.2199
 1790TIP3    H126861   6.545   2.909  15.580 -1.0971  1.2233  0.8623
 1790TIP3    H226862   6.679   2.978  15.588  1.0247 -2.6332 -0.3089
 1791TIP3   OH226863   2.226   2.319   3.369  0.6517 -0.0262  0.2846
 1791TIP3    H126864   2.151   2.307   3.311  1.0394 -0.7408 -0.0770
 1791TIP3    H226865   2.215   2.253   3.437  0.9643 -0.1472  0.2196
 1792TIP3   OH226866   6.622   2.231  13.194 -0.2865 -0.1534 -0.0390
 1792TIP3    H126867   6.537   2.202  13.226  0.8601 -2.0646  1.3714
 1792TIP3    H226868   6.612   2.325  13.181 -2.0564 -0.0284  1.9484
 1793TIP3   OH226869   2.940   2.696  15.534 -0.2599 -0.2583  0.1555
 1793TIP3    H126870   2.922   2.758  15.605  2.9910  1.1367 -0.1901
 1793TIP3    H226871   2.890   2.731  15.460  0.6789  1.3489  0.2610
 1794TIP3   OH226872   3.955   3.704   3.035  0.1893  0.0956 -0.4117
 1794TIP3    H126873   3.948   3.799   3.026 -2.9164 -0.1711 -1.2701
 1794TIP3    H226874   3.901   3.683   3.112  1.3778 -0.9230  0.1610
 1795TIP3   OH226875   5.390   2.567  13.817  1.0403  0.3708  0.1017
 1795TIP3    H126876   5.325   2.575  13.747  1.2389  1.8122  0.0735
 1795TIP3    H226877   5.348   2.608  13.893  0.8930 -1.0333  0.8008
 1796TIP3   OH226878   3.038   5.567  13.824  0.2799  0.5198 -0.1862
 1796TIP3    H126879   3.018   5.489  13.875  0.7663  1.3482  1.3109
 1796TIP3    H226880   3.087   5.623  13.884  0.7684  1.5745 -1.5328
 1797TIP3   OH226881   0.416   2.963  11.860 -0.2355 -0.4035 -0.0230
 1797TIP3    H126882   0.472   2.978  11.784  1.1229 -0.9226  0.8527
 1797TIP3    H226883   0.403   2.868  11.861 -2.3629 -0.1564 -1.0559
 1798TIP3   OH226884   1.339   2.956  13.810  0.0423  0.9147  0.1154
 1798TIP3    H126885   1.381   3.004  13.739 -0.4813  3.3461  1.4006
 1798TIP3    H226886   1.245   2.971  13.797 -0.1170  0.3763  0.6103
 1799TIP3   OH226887   4.930   5.529  13.986  1.0806  0.0672 -0.6097
 1799TIP3    H126888   4.991   5.484  14.045 -0.3500 -0.6739  0.3148
 1799TIP3    H226889   4.850   5.537  14.036 -0.2036 -0.6739 -2.4894
 1800TIP3   OH226890   6.181   2.768   0.722 -0.1268  0.1206  0.7029
 1800TIP3    H126891   6.110   2.709   0.747  0.1819 -0.4025  0.3554
 1800TIP3    H226892   6.138   2.848   0.692 -0.6524 -1.1101 -1.9204
 1801TIP3   OH226893   5.796   0.397  15.040  0.5716 -0.0024 -0.1959
 1801TIP3    H126894   5.821   0.487  15.016  1.2311 -0.6168 -1.8209
 1801TIP3    H226895   5.863   0.369  15.102  1.4120 -0.0386 -1.1201
 1802TIP3   OH226896   1.754   6.616  15.105  0.9314  0.2873  0.1333
 1802TIP3    H126897   1.788   6.689  15.053 -0.0485 -0.7952 -2.0665
 1802TIP3    H226898   1.746   6.543  15.043 -0.4826 -0.9690  1.7350
 1803TIP3   OH226899   0.974   4.236  14.045 -0.4811 -0.0090  0.1776
 1803TIP3    H126900   1.038   4.201  14.106 -2.4709  1.2074  3.0522
 1803TIP3    H226901   0.892   4.192  14.068 -1.4926  1.2461 -0.9125
 1804TIP3   OH226902   3.323   0.902   4.627  0.1882 -0.2569  0.0845
 1804TIP3    H126903   3.274   0.918   4.546  2.0389  0.0263 -1.0159
 1804TIP3    H226904   3.340   0.808   4.626  1.6571 -0.0100 -0.7514
 1805TIP3   OH226905   6.669   0.098   0.062 -0.1593  0.2414  0.4162
 1805TIP3    H126906   6.762   0.116   0.047 -0.1254 -0.0100  0.3245
 1805TIP3    H226907   6.632   0.183   0.086 -0.0516  0.4800 -0.2681
 1806TIP3   OH226908   6.151   2.401   1.250  0.3848 -0.1854 -0.0309
 1806TIP3    H126909   6.222   2.465   1.245  0.0171  0.1936 -0.4850
 1806TIP3    H226910   6.159   2.350   1.170  0.1426 -0.1386 -0.0855
 1807TIP3   OH226911   2.242   3.464   1.018 -0.1056 -0.0871 -0.2760
 1807TIP3    H126912   2.227   3.544   0.967  0.1993 -0.3690 -0.8135
 1807TIP3    H226913   2.325   3.479   1.061  0.2808 -0.3859 -0.9100
 1808TIP3   OH226914   2.349   2.859  11.713 -0.3004 -0.0046 -0.0487
 1808TIP3    H126915   2.356   2.767  11.687 -1.0045  0.3539 -1.5295
 1808TIP3    H226916   2.439   2.891  11.715  0.0274 -0.9734  1.4094
 1809TIP3   OH226917   2.564   0.046   6.636 -0.0880 -0.1192  0.3389
 1809TIP3    H126918   2.569  -0.022   6.703  0.0159 -0.7724 -0.3268
 1809TIP3    H226919   2.504   0.111   6.673  0.5862 -0.0933  1.3973
 1810TIP3   OH226920   2.162   6.276   4.611  0.8334 -0.7332 -0.6699
 1810TIP3    H126921   2.149   6.305   4.521  1.0661  1.9371  0.1098
 1810TIP3    H226922   2.226   6.338   4.647 -2.3036  0.8150  2.5107
 1811TIP3   OH226923   6.032   3.357   1.364 -0.5992  0.1742  0.6152
 1811TIP3    H126924   6.022   3.441   1.410 -3.6302  1.1390 -1.6377
 1811TIP3    H226925   6.106   3.370   1.305 -0.0996  0.7274  1.3477
 1812TIP3   OH226926   6.241   4.788   2.499  0.2286 -0.4475 -0.0759
 1812TIP3    H126927   6.257   4.872   2.456 -1.4497  0.2409  0.6156
 1812TIP3    H226928   6.302   4.787   2.573 -0.7055  0.8137  0.7488
 1813TIP3   OH226929   4.436   1.021  10.878  0.2510 -0.0710  0.0071
 1813TIP3    H126930   4.396   0.952  10.826  0.1574  0.1398 -0.2024
 1813TIP3    H226931   4.382   1.098  10.862 -0.3662 -0.2429  1.2043
 1814TIP3   OH226932   1.045   0.949   6.529 -0.2370  0.3951 -0.2542
 1814TIP3    H126933   1.120   0.890   6.537 -1.1183 -0.6654  0.4516
 1814TIP3    H226934   1.039   0.968   6.435  0.6717  0.1636 -0.3631
 1815TIP3   OH226935   1.360   5.117  13.386  0.3237 -0.6867  0.3407
 1815TIP3    H126936   1.285   5.123  13.327 -0.2525 -1.4755  0.9716
 1815TIP3    H226937   1.383   5.208  13.404 -0.3747 -0.4344  0.0030
 1816TIP3   OH226938   5.500   0.938   2.444  0.0218 -0.0498 -0.1322
 1816TIP3    H126939   5.413   0.978   2.446  0.3711  0.6971  1.0657
 1816TIP3    H226940   5.556   1.006   2.407  0.3142 -0.0733  0.2671
 1817TIP3   OH226941   0.965   3.639   3.328  0.2728  0.0069  0.0510
 1817TIP3    H126942   0.938   3.547   3.337  2.5462 -0.8138 -0.9484
 1817TIP3    H226943   0.916   3.671   3.253 -0.7923 -0.2989  0.6136
 1818TIP3   OH226944   6.183   6.235   1.409  0.8054  0.0172 -0.0561
 1818TIP3    H126945   6.271   6.203   1.429  1.7430  2.9452  0.6834
 1818TIP3    H226946   6.186   6.253   1.315  0.2242 -2.1040 -0.5112
 1819TIP3   OH226947   4.633   4.479   3.358 -0.1823  0.0185  0.2363
 1819TIP3    H126948   4.594   4.528   3.431  0.2116  1.3043 -0.3887
 1819TIP3    H226949   4.620   4.387   3.381  0.1037  0.4008  2.0269
 1820TIP3   OH226950   0.150   3.346   4.987  0.0169 -0.0281  0.0951
 1820TIP3    H126951   0.120   3.298   5.064  0.4209  0.1751  0.3832
 1820TIP3    H226952   0.128   3.437   5.005  0.3122  0.0499  0.0742
 1821TIP3   OH226953   0.351   2.111   1.044  0.0474 -0.2127  0.5826
 1821TIP3    H126954   0.401   2.193   1.045  0.3757 -0.3928 -0.3729
 1821TIP3    H226955   0.259   2.140   1.042  0.1820  0.2152 -2.8344
 1822TIP3   OH226956   4.047   0.399  11.052 -0.0930  0.5051 -0.1963
 1822TIP3    H126957   4.099   0.424  11.128  0.5227  0.8351 -0.7206
 1822TIP3    H226958   4.107   0.407  10.978 -0.3474 -0.9177 -0.5829
 1823TIP3   OH226959   5.212   4.349  12.991  0.0030  0.4676  0.1968
 1823TIP3    H126960   5.306   4.346  12.973  0.0876  0.4478  0.6425
 1823TIP3    H226961   5.172   4.370  12.907  0.6116  3.2551  0.5470
 1824TIP3   OH226962   2.839   1.448  16.633  0.1130  0.3247 -0.1532
 1824TIP3    H126963   2.787   1.368  16.627  2.4811 -1.2507 -0.3659
 1824TIP3    H226964   2.861   1.456  16.725  0.7461  0.1334 -0.2813
 1825TIP3   OH226965   4.388   5.382  12.374  0.1139  0.9172 -0.1700
 1825TIP3    H126966   4.395   5.429  12.457  1.1782  2.3637 -1.0619
 1825TIP3    H226967   4.477   5.351  12.357  0.2315  1.9680 -1.5253
 1826TIP3   OH226968   4.289   0.502   4.749 -0.3434 -0.3753  0.0403
 1826TIP3    H126969   4.308   0.595   4.760 -0.3005 -0.5911  2.1443
 1826TIP3    H226970   4.194   0.498   4.737 -0.1717  0.0360 -1.5579
 1827TIP3   OH226971   1.516   4.382  13.230  0.6896 -0.1110  0.0232
 1827TIP3    H126972   1.557   4.306  13.271  0.4799  0.1586  0.7349
 1827TIP3    H226973   1.545   4.378  13.138  0.0805 -1.4511 -0.1093
 1828TIP3   OH226974   1.057   4.034   2.384 -0.1955 -0.6158  0.2610
 1828TIP3    H126975   1.088   4.088   2.457  1.3928 -0.6760 -0.3674
 1828TIP3    H226976   0.965   4.016   2.406  0.2425 -0.5939  2.2205
 1829TIP3   OH226977   3.893   0.869   5.898  0.4887 -0.7426 -0.6833
 1829TIP3    H126978   3.978   0.846   5.860  0.2807 -1.4728 -0.7216
 1829TIP3    H226979   3.837   0.795   5.876 -0.4977  0.3023 -1.7314
 1830TIP3   OH226980   0.077   0.201   5.265  0.3267  0.4184  0.0238
 1830TIP3    H126981   0.091   0.112   5.298 -1.2493 -0.7337 -2.2296
 1830TIP3    H226982   0.159   0.223   5.221 -0.2086 -1.0585 -1.7893
 1831TIP3   OH226983   4.073   4.752  16.401  0.0787 -0.2384  0.1822
 1831TIP3    H126984   4.045   4.775  16.313  0.1463  0.0733  0.2420
 1831TIP3    H226985   4.028   4.814  16.458  1.0233  0.3871  0.2624
 1832TIP3   OH226986   0.770   3.736   1.115 -0.0816  0.3208 -0.3873
 1832TIP3    H126987   0.839   3.792   1.078  0.3908 -0.6035 -0.9171
 1832TIP3    H226988   0.693   3.793   1.118  0.7864  1.4781  0.5545
 1833TIP3   OH226989   1.110   6.124   3.523  0.9550  0.0070 -0.2468
 1833TIP3    H126990   1.112   6.210   3.564 -0.0512  0.0492 -0.2805
 1833TIP3    H226991   1.076   6.066   3.591 -1.4632  0.2113 -1.2381
 1834TIP3   OH226992   4.546   4.374  12.048 -0.0920  0.6745 -0.0683
 1834TIP3    H126993   4.529   4.400  11.958  1.1132  2.5862  0.2056
 1834TIP3    H226994   4.615   4.308  12.042  0.3515  1.1742 -0.5368
 1835TIP3   OH226995   2.861   3.453   2.875 -0.1247  0.1260  0.3801
 1835TIP3    H126996   2.920   3.431   2.803 -0.1463  1.9612 -0.2306
 1835TIP3    H226997   2.839   3.545   2.861 -1.2387  0.1294  1.9556
 1836TIP3   OH226998   3.572   0.126   4.614 -0.6916  0.1650  0.5048
 1836TIP3    H126999   3.584   0.050   4.556  0.1376 -0.1743  1.0920
 1836TIP3    H227000   3.605   0.200   4.564 -1.2162  0.0908  0.0427
 1837TIP3   OH227001   6.567   0.014   1.700 -0.0224 -0.1074 -0.3684
 1837TIP3    H127002   6.511  -0.056   1.734  0.3067 -0.8389 -1.3079
 1837TIP3    H227003   6.623  -0.029   1.636 -0.2485  1.1371 -1.4392
 1838TIP3   OH227004   3.153   1.500  17.239 -0.0956  0.6276 -0.3239
 1838TIP3    H127005   3.183   1.556  17.311  0.6208  0.4754 -0.4956
 1838TIP3    H227006   3.229   1.446  17.218 -0.8961 -0.6841  0.1027
 1839TIP3   OH227007   3.506   6.583   1.841  0.7656 -0.3158 -0.3964
 1839TIP3    H127008   3.519   6.599   1.934 -0.5466  0.5681 -0.3630
 1839TIP3    H227009   3.595   6.579   1.805  1.2899 -1.3025  0.9894
 1840TIP3   OH227010   5.083   2.269  11.612 -0.0965 -0.8304 -0.8417
 1840TIP3    H127011   5.157   2.209  11.623  0.3262 -0.5860 -2.2557
 1840TIP3    H227012   5.118   2.341  11.560 -1.1361 -0.3502 -0.8932
 1841TIP3   OH227013   0.093   1.784  16.087  0.4343 -0.4622  0.4976
 1841TIP3    H127014   0.176   1.762  16.045  0.1028 -1.1523  0.2128
 1841TIP3    H227015   0.072   1.872  16.054  1.6206  0.2108  1.4610
 1842TIP3   OH227016   5.034   0.334  12.705 -0.4231  0.3665  0.2099
 1842TIP3    H127017   5.080   0.401  12.754 -1.3271  1.5359 -0.5131
 1842TIP3    H227018   4.986   0.285  12.772  0.3708  0.3223  0.7565
 1843TIP3   OH227019   2.138   4.253  14.489  0.2421  0.1411 -0.5071
 1843TIP3    H127020   2.072   4.187  14.511 -0.9865  1.0992 -1.2907
 1843TIP3    H227021   2.111   4.331  14.537  0.7075  0.5830 -0.9601
 1844TIP3   OH227022   4.303   1.030  14.532  0.3488  0.4376  0.1352
 1844TIP3    H127023   4.279   0.977  14.457 -0.4061  2.3874 -1.0524
 1844TIP3    H227024   4.340   1.110  14.494 -0.5515  1.6806  1.8001
 1845TIP3   OH227025   3.451   0.095   1.584 -0.2574  0.1371 -0.2976
 1845TIP3    H127026   3.469   0.179   1.626 -2.7606  0.9083 -0.6970
 1845TIP3    H227027   3.362   0.073   1.610 -0.2800 -1.5260 -1.6658
 1846TIP3   OH227028   2.604   2.920  11.911 -0.1602  0.2173  0.8216
 1846TIP3    H127029   2.691   2.957  11.928 -0.2669  0.1333  1.5377
 1846TIP3    H227030   2.618   2.859  11.838  0.3721  0.2448  0.8993
 1847TIP3   OH227031   0.169   4.370   1.884 -0.5127 -0.7731 -0.6074
 1847TIP3    H127032   0.252   4.360   1.837 -0.3194  0.2638 -0.5076
 1847TIP3    H227033   0.164   4.464   1.903 -1.0237 -1.0461  0.6434
 1848TIP3   OH227034   1.652   2.779   3.778 -0.3861 -0.1158 -0.4069
 1848TIP3    H127035   1.718   2.770   3.709  0.6992 -2.5278  0.8874
 1848TIP3    H227036   1.596   2.850   3.748  1.8677  0.9390 -2.3037
 1849TIP3   OH227037   0.861   2.106  15.733  0.1718  0.1422  0.7903
 1849TIP3    H127038   0.880   2.188  15.780  0.8507  0.3559  0.1595
 1849TIP3    H227039   0.938   2.092  15.678 -0.2642 -0.5352  0.3444
 1850TIP3   OH227040   2.844   2.534   4.639  0.2108 -0.4142  0.3158
 1850TIP3    H127041   2.921   2.547   4.583  0.2945 -1.4114  0.1989
 1850TIP3    H227042   2.786   2.608   4.617  0.6523 -0.2752 -0.3986
 1851TIP3   OH227043   4.751   1.517   1.032 -0.0922 -0.5985  0.1558
 1851TIP3    H127044   4.729   1.557   1.115 -2.3533 -0.4096 -0.5125
 1851TIP3    H227045   4.786   1.431   1.055 -0.1252 -0.3058  1.3185
 1852TIP3   OH227046   3.492   2.796  16.324  0.0457  0.7835  0.0059
 1852TIP3    H127047   3.516   2.705  16.303  0.4243  0.8798  0.0113
 1852TIP3    H227048   3.437   2.823  16.250 -1.2365  0.0908  0.6908
 1853TIP3   OH227049   0.251   2.270   1.898 -0.3107  0.3671  0.7437
 1853TIP3    H127050   0.160   2.259   1.928 -0.0324 -2.5362  0.6668
 1853TIP3    H227051   0.302   2.212   1.954  1.1828  0.2148 -0.7278
 1854TIP3   OH227052   5.167   0.194  16.747  0.5317  0.5271  0.0045
 1854TIP3    H127053   5.181   0.106  16.780  0.1615  0.4155 -0.1361
 1854TIP3    H227054   5.104   0.184  16.676 -1.1394  1.1635  1.3635
 1855TIP3   OH227055   0.817   0.809   2.210 -0.5727  0.1338 -0.2897
 1855TIP3    H127056   0.830   0.873   2.140 -1.4799  1.1824  0.4924
 1855TIP3    H227057   0.740   0.759   2.184  0.4108 -0.9932 -1.1356
 1856TIP3   OH227058   1.372   4.806  13.956  0.6825  0.0369 -0.5145
 1856TIP3    H127059   1.409   4.887  13.922  0.1794 -0.2393 -1.7505
 1856TIP3    H227060   1.384   4.812  14.051  1.2843  1.2288 -0.6551
 1857TIP3   OH227061   1.106   6.000  12.427  0.0914 -0.4262  0.5812
 1857TIP3    H127062   1.119   6.059  12.501 -1.4715  0.3255  0.2753
 1857TIP3    H227063   1.042   6.045  12.371 -0.2125 -1.8682 -0.2546
 1858TIP3   OH227064   2.307   2.999  12.403 -0.1441 -0.4762  0.0240
 1858TIP3    H127065   2.267   3.082  12.378  1.7596  0.5177  0.1951
 1858TIP3    H227066   2.293   2.994  12.498  1.4775  0.6315  0.3422
 1859TIP3   OH227067   5.877   3.114   2.319 -0.3271  0.4767  0.0725
 1859TIP3    H127068   5.788   3.080   2.307  0.2566 -1.1106  0.0448
 1859TIP3    H227069   5.892   3.107   2.414  1.3727 -3.6147 -0.3765
 1860TIP3   OH227070   0.833   6.589  14.568 -0.8920 -0.0397 -0.2026
 1860TIP3    H127071   0.911   6.589  14.624 -0.6573 -0.5929 -0.5194
 1860TIP3    H227072   0.773   6.528  14.610  0.0878 -2.0458 -1.6224
 1861TIP3   OH227073   1.303   1.439   2.597  0.7147  0.5957 -0.4767
 1861TIP3    H127074   1.268   1.453   2.685  1.1357 -0.6700 -0.0931
 1861TIP3    H227075   1.298   1.525   2.555 -0.0779  1.0690  0.5686
 1862TIP3   OH227076   0.622   3.860   5.028 -0.0491  0.3069  0.1408
 1862TIP3    H127077   0.711   3.827   5.019 -0.7508 -1.2247 -1.4679
 1862TIP3    H227078   0.617   3.890   5.118  1.5422 -1.2476  0.7850
 1863TIP3   OH227079   0.683   0.305   5.004  0.0639 -0.7275  0.4576
 1863TIP3    H127080   0.757   0.336   4.952 -2.4451  1.7518 -1.8131
 1863TIP3    H227081   0.660   0.221   4.965  1.9055 -1.7307  1.4630
 1864TIP3   OH227082   1.791   4.774  10.621 -0.8653  0.0676  0.4773
 1864TIP3    H127083   1.856   4.752  10.688 -1.3984 -2.7810  0.1236
 1864TIP3    H227084   1.842   4.802  10.546  0.0115 -2.2941  0.1477
 1865TIP3   OH227085   4.626   6.261  14.544  0.1561 -0.0285 -0.2713
 1865TIP3    H127086   4.539   6.263  14.503  0.4614  1.4963 -0.8704
 1865TIP3    H227087   4.617   6.200  14.617 -1.3915  0.0318 -0.4033
 1866TIP3   OH227088   2.429   2.107   4.607  0.0283 -0.2163 -0.1841
 1866TIP3    H127089   2.434   2.148   4.694 -0.8961  0.3786 -0.4115
 1866TIP3    H227090   2.452   2.015   4.623  0.1817 -0.0436  0.6367
 1867TIP3   OH227091   2.583   3.275  10.282 -0.3451  0.3737 -0.1477
 1867TIP3    H127092   2.585   3.347  10.345 -0.7124  1.0526 -0.8944
 1867TIP3    H227093   2.499   3.286  10.237  0.4865  0.6998 -1.6618
 1868TIP3   OH227094   5.676   3.193   0.114  0.3126 -0.5209 -0.0343
 1868TIP3    H127095   5.755   3.190   0.060 -0.6529  0.9749 -1.5801
 1868TIP3    H227096   5.612   3.139   0.068 -0.5989  0.9684 -0.5646
 1869TIP3   OH227097   6.668   0.233   4.843  0.2726 -0.1230  0.5351
 1869TIP3    H127098   6.728   0.162   4.869  0.6132 -0.3721 -0.9079
 1869TIP3    H227099   6.685   0.302   4.906  3.2033  0.4130 -0.7399
 1870TIP3   OH227100   1.589   5.652  12.671  0.0635 -0.2300  0.4778
 1870TIP3    H127101   1.597   5.681  12.580 -1.4931  0.4139  0.5442
 1870TIP3    H227102   1.678   5.627  12.696  0.5450 -0.1561 -1.1362
 1871TIP3   OH227103   2.570   2.599  16.275  0.0602  0.4673  0.1270
 1871TIP3    H127104   2.630   2.661  16.233  2.8580 -2.6560 -0.6983
 1871TIP3    H227105   2.589   2.608  16.368  0.0126  1.2971  0.0606
 1872TIP3   OH227106   6.541   1.166   2.100  0.3054 -0.0698 -0.5344
 1872TIP3    H127107   6.562   1.253   2.068 -0.3946  0.8893  1.5413
 1872TIP3    H227108   6.451   1.172   2.131 -1.0453 -2.5096 -3.6055
 1873TIP3   OH227109   6.403   1.639   2.661  0.0231 -0.1678  0.1255
 1873TIP3    H127110   6.353   1.712   2.626 -0.8404 -0.3399  0.9903
 1873TIP3    H227111   6.438   1.594   2.584 -1.9517 -0.6187 -0.5359
 1874TIP3   OH227112   0.485   5.177   1.271 -0.0645  0.3893 -0.2482
 1874TIP3    H127113   0.391   5.171   1.253  0.2928 -0.1787 -1.9609
 1874TIP3    H227114   0.520   5.231   1.200  0.5304  2.7640  1.7811
 1875TIP3   OH227115   4.740   4.881  11.545  0.3834 -0.0332  0.1635
 1875TIP3    H127116   4.719   4.954  11.487 -4.5841  0.0716  1.8375
 1875TIP3    H227117   4.804   4.918  11.606  1.5260  1.4680 -1.8693
 1876TIP3   OH227118   6.419   4.702   0.332  0.0183 -0.3356 -0.3594
 1876TIP3    H127119   6.452   4.709   0.422 -1.0647  0.2292 -0.0035
 1876TIP3    H227120   6.483   4.647   0.288  0.3900 -0.8855  0.8450
 1877TIP3   OH227121   4.093   1.359   1.775  0.2038 -0.1520  0.6424
 1877TIP3    H127122   4.105   1.449   1.805  0.8271  0.1496 -0.4736
 1877TIP3    H227123   3.999   1.350   1.762  0.2097  0.5743  0.0683
 1878TIP3   OH227124   4.702   0.046  17.015  0.4358 -0.3035 -0.2002
 1878TIP3    H127125   4.686   0.138  16.996  0.7835  0.1155  1.4806
 1878TIP3    H227126   4.616   0.005  17.013  0.1298  0.3151  0.4009
 1879TIP3   OH227127   6.621   0.161  13.006 -0.1046  0.2174 -0.1061
 1879TIP3    H127128   6.710   0.129  12.994 -0.9126 -1.4966 -1.8158
 1879TIP3    H227129   6.605   0.216  12.929 -0.8557 -0.2930 -0.3222
 1880TIP3   OH227130   0.051   5.191   4.593 -0.6339 -0.5866  0.3078
 1880TIP3    H127131   0.047   5.267   4.535 -1.3083 -0.1130  0.9764
 1880TIP3    H227132   0.108   5.129   4.546  0.8227  0.7495  0.2808
 1881TIP3   OH227133   6.322   2.391  13.626 -0.2479  0.6091  0.3365
 1881TIP3    H127134   6.254   2.325  13.608 -1.1167  1.9382 -1.4755
 1881TIP3    H227135   6.278   2.475  13.611  2.0476  1.4924 -1.9534
 1882TIP3   OH227136   5.172   6.586  12.327  0.0483 -0.2783 -0.1070
 1882TIP3    H127137   5.202   6.510  12.378 -0.4238 -0.0557  0.5153
 1882TIP3    H227138   5.164   6.656  12.392  0.7822  0.3983 -0.7347
 1883TIP3   OH227139   4.547   2.615  15.301 -0.3252 -0.4131  0.0179
 1883TIP3    H127140   4.544   2.533  15.252  0.7899  0.0899 -0.9087
 1883TIP3    H227141   4.468   2.613  15.355 -0.5974 -1.8363 -0.4070
 1884TIP3   OH227142   0.063   2.466  15.819 -0.7238  0.2904 -0.2644
 1884TIP3    H127143   0.032   2.524  15.889 -0.2527 -0.0893  0.2719
 1884TIP3    H227144  -0.000   2.394  15.817  0.7615 -1.1583  1.7142
 1885TIP3   OH227145   5.291   3.803  16.260  0.3865 -0.0675 -0.0355
 1885TIP3    H127146   5.207   3.793  16.305  0.2423 -1.8702 -0.6502
 1885TIP3    H227147   5.270   3.853  16.181 -0.0486 -0.2166 -0.0163
 1886TIP3   OH227148   6.284   0.036   2.467 -0.5650 -0.0873 -0.3735
 1886TIP3    H127149   6.310   0.062   2.379 -0.9299 -0.0196 -0.4621
 1886TIP3    H227150   6.303  -0.057   2.472  1.7473  0.3897  0.3012
 1887TIP3   OH227151   0.277   6.578   6.194 -0.2709  0.0674  0.3299
 1887TIP3    H127152   0.326   6.496   6.192  1.1264  0.8744  0.9948
 1887TIP3    H227153   0.227   6.579   6.112  1.7771 -0.1836 -0.9384
 1888TIP3   OH227154   4.660   5.920  15.282 -0.1508 -0.9769  0.2610
 1888TIP3    H127155   4.692   5.915  15.372 -1.0177 -1.3445  0.5544
 1888TIP3    H227156   4.684   5.835  15.244  2.3565  0.0738 -0.5919
 1889TIP3   OH227157   3.944   1.202  16.654 -0.0666  0.1480 -0.1069
 1889TIP3    H127158   3.893   1.264  16.602 -1.4237  0.8290  1.9341
 1889TIP3    H227159   4.030   1.200  16.613 -0.7363  1.5635 -1.6306
 1890TIP3   OH227160   3.457   4.070  12.438 -0.4266 -0.3022 -0.0067
 1890TIP3    H127161   3.499   4.010  12.376 -0.6043  1.2598 -1.6755
 1890TIP3    H227162   3.365   4.045  12.437 -0.3384 -0.6384  0.0710
 1891TIP3   OH227163   2.168   3.100  14.903  0.4354 -0.2874  0.2162
 1891TIP3    H127164   2.257   3.126  14.927 -0.1930  2.2910 -0.1116
 1891TIP3    H227165   2.166   3.105  14.808 -0.3998  0.8928  0.2839
 1892TIP3   OH227166   0.666   2.225   2.140 -0.1056 -0.1019 -0.6094
 1892TIP3    H127167   0.752   2.194   2.109  1.3107  1.7030  1.3572
 1892TIP3    H227168   0.687   2.281   2.215 -2.9371  1.4091 -0.8943
 1893TIP3   OH227169   0.009   4.505  13.265 -0.1634 -0.5943  0.3970
 1893TIP3    H127170   0.024   4.583  13.212 -1.4441 -1.6339 -1.5805
 1893TIP3    H227171  -0.071   4.523  13.313  0.3134 -0.1499  1.0355
 1894TIP3   OH227172   5.299   2.077   1.192  0.0457 -0.1327 -0.8855
 1894TIP3    H127173   5.218   2.029   1.210 -0.2448  0.4112 -0.7424
 1894TIP3    H227174   5.368   2.011   1.199 -0.1919 -0.2097  0.8723
 1895TIP3   OH227175   0.537   0.994   3.176 -0.3432  0.2579 -0.1178
 1895TIP3    H127176   0.576   0.913   3.211  0.2650  0.2886 -0.7126
 1895TIP3    H227177   0.513   1.044   3.254  1.0891  0.3687  0.2718
 1896TIP3   OH227178   1.865   3.779   0.924 -0.1482  0.1176  0.1807
 1896TIP3    H127179   1.959   3.781   0.911 -0.0086 -0.7286  0.9986
 1896TIP3    H227180   1.849   3.840   0.996  0.0182 -1.1644  1.3416
 1897TIP3   OH227181   1.567   1.021  12.206 -0.6229 -0.0478 -0.1339
 1897TIP3    H127182   1.539   0.935  12.238  0.4662 -0.1328  0.6023
 1897TIP3    H227183   1.524   1.083  12.265  0.3380 -0.1661  0.7105
 1898TIP3   OH227184   5.927   1.113   2.454 -0.1860  0.1969  0.3841
 1898TIP3    H127185   6.022   1.110   2.447 -0.2802  0.1030 -1.0961
 1898TIP3    H227186   5.900   1.172   2.383 -1.1583  1.1115  1.4976
 1899TIP3   OH227187   2.374   5.384  10.760  0.8865  0.2855 -0.1690
 1899TIP3    H127188   2.358   5.290  10.766 -1.2042  0.5897 -0.6321
 1899TIP3    H227189   2.455   5.392  10.709  1.4626 -1.2574  0.4635
 1900TIP3   OH227190   2.939   2.298   2.308  0.0898 -0.4031  0.2532
 1900TIP3    H127191   3.024   2.336   2.285  0.5211 -1.5365 -0.0464
 1900TIP3    H227192   2.937   2.215   2.261 -1.7435  0.2184 -0.7878
 1901TIP3   OH227193   2.840   6.172  15.215  0.3109  0.2003  0.0473
 1901TIP3    H127194   2.818   6.241  15.277  1.5083  0.1596  0.5302
 1901TIP3    H227195   2.764   6.114  15.216 -0.4071  1.1441  0.1548
 1902TIP3   OH227196   5.861   6.747   0.805  0.0327  0.0644  0.2432
 1902TIP3    H127197   5.851   6.669   0.750  0.0667  0.4381 -0.2944
 1902TIP3    H227198   5.955   6.763   0.808  0.0721 -0.2893  0.8767
 1903TIP3   OH227199   5.713   1.715  15.059  0.3780 -0.2333 -0.3803
 1903TIP3    H127200   5.700   1.702  15.153 -0.5450  0.8761 -0.3435
 1903TIP3    H227201   5.808   1.722  15.049  0.5571 -1.5323  0.3018
 1904TIP3   OH227202   5.480   3.701   3.111 -0.8422 -0.0084 -0.1631
 1904TIP3    H127203   5.438   3.766   3.056 -0.8815  1.7088  1.8342
 1904TIP3    H227204   5.573   3.724   3.108 -0.8496  0.1357  0.4980
 1905TIP3   OH227205   6.415   3.869  12.057 -0.6587 -0.2811 -0.0009
 1905TIP3    H127206   6.459   3.787  12.079  3.1133  1.8114  0.4865
 1905TIP3    H227207   6.435   3.883  11.965 -0.6733  0.4530  0.1049
 1906TIP3   OH227208   5.256   1.604   6.647  0.0995  0.1987  0.5920
 1906TIP3    H127209   5.339   1.625   6.605 -1.2253  0.1325 -2.1308
 1906TIP3    H227210   5.231   1.684   6.693  0.5172  0.9940 -0.5553
 1907TIP3   OH227211   6.258   6.811  11.150 -0.1828  0.3068 -0.6887
 1907TIP3    H127212   6.288   6.837  11.063  0.3250  3.8606  0.4676
 1907TIP3    H227213   6.332   6.764  11.188  0.1821  0.1749 -1.5589
 1908TIP3   OH227214   2.635   0.507  11.446  0.6641 -0.2666  0.2415
 1908TIP3    H127215   2.594   0.457  11.376  1.8211  0.8752 -1.2851
 1908TIP3    H227216   2.565   0.564  11.479  0.0118 -1.0840  0.2744
 1909TIP3   OH227217   0.883   2.425  12.105  0.1580 -0.5874  0.0987
 1909TIP3    H127218   0.929   2.501  12.140 -2.2681  0.2154  1.6521
 1909TIP3    H227219   0.804   2.461  12.064  0.0717 -2.0767 -1.1025
 1910TIP3   OH227220   1.340   3.789   5.203  0.3505  0.1622 -0.0732
 1910TIP3    H127221   1.417   3.731   5.208  0.2793  0.1067  0.3147
 1910TIP3    H227222   1.309   3.796   5.292  0.7272  1.3104 -0.0202
 1911TIP3   OH227223   4.137   2.155  12.188  0.6800  0.1631 -0.2878
 1911TIP3    H127224   4.194   2.196  12.253 -0.2179 -0.6929  1.0700
 1911TIP3    H227225   4.120   2.067  12.223 -3.8592  1.3614  0.9135
 1912TIP3   OH227226   3.752   4.212   4.604  0.8034 -0.2969 -0.0823
 1912TIP3    H127227   3.710   4.296   4.585 -2.6724 -1.9359 -0.0485
 1912TIP3    H227228   3.763   4.211   4.699 -0.3081 -0.3387  0.0602
 1913TIP3   OH227229   4.218   2.729  12.400 -0.0436 -0.1062  0.2379
 1913TIP3    H127230   4.141   2.786  12.406  0.0253  0.0688 -0.4740
 1913TIP3    H227231   4.184   2.648  12.362  0.7176  1.1915 -3.4636
 1914TIP3   OH227232   3.273   1.593   3.066 -0.5000 -0.3099  0.4864
 1914TIP3    H127233   3.280   1.636   2.981 -0.9433 -0.5040  0.3525
 1914TIP3    H227234   3.340   1.524   3.064  0.1331  0.2937  0.6574
 1915TIP3   OH227235   2.645   6.038  12.972  0.1820 -0.4751  0.0948
 1915TIP3    H127236   2.730   6.078  12.953  0.5665 -1.3206  0.0460
 1915TIP3    H227237   2.600   6.037  12.887 -0.0212  0.2931  0.1848
 1916TIP3   OH227238   6.743   1.566  13.147  0.1040  0.1137  0.0071
 1916TIP3    H127239   6.663   1.560  13.095  0.8053  0.0381 -1.0844
 1916TIP3    H227240   6.767   1.475  13.164 -0.0133  0.1356  0.2898
 1917TIP3   OH227241   4.906   0.109   4.511  0.1761 -0.1465 -0.0366
 1917TIP3    H127242   4.872   0.189   4.552 -0.3212 -0.2691 -0.2106
 1917TIP3    H227243   4.862   0.038   4.557 -1.0078 -0.2691 -1.3086
 1918TIP3   OH227244   1.852   6.165   2.980  0.4454 -0.3001 -0.1308
 1918TIP3    H127245   1.894   6.133   3.060  1.3073  0.3449 -0.3151
 1918TIP3    H227246   1.918   6.152   2.912  0.5225  1.1172 -0.3430
 1919TIP3   OH227247   3.822   0.012  13.403 -0.9305 -0.7291 -0.6760
 1919TIP3    H127248   3.857  -0.020  13.487 -0.5105  1.7558  0.1411
 1919TIP3    H227249   3.887  -0.015  13.339  1.4893  1.9297  0.5458
 1920TIP3   OH227250   6.814   3.622   2.700 -0.0440 -0.3020 -0.7555
 1920TIP3    H127251   6.893   3.616   2.647 -0.4476 -0.6435 -1.3225
 1920TIP3    H227252   6.749   3.570   2.653  0.1363 -2.2370  1.0282
 1921TIP3   OH227253   5.154   1.786  13.810  0.1691  0.9102 -0.0863
 1921TIP3    H127254   5.238   1.819  13.842  1.4835 -1.2409 -1.2776
 1921TIP3    H227255   5.107   1.759  13.889  1.5514 -0.1020  0.3888
 1922TIP3   OH227256   4.213   2.202  12.652 -0.1368 -0.0612 -0.1745
 1922TIP3    H127257   4.161   2.187  12.731 -0.7005  0.9032 -0.3511
 1922TIP3    H227258   4.152   2.186  12.580 -0.2371  1.2302 -0.3808
 1923TIP3   OH227259   6.808   4.151  16.912 -0.5804  0.2142  0.8197
 1923TIP3    H127260   6.866   4.186  16.845 -2.5012  2.3021  0.1838
 1923TIP3    H227261   6.811   4.056  16.900  0.6413  0.4595 -0.8966
 1924TIP3   OH227262   6.057   6.188   5.863  0.3023 -0.0049 -0.0995
 1924TIP3    H127263   6.062   6.108   5.917  1.4936  0.9791  1.2992
 1924TIP3    H227264   6.148   6.212   5.847 -0.0522  0.6710 -1.1329
 1925TIP3   OH227265   6.426   4.849   4.857 -0.1481  0.2612  0.3938
 1925TIP3    H127266   6.418   4.833   4.951 -0.0704  1.3439  0.5974
 1925TIP3    H227267   6.433   4.762   4.818 -0.1860 -0.1977  1.3884
 1926TIP3   OH227268   2.395   5.904   4.475  0.7290 -0.2903  0.1074
 1926TIP3    H127269   2.479   5.950   4.466 -0.1418  1.4363  0.6413
 1926TIP3    H227270   2.330   5.973   4.483 -1.0422 -1.5835 -2.4278
 1927TIP3   OH227271   5.706   4.277  16.273 -0.5461  0.1508 -0.1493
 1927TIP3    H127272   5.726   4.358  16.226 -0.8079 -1.0037 -2.3206
 1927TIP3    H227273   5.686   4.214  16.204 -2.0973 -1.3052  1.5884
 1928TIP3   OH227274   3.037   2.218  16.095 -0.3634  0.1712 -0.3476
 1928TIP3    H127275   3.031   2.151  16.163 -0.3558  0.5966  0.0745
 1928TIP3    H227276   3.053   2.169  16.015 -0.2761 -0.3283 -0.0284
 1929TIP3   OH227277   3.320   2.499  15.336  0.1770 -0.6632 -0.2305
 1929TIP3    H127278   3.257   2.503  15.407  0.8410 -0.0609  0.3375
 1929TIP3    H227279   3.279   2.444  15.269 -1.0451 -0.0535  0.0219
 1930TIP3   OH227280   1.188   0.014  12.696  0.1747 -0.1067 -0.1398
 1930TIP3    H127281   1.129   0.088  12.711 -1.2847 -0.9226 -1.6662
 1930TIP3    H227282   1.235   0.037  12.616  1.3944  0.1941  0.6527
 1931TIP3   OH227283   3.899   4.788   0.760 -0.0714 -0.5259  0.5380
 1931TIP3    H127284   3.814   4.783   0.804 -1.0003  1.2027 -0.9907
 1931TIP3    H227285   3.939   4.868   0.796  0.4820 -0.8077  0.5409
 1932TIP3   OH227286   0.114   5.068  16.452  0.5886 -0.3887 -0.8001
 1932TIP3    H127287   0.208   5.063  16.469  0.1797  0.0099  1.7927
 1932TIP3    H227288   0.081   5.130  16.517 -1.6605 -1.5997 -0.7258
 1933TIP3   OH227289   5.554   2.954   4.624 -0.7389  0.2382 -0.3829
 1933TIP3    H127290   5.547   3.046   4.649 -1.4146 -0.0679  0.6013
 1933TIP3    H227291   5.608   2.954   4.545 -1.2955  1.5384 -0.7659
 1934TIP3   OH227292   4.488   4.515  16.226  0.2906  0.0697 -0.3390
 1934TIP3    H127293   4.433   4.584  16.189 -1.2942  0.6091  2.8001
 1934TIP3    H227294   4.443   4.491  16.307  3.3566 -1.3250  0.9906
 1935TIP3   OH227295   5.155   4.094  15.280 -0.6166 -0.5979 -0.4122
 1935TIP3    H127296   5.191   4.050  15.357  0.1056 -1.5328 -1.2824
 1935TIP3    H227297   5.174   4.187  15.294  0.2096 -0.8538  0.1508
 1936TIP3   OH227298   2.970   0.169  15.433 -0.5426  0.3454  0.0210
 1936TIP3    H127299   2.999   0.087  15.474 -1.8598  0.1228  0.5114
 1936TIP3    H227300   3.051   0.216  15.416  0.3007 -1.4515 -1.0960
 1937TIP3   OH227301   4.595   5.839   3.480  0.4298  0.0633  0.1245
 1937TIP3    H127302   4.679   5.852   3.525 -0.1975 -0.5674  1.5002
 1937TIP3    H227303   4.588   5.914   3.421  0.3794  1.9700  2.4752
 1938TIP3   OH227304   4.585   2.269  14.567 -0.1563  0.7747 -0.8283
 1938TIP3    H127305   4.600   2.213  14.491  0.6780  0.3686 -0.3656
 1938TIP3    H227306   4.642   2.234  14.635 -0.9293  1.1030  0.0108
 1939TIP3   OH227307   4.156   0.538   5.108  0.0458 -0.6424  0.0912
 1939TIP3    H127308   4.250   0.519   5.112  0.0441 -0.6546  0.0691
 1939TIP3    H227309   4.151   0.632   5.122  0.1849 -0.3601 -1.6537
 1940TIP3   OH227310   2.275   6.030   5.951 -0.0528 -0.7563  0.6649
 1940TIP3    H127311   2.338   5.965   5.920 -0.3420 -1.0462  0.6895
 1940TIP3    H227312   2.314   6.065   6.031  0.6522 -0.0722  0.0412
 1941TIP3   OH227313   2.627   1.932   6.707 -0.1473 -0.7287  0.2684
 1941TIP3    H127314   2.600   1.873   6.778 -0.2261 -1.9119 -0.7371
 1941TIP3    H227315   2.574   1.906   6.632 -0.1799  0.6310 -0.2007
 1942TIP3   OH227316   4.605   4.266   4.489 -0.1976  0.1719  0.0731
 1942TIP3    H127317   4.541   4.325   4.530 -0.3934  0.2557 -0.3456
 1942TIP3    H227318   4.552   4.210   4.432  0.1518  0.5934 -0.6875
 1943TIP3   OH227319   1.968   1.731  15.546 -0.2653  0.9330 -0.3962
 1943TIP3    H127320   1.932   1.809  15.588  2.8854  2.0520  0.3688
 1943TIP3    H227321   2.007   1.681  15.618  1.0297  0.5383 -1.3588
 1944TIP3   OH227322   6.005   2.365  15.570 -0.0975  0.2866  0.3435
 1944TIP3    H127323   6.099   2.367  15.585 -0.2486  0.9934  1.2997
 1944TIP3    H227324   5.968   2.409  15.647 -1.2373 -0.5065  0.2592
 1945TIP3   OH227325   5.638   3.623  11.883 -0.0170  0.2188  0.0133
 1945TIP3    H127326   5.566   3.561  11.892  1.6999 -1.7150  0.7821
 1945TIP3    H227327   5.652   3.656  11.972  0.1878  0.4074 -0.0889
 1946TIP3   OH227328   2.471   4.671  16.639  0.5549  0.5674 -0.3759
 1946TIP3    H127329   2.429   4.632  16.716 -1.1728  1.2639 -0.9404
 1946TIP3    H227330   2.548   4.617  16.624 -0.0042 -0.6059  0.8332
 1947TIP3   OH227331   4.736   6.639  11.216 -0.4547  0.2122  0.0019
 1947TIP3    H127332   4.802   6.625  11.148 -1.0665 -1.1596 -0.3414
 1947TIP3    H227333   4.674   6.701  11.177  0.1249  0.7604 -0.0376
 1948TIP3   OH227334   1.951   4.954   5.685 -0.3796  0.2893  0.6817
 1948TIP3    H127335   1.959   4.876   5.739  0.8084 -0.9524 -1.2725
 1948TIP3    H227336   1.983   5.025   5.741  0.4216 -0.9120  1.7713
 1949TIP3   OH227337   3.299   1.903   0.058 -0.5693 -0.4815  0.4366
 1949TIP3    H127338   3.215   1.944   0.073  0.0806  0.8694  0.4892
 1949TIP3    H227339   3.329   1.940  -0.026  0.2630 -0.4370  0.7456
 1950TIP3   OH227340   1.981   6.319   6.320  0.3821 -0.0371  0.0620
 1950TIP3    H127341   2.066   6.290   6.289  0.4384  0.0985  0.0885
 1950TIP3    H227342   1.928   6.239   6.324  0.9618 -0.3561  1.5405
 1951TIP3   OH227343   6.407   4.354   0.402 -0.4899 -0.0327  0.0449
 1951TIP3    H127344   6.428   4.405   0.481 -1.5198 -0.2683  0.4751
 1951TIP3    H227345   6.471   4.384   0.337 -1.0898  1.8443  0.2818
 1952TIP3   OH227346   0.244   0.765   1.363 -0.6594 -0.2462 -0.3556
 1952TIP3    H127347   0.223   0.703   1.293 -2.4605 -0.4839  0.3575
 1952TIP3    H227348   0.202   0.847   1.335 -0.3298 -0.0040 -0.1394
 1953TIP3   OH227349   4.440   0.944   5.289  0.3546 -0.2309 -0.0375
 1953TIP3    H127350   4.404   0.876   5.345 -0.1807 -0.3861 -0.5727
 1953TIP3    H227351   4.411   1.026   5.330 -1.7195 -0.3623 -1.1882
 1954TIP3   OH227352   1.256   5.830  13.245  0.1566 -0.1201 -1.1827
 1954TIP3    H127353   1.251   5.755  13.185 -0.6410 -1.8905  1.0514
 1954TIP3    H227354   1.174   5.828  13.293 -0.0164  2.4176 -1.2941
 1955TIP3   OH227355   6.089   6.402  14.188 -0.4589  0.1750 -0.6195
 1955TIP3    H127356   6.026   6.345  14.232 -0.3188  0.3232 -0.2216
 1955TIP3    H227357   6.156   6.343  14.154 -1.1984 -0.0497 -1.6916
 1956TIP3   OH227358   6.538   0.872  13.470  0.2747 -0.5021  0.1491
 1956TIP3    H127359   6.575   0.787  13.494  1.7179 -0.2056 -0.9213
 1956TIP3    H227360   6.607   0.935  13.490  0.1505  0.1335 -1.3386
 1957TIP3   OH227361   0.447   6.582  15.944 -0.5966 -0.1732 -0.0117
 1957TIP3    H127362   0.492   6.501  15.969  0.5442 -0.0331 -1.5265
 1957TIP3    H227363   0.375   6.554  15.888 -1.3894 -0.2687  1.0352
 1958TIP3   OH227364   4.034   1.345   0.546 -0.5090 -0.1682  0.2955
 1958TIP3    H127365   4.049   1.380   0.458 -1.1740 -0.2768  0.1330
 1958TIP3    H227366   4.081   1.262   0.548  1.2719  0.8254  0.7596
 1959TIP3   OH227367   5.555   1.484   1.242  0.7903  0.0064 -0.2881
 1959TIP3    H127368   5.517   1.530   1.167  0.0316 -1.8579 -1.0846
 1959TIP3    H227369   5.579   1.553   1.303 -1.2447  1.4062 -1.0142
 1960TIP3   OH227370   2.441   5.977  11.153  0.2406 -0.0998 -0.4645
 1960TIP3    H127371   2.384   5.980  11.076  0.8382  1.2787 -0.8793
 1960TIP3    H227372   2.408   6.048  11.209 -1.7058 -2.5775  1.6852
 1961TIP3   OH227373   3.434   6.587  13.580  0.3043 -0.3116  0.2001
 1961TIP3    H127374   3.505   6.625  13.632  1.5932 -0.4457 -1.3945
 1961TIP3    H227375   3.445   6.493  13.590  1.9235 -0.4075 -1.9898
 1962TIP3   OH227376   1.924   1.586  14.098  0.4405  0.4299  0.8323
 1962TIP3    H127377   1.841   1.591  14.049  0.8026 -0.9651  0.0529
 1962TIP3    H227378   1.971   1.513  14.058  1.4450  0.3009  2.2170
 1963TIP3   OH227379   2.413   1.286   0.414  0.2849  0.3948 -0.4003
 1963TIP3    H127380   2.478   1.319   0.476  0.1813 -0.1868  0.0147
 1963TIP3    H227381   2.436   1.194   0.401 -1.1933 -0.1505  0.6998
 1964TIP3   OH227382   5.657   4.737  14.713  0.2745  0.1838 -0.3509
 1964TIP3    H127383   5.677   4.794  14.788 -1.0636 -0.9830  0.9360
 1964TIP3    H227384   5.584   4.781  14.669  0.1075  0.1431 -0.1182
 1965TIP3   OH227385   3.206   4.069  12.693  0.1932 -0.1576  0.3310
 1965TIP3    H127386   3.210   3.974  12.697  1.2435 -0.1206  0.2987
 1965TIP3    H227387   3.189   4.089  12.601  0.2988 -0.3006  0.2818
 1966TIP3   OH227388   1.315   1.013  12.941  0.1164  0.1778 -0.2985
 1966TIP3    H127389   1.399   1.056  12.951  0.6559 -0.5155 -1.6864
 1966TIP3    H227390   1.253   1.084  12.921  0.1054  0.8390  1.9263
 1967TIP3   OH227391   4.590   2.803   0.911 -0.3814 -0.2865  0.3607
 1967TIP3    H127392   4.653   2.732   0.920 -0.0548  0.0959  1.1376
 1967TIP3    H227393   4.535   2.777   0.837  1.1459 -0.2542 -0.7875
 1968TIP3   OH227394   3.138   0.010   5.418 -0.2402 -0.2408  0.6976
 1968TIP3    H127395   3.100  -0.066   5.374  0.7221  0.2711 -1.0382
 1968TIP3    H227396   3.085   0.020   5.498 -1.2704 -1.8662  0.2432
 1969TIP3   OH227397   0.753   2.153   3.616 -0.3223  0.1869  0.8104
 1969TIP3    H127398   0.742   2.230   3.672 -0.5184  1.2550 -0.6526
 1969TIP3    H227399   0.767   2.189   3.528 -1.6949 -1.4672 -0.1307
 1970TIP3   OH227400   1.930   2.493  12.177 -0.0349 -0.0940 -0.0285
 1970TIP3    H127401   1.932   2.589  12.175  1.6225 -0.1099  0.4314
 1970TIP3    H227402   1.858   2.470  12.118  0.5583  1.3954 -1.3874
 1971TIP3   OH227403   1.790   2.700  12.353  0.4437  0.0924 -0.0110
 1971TIP3    H127404   1.883   2.723  12.346  1.0524 -1.7456  1.6641
 1971TIP3    H227405   1.775   2.691  12.447 -1.8370  1.8825 -0.1670
 1972TIP3   OH227406   2.099   5.400   3.673 -0.0440  0.1557 -0.7359
 1972TIP3    H127407   2.166   5.347   3.716  0.1398  0.7024 -0.3424
 1972TIP3    H227408   2.022   5.393   3.729  0.0855  0.5783 -0.5011
 1973TIP3   OH227409   2.887   6.373  16.036 -0.2595 -0.1517  0.3780
 1973TIP3    H127410   2.795   6.396  16.049 -0.3018  0.2828 -0.6653
 1973TIP3    H227411   2.914   6.426  15.962  1.0762  0.3755  1.2279
 1974TIP3   OH227412   5.681   1.406  16.825  0.1657  0.5652 -0.2829
 1974TIP3    H127413   5.690   1.334  16.888  0.7304  0.0989 -0.8966
 1974TIP3    H227414   5.617   1.465  16.866 -0.5109 -0.4183  0.0992
 1975TIP3   OH227415   0.430   4.665   5.980 -0.3411 -0.2342 -0.0574
 1975TIP3    H127416   0.357   4.725   5.996 -1.6648 -1.8488  0.0618
 1975TIP3    H227417   0.475   4.657   6.064  0.3927  1.2616 -0.2842
 1976TIP3   OH227418   0.119   4.536  16.380  0.2573  0.2810 -0.8880
 1976TIP3    H127419   0.173   4.522  16.458 -1.3067  0.2215  0.2010
 1976TIP3    H227420   0.105   4.630  16.378 -2.4740 -0.0537  0.8159
 1977TIP3   OH227421   3.998   2.173  16.146  0.2110 -0.6405 -0.2996
 1977TIP3    H127422   4.030   2.171  16.056  1.1109  2.2091 -0.0983
 1977TIP3    H227423   3.909   2.138  16.141 -0.5943  1.6201 -2.6938
 1978TIP3   OH227424   5.486   2.301  16.794 -0.1088 -0.0358  0.0258
 1978TIP3    H127425   5.436   2.284  16.874  0.8549  0.2728  0.7065
 1978TIP3    H227426   5.479   2.220  16.744 -2.8078  0.6352 -0.7330
 1979TIP3   OH227427   6.249   4.091  15.389  0.3298  0.6875  0.3471
 1979TIP3    H127428   6.264   4.006  15.347 -1.8103  0.9156 -0.9232
 1979TIP3    H227429   6.175   4.076  15.447 -0.0014  1.6577  0.1843
 1980TIP3   OH227430   3.819   2.014  16.577  0.4509 -0.1882 -0.7340
 1980TIP3    H127431   3.732   2.040  16.548  0.5181 -1.8583 -2.5748
 1980TIP3    H227432   3.878   2.078  16.538  0.1852 -0.1420 -1.0669
 1981TIP3   OH227433   4.434   6.224  16.516 -0.0892 -0.5112 -0.2672
 1981TIP3    H127434   4.404   6.158  16.453  0.5777 -0.0436 -1.0855
 1981TIP3    H227435   4.527   6.206  16.528 -0.4723 -1.3960  1.5878
 1982TIP3   OH227436   0.578   5.174  14.572 -0.2271  0.1884  0.1863
 1982TIP3    H127437   0.614   5.179  14.660 -1.3741  0.4382  0.6421
 1982TIP3    H227438   0.615   5.093  14.536  2.4303  1.4857 -0.1060
 1983TIP3   OH227439   2.134   5.905   0.867  0.1856  0.3920  0.4190
 1983TIP3    H127440   2.171   5.816   0.864  0.5180  0.5620 -1.0369
 1983TIP3    H227441   2.197   5.959   0.820 -0.2296  1.3297  0.9191
 1984TIP3   OH227442   1.713   5.502  13.454 -0.1175 -0.1518  0.9010
 1984TIP3    H127443   1.744   5.592  13.462  0.1439 -0.1020 -0.5363
 1984TIP3    H227444   1.749   5.457  13.530  2.0334  0.3080  0.1725
 1985TIP3   OH227445   6.724   5.056  12.039  0.4592 -0.1288 -0.3413
 1985TIP3    H127446   6.711   4.976  12.089  2.3725  0.3010  0.8518
 1985TIP3    H227447   6.759   5.119  12.102  0.6013  1.1446 -1.6655
 1986TIP3   OH227448   0.564   4.889   5.301  0.1437  0.1945 -0.0031
 1986TIP3    H127449   0.585   4.948   5.373  0.8580  0.3099 -0.2993
 1986TIP3    H227450   0.469   4.895   5.291  0.2592  1.6541 -0.3432
 1987TIP3   OH227451   0.868   0.933  13.636  0.1190  0.0507  0.5746
 1987TIP3    H127452   0.783   0.972  13.616 -1.1994 -3.7356 -1.7870
 1987TIP3    H227453   0.918   0.941  13.555 -0.6893 -4.1439 -0.4670
 1988TIP3   OH227454   2.402   3.305  16.770 -0.4440 -0.0516 -0.5238
 1988TIP3    H127455   2.311   3.312  16.796 -0.6169 -0.2497 -1.0597
 1988TIP3    H227456   2.416   3.212  16.754  0.4774 -0.3432  1.7520
 1989TIP3   OH227457   6.669   1.675  13.590 -0.4166  0.5037  0.3400
 1989TIP3    H127458   6.712   1.710  13.668 -3.2063  1.2896  1.5823
 1989TIP3    H227459   6.682   1.742  13.523 -0.0975  0.9331  0.8297
 1990TIP3   OH227460   6.761   0.680   2.261  0.0330 -0.3127 -0.1552
 1990TIP3    H127461   6.696   0.619   2.225 -0.4469 -0.6091  1.1562
 1990TIP3    H227462   6.716   0.764   2.264  0.3514 -0.1148 -1.0220
 1991TIP3   OH227463   5.930   1.536   5.048  0.2675 -0.7862  0.2285
 1991TIP3    H127464   6.020   1.511   5.070  0.0177 -0.7739  1.2902
 1991TIP3    H227465   5.875   1.484   5.107 -0.3987 -0.4363 -0.0794
 1992TIP3   OH227466   1.159   1.922   4.180  0.1317  0.0647 -0.3134
 1992TIP3    H127467   1.221   1.915   4.107  1.2982  0.2527  0.6477
 1992TIP3    H227468   1.096   1.988   4.152  1.0283  0.7112 -0.8256
 1993TIP3   OH227469   6.007   0.243  13.073 -0.6199 -0.2002  0.4595
 1993TIP3    H127470   5.971   0.245  12.984 -0.6414  1.1112  0.4848
 1993TIP3    H227471   6.098   0.271  13.062 -0.4507 -0.6314  0.7714
 1994TIP3   OH227472   0.591   1.367  14.436 -0.8395 -0.4493 -0.0911
 1994TIP3    H127473   0.522   1.405  14.382  0.0455  1.3038 -0.0099
 1994TIP3    H227474   0.628   1.298  14.381 -0.9525  0.3061 -1.1343
 1995TIP3   OH227475   1.624   0.384  10.713  0.4728 -0.1759  0.5417
 1995TIP3    H127476   1.592   0.336  10.789  0.5170  1.7135  1.7774
 1995TIP3    H227477   1.566   0.459  10.705  0.6440 -0.1938 -1.1272
 1996TIP3   OH227478   2.112   0.437  16.750  0.1794 -0.1998  0.8471
 1996TIP3    H127479   2.185   0.386  16.716  1.3482  0.6378  2.0922
 1996TIP3    H227480   2.038   0.376  16.747  0.3631 -0.3470 -2.5813
 1997TIP3   OH227481   5.612   4.213  14.423  0.2473  0.1561 -0.5389
 1997TIP3    H127482   5.688   4.207  14.365 -1.0057 -1.4030 -2.0483
 1997TIP3    H227483   5.649   4.241  14.507  2.6390 -1.4961 -0.9753
 1998TIP3   OH227484   2.699   3.561   4.548  0.1375  0.0173  0.4152
 1998TIP3    H127485   2.783   3.602   4.527 -0.2651 -0.0832 -1.5299
 1998TIP3    H227486   2.679   3.507   4.471 -1.5615 -0.2013  0.9843
 1999TIP3   OH227487   0.992   3.749  11.035  0.0301 -0.2047 -0.3535
 1999TIP3    H127488   0.951   3.684  11.093  0.1241 -0.7872 -0.9347
 1999TIP3    H227489   0.923   3.771  10.972 -0.0799  0.4460 -0.0062
 2000TIP3   OH227490   5.352   2.090  15.377 -0.4491  0.3884 -0.6705
 2000TIP3    H127491   5.387   2.178  15.368 -0.2123  0.3593 -0.0758
 2000TIP3    H227492   5.425   2.032  15.354 -0.2319  0.3349  0.1222
 2001TIP3   OH227493   5.150   4.291   1.096  0.0452  0.6048  0.7190
 2001TIP3    H127494   5.060   4.285   1.127  0.7653 -0.1447  2.7771
 2001TIP3    H227495   5.189   4.206   1.117  1.2174  0.9095 -0.1569
 2002TIP3   OH227496   2.431   2.928  15.171  0.4521 -0.0045  0.3687
 2002TIP3    H127497   2.506   2.875  15.144  0.4095 -1.0747  2.2182
 2002TIP3    H227498   2.362   2.863  15.188  0.0852  0.7177  1.6841
 2003TIP3   OH227499   2.619   1.009  16.947  0.4820 -0.5871  0.4144
 2003TIP3    H127500   2.558   1.032  17.017 -0.2825  0.4533 -0.5668
 2003TIP3    H227501   2.705   1.033  16.982 -0.2548  4.0199 -0.5271
 2004TIP3   OH227502   6.329   4.339  11.221 -0.2393  0.0734 -0.0388
 2004TIP3    H127503   6.252   4.392  11.242  0.1188  0.5134  0.1759
 2004TIP3    H227504   6.344   4.356  11.128  0.2376  0.8301  0.1715
 2005TIP3   OH227505   5.729   1.917  13.326  0.1415 -0.1564 -0.1996
 2005TIP3    H127506   5.768   1.933  13.412  0.4158 -1.3810 -0.0972
 2005TIP3    H227507   5.801   1.929  13.265 -0.0918  0.8835 -0.2824
 2006TIP3   OH227508   1.551   3.515  15.244  0.0029 -0.2507  0.2143
 2006TIP3    H127509   1.538   3.555  15.158  0.7693  0.2145  0.3071
 2006TIP3    H227510   1.614   3.573  15.288  0.5690 -1.1573  0.6246
 2007TIP3   OH227511   6.773   1.038  14.227 -0.0146 -0.1737 -0.2805
 2007TIP3    H127512   6.784   0.988  14.147  0.7849  1.2328 -1.0780
 2007TIP3    H227513   6.856   1.084  14.238 -0.7964  1.1300  0.2963
 2008TIP3   OH227514   5.710   1.869  12.432  0.2867  0.3282 -0.6854
 2008TIP3    H127515   5.639   1.823  12.477  0.9391 -1.4794 -1.4895
 2008TIP3    H227516   5.698   1.846  12.339  2.2794 -0.4873 -0.7474
 2009TIP3   OH227517   4.739   2.781  17.230 -0.2188 -0.3966 -0.4542
 2009TIP3    H127518   4.688   2.825  17.162  0.0905  0.8740  0.1163
 2009TIP3    H227519   4.793   2.850  17.267 -1.0698 -0.8703  1.7230
 2010TIP3   OH227520   6.135   3.097   2.779  0.0362  0.2539  0.0984
 2010TIP3    H127521   6.053   3.063   2.818 -0.2665 -0.0075 -0.7656
 2010TIP3    H227522   6.178   3.020   2.743  0.3262  0.4995 -0.0807
 2011TIP3   OH227523   5.894   2.812  15.080 -0.2656  0.7919  0.3513
 2011TIP3    H127524   5.838   2.880  15.042 -1.8445 -0.8523 -0.3249
 2011TIP3    H227525   5.967   2.805  15.020 -1.5495 -0.1060 -1.1418
 2012TIP3   OH227526   1.897   6.016  12.358  0.3353 -0.4032 -0.0087
 2012TIP3    H127527   1.950   6.081  12.405 -0.2728  0.8977 -1.0780
 2012TIP3    H227528   1.946   6.000  12.277 -0.6411  0.4358 -0.7785
 2013TIP3   OH227529   5.741   1.236  13.824  0.2788 -0.1801 -0.4600
 2013TIP3    H127530   5.655   1.273  13.804  0.3816 -0.2423 -1.0086
 2013TIP3    H227531   5.722   1.150  13.861 -0.0185  0.8238  1.8334
 2014TIP3   OH227532   6.515   4.199  13.047 -0.2926 -0.3916 -0.3607
 2014TIP3    H127533   6.517   4.268  12.981  0.5422 -0.4674 -0.4231
 2014TIP3    H227534   6.547   4.241  13.127  0.2663 -0.7108 -0.4101
 2015TIP3   OH227535   2.898   2.192   1.852 -0.3486 -0.1884  0.1184
 2015TIP3    H127536   2.894   2.271   1.798 -1.9297 -0.1635  0.2475
 2015TIP3    H227537   2.833   2.133   1.813 -1.2927 -0.2902  1.7879
 2016TIP3   OH227538   6.027   3.429  13.957  0.7211 -0.4389 -0.2771
 2016TIP3    H127539   5.948   3.448  14.006  0.8127 -0.3010 -0.1809
 2016TIP3    H227540   6.066   3.515  13.941  0.8672 -0.5086 -0.2965
 2017TIP3   OH227541   2.780   5.774  10.978 -0.3737 -0.3627 -0.2188
 2017TIP3    H127542   2.783   5.704  10.913 -0.0892 -0.6449  0.0957
 2017TIP3    H227543   2.821   5.849  10.934  1.7970 -1.1720  0.3715
 2018TIP3   OH227544   0.909   1.408   4.646 -0.3396  0.0728 -0.1770
 2018TIP3    H127545   0.895   1.358   4.566 -0.2030  1.5033 -1.1146
 2018TIP3    H227546   0.944   1.344   4.708  0.3856 -0.8606 -1.5244
 2019TIP3   OH227547   1.637   3.879   4.967 -0.0064 -0.8574  0.0114
 2019TIP3    H127548   1.704   3.875   5.035  1.0367  0.9894 -0.8716
 2019TIP3    H227549   1.568   3.934   5.003  0.2450 -0.4334 -0.1427
 2020TIP3   OH227550   4.821   4.609   5.303 -0.2756 -0.0372 -0.2039
 2020TIP3    H127551   4.831   4.704   5.293 -0.7528  0.1796  1.2267
 2020TIP3    H227552   4.795   4.597   5.394  2.7061 -1.7712  0.4810
 2021TIP3   OH227553   6.135   2.690  13.616 -0.0202  0.1629  0.2208
 2021TIP3    H127554   6.089   2.758  13.665 -0.8226 -0.7391  0.7333
 2021TIP3    H227555   6.077   2.670  13.543  1.1073  1.4011 -1.0685
 2022TIP3   OH227556   4.193   5.520  15.805  0.3424 -0.2822 -0.2867
 2022TIP3    H127557   4.249   5.447  15.778  1.1224  0.1060  0.2650
 2022TIP3    H227558   4.106   5.481  15.816 -0.1497 -0.3717 -3.8287
 2023TIP3   OH227559   2.138   2.131   4.637 -0.2116 -0.5760 -0.2236
 2023TIP3    H127560   2.219   2.111   4.591 -0.6035  0.8969 -1.5893
 2023TIP3    H227561   2.109   2.047   4.674  2.1392 -1.0298  0.6396
 2024TIP3   OH227562   3.184   4.001  12.434  0.1518 -0.0736  0.0698
 2024TIP3    H127563   3.111   3.963  12.483  0.7750  0.2787  1.2921
 2024TIP3    H227564   3.148   4.019  12.347 -1.0801 -0.3233  0.5224
 2025TIP3   OH227565   4.753   4.819   3.089  0.2717  0.1317  0.0813
 2025TIP3    H127566   4.665   4.805   3.123  0.4454 -0.6243  0.2262
 2025TIP3    H227567   4.745   4.804   2.995  0.4474 -0.9259  0.2282
 2026TIP3   OH227568   1.913   1.914   3.999  0.5107 -0.3307 -0.3465
 2026TIP3    H127569   1.997   1.903   3.953  0.3171 -0.2521 -0.7136
 2026TIP3    H227570   1.882   1.825   4.013  0.7654 -0.3694 -0.0058
 2027TIP3   OH227571   1.667   4.210   1.562  0.0148  0.0370  0.0128
 2027TIP3    H127572   1.623   4.130   1.593 -0.3766  0.3473  0.2657
 2027TIP3    H227573   1.687   4.259   1.641  0.1723  0.2311 -0.1469
 2028TIP3   OH227574   0.560   5.172   3.025  0.4180 -0.1946  0.0033
 2028TIP3    H127575   0.568   5.238   2.957  0.6736  0.3018  0.5121
 2028TIP3    H227576   0.477   5.129   3.007  0.4651 -0.0374 -0.5957
 2029TIP3   OH227577   6.102   0.641   3.095  0.7050 -0.2529  0.2440
 2029TIP3    H127578   6.174   0.658   3.155  1.0599 -0.1877 -0.2015
 2029TIP3    H227579   6.119   0.554   3.060  0.9477  0.0460 -0.3941
 2030TIP3   OH227580   3.157   3.817   2.467  0.1316  0.2655  0.3655
 2030TIP3    H127581   3.063   3.827   2.482  0.1634 -0.1074  0.8028
 2030TIP3    H227582   3.192   3.905   2.481  0.0571  0.0754  1.7227
 2031TIP3   OH227583   3.925   5.108   0.338  0.0795  0.1782 -0.1210
 2031TIP3    H127584   3.872   5.093   0.416 -1.2066  2.3961 -0.5267
 2031TIP3    H227585   4.016   5.103   0.369 -0.3982 -0.3979  1.2081
 2032TIP3   OH227586   6.109   1.330   1.893 -0.1386  0.3672  0.6663
 2032TIP3    H127587   6.065   1.352   1.811  1.6939  0.2909 -0.3394
 2032TIP3    H227588   6.087   1.238   1.908  0.7206 -0.0276 -0.4862
 2033TIP3   OH227589   6.131   6.317   3.354  0.3763  0.4617 -0.1957
 2033TIP3    H127590   6.223   6.292   3.355  0.6959  1.5956  1.4677
 2033TIP3    H227591   6.090   6.256   3.292  2.1583 -0.3186 -0.6382
 2034TIP3   OH227592   4.667   6.649  16.532 -0.3842  0.1873  0.2527
 2034TIP3    H127593   4.655   6.647  16.627 -0.6273 -2.9582  0.2031
 2034TIP3    H227594   4.658   6.741  16.509  0.8996  1.1704  3.4283
 2035TIP3   OH227595   2.714   6.049  13.767  0.0622 -0.3798  0.1781
 2035TIP3    H127596   2.650   5.979  13.782 -0.4302 -0.1107 -0.6193
 2035TIP3    H227597   2.665   6.130  13.780 -0.3074 -0.1440 -2.3942
 2036TIP3   OH227598   4.665   5.864   1.715  0.0939 -0.0624  0.0943
 2036TIP3    H127599   4.657   5.816   1.798 -0.4619 -0.4180 -0.1628
 2036TIP3    H227600   4.575   5.884   1.690  0.2124 -0.6379 -0.8174
 2037TIP3   OH227601   3.975   2.358  15.827  0.2654 -0.6637  0.1038
 2037TIP3    H127602   3.990   2.398  15.913  0.7023  1.5982 -0.9758
 2037TIP3    H227603   3.884   2.330  15.828 -0.7054  2.3303  0.1876
 2038TIP3   OH227604   5.435   5.672  13.783  0.2069  0.1017 -0.4467
 2038TIP3    H127605   5.366   5.701  13.842  0.1063 -0.6460 -0.1903
 2038TIP3    H227606   5.442   5.577  13.798  1.8455  0.2885  0.1325
 2039TIP3   OH227607   5.641   6.727  15.396 -0.1043  0.7416 -0.4195
 2039TIP3    H127608   5.602   6.704  15.480  0.8941 -1.3047 -0.4999
 2039TIP3    H227609   5.572   6.712  15.332  0.3262 -1.4295 -0.3915
 2040TIP3   OH227610   5.178   0.617  14.845  0.4428  0.2844 -0.1999
 2040TIP3    H127611   5.258   0.599  14.796  0.5701  0.4612 -0.0531
 2040TIP3    H227612   5.187   0.567  14.926 -0.0971 -0.6152 -0.6714
 2041TIP3   OH227613   0.055   6.348  16.704  0.6986  0.7054  0.3150
 2041TIP3    H127614   0.032   6.344  16.611  1.0047  0.8648  0.2338
 2041TIP3    H227615   0.081   6.439  16.719  2.6233  0.2138  0.0889
 2042TIP3   OH227616   0.551   6.707   2.253  0.3620 -0.1200 -0.3395
 2042TIP3    H127617   0.519   6.626   2.293 -3.2795  0.9502 -0.9197
 2042TIP3    H227618   0.630   6.681   2.206 -0.5057 -3.2613 -0.1695
 2043TIP3   OH227619   2.701   6.719   2.598  0.1168 -0.1655 -0.5278
 2043TIP3    H127620   2.785   6.682   2.625 -0.6389 -0.2299  1.8348
 2043TIP3    H227621   2.641   6.645   2.597  0.1480 -0.1982 -2.6436
 2044TIP3   OH227622   2.411   5.674   4.690 -0.2348  0.5547  0.1466
 2044TIP3    H127623   2.467   5.708   4.621 -0.0733 -1.2446 -0.6459
 2044TIP3    H227624   2.428   5.730   4.765  0.5322  1.7482 -0.8986
 2045TIP3   OH227625   4.671   5.952  15.560 -0.0990 -0.2325 -0.4169
 2045TIP3    H127626   4.605   5.905  15.611 -0.6498  0.2038 -0.7179
 2045TIP3    H227627   4.652   6.044  15.575 -0.0536 -0.1006 -1.1232
 2046TIP3   OH227628   6.350   5.369  11.416  0.2071 -0.2687  0.7427
 2046TIP3    H127629   6.413   5.400  11.350  0.1742 -1.9840 -0.1215
 2046TIP3    H227630   6.319   5.449  11.459  2.1269  0.6908  0.4015
 2047TIP3   OH227631   0.642   3.572  17.267 -0.4370 -0.2493 -0.5099
 2047TIP3    H127632   0.642   3.608  17.178  0.2909 -1.1498 -0.8788
 2047TIP3    H227633   0.583   3.497  17.263 -1.8095  0.7743  0.2168
 2048TIP3   OH227634   2.455   2.772   1.009 -0.5082  0.1747  0.4344
 2048TIP3    H127635   2.411   2.797   0.927 -0.2033 -1.6007 -0.2829
 2048TIP3    H227636   2.395   2.802   1.078 -1.3962  0.5169 -0.4667
 2049TIP3   OH227637   5.367   0.588   4.630  0.2670 -0.2129  0.0051
 2049TIP3    H127638   5.382   0.538   4.549  0.1711  0.1459 -0.2362
 2049TIP3    H227639   5.272   0.602   4.631  0.3451  0.3123 -0.1340
 2050TIP3   OH227640   4.413   2.706   3.032  0.1714 -0.4217  0.4061
 2050TIP3    H127641   4.347   2.638   3.035  0.5511 -0.7870  0.5784
 2050TIP3    H227642   4.375   2.774   2.977 -0.1054 -0.8864  0.0164
 2051TIP3   OH227643   3.533   0.904  16.164  0.4425 -0.2396  0.2206
 2051TIP3    H127644   3.453   0.897  16.215 -0.5023  0.3032 -1.1596
 2051TIP3    H227645   3.566   0.815  16.158 -0.2037 -0.5020  0.5609
 2052TIP3   OH227646   0.136   6.245   3.492  0.3348 -0.0604 -0.2736
 2052TIP3    H127647   0.076   6.173   3.471  1.6629 -1.0725 -0.6944
 2052TIP3    H227648   0.166   6.226   3.581 -0.5872  0.9010  0.2597
 2053TIP3   OH227649   4.563   6.067  14.720  0.1359 -0.5445  0.2354
 2053TIP3    H127650   4.591   5.982  14.688  0.5417 -0.3661  0.1146
 2053TIP3    H227651   4.483   6.049  14.770  0.3533 -1.0210  0.4075
 2054TIP3   OH227652   5.303   0.910   4.362  0.2590  0.2391 -0.1994
 2054TIP3    H127653   5.277   0.964   4.289  0.4295  0.5299 -0.0441
 2054TIP3    H227654   5.325   0.972   4.432 -1.1995 -0.0486  0.5441
 2055TIP3   OH227655   4.982   6.577   1.613  0.3163 -0.3142 -0.4600
 2055TIP3    H127656   4.983   6.531   1.697 -0.3956 -0.3687 -0.4751
 2055TIP3    H227657   4.899   6.626   1.614  0.5547  0.0979 -0.9046
 2056TIP3   OH227658   5.281   5.610   2.589 -0.2230  0.4933 -0.2924
 2056TIP3    H127659   5.204   5.604   2.532  1.0212  2.4326 -2.2258
 2056TIP3    H227660   5.256   5.674   2.655 -2.0035 -2.4120  1.9939
 2057TIP3   OH227661   5.556   1.222  13.452  0.1591  0.4548  0.4387
 2057TIP3    H127662   5.473   1.202  13.494  0.3964  0.4826  0.9275
 2057TIP3    H227663   5.613   1.148  13.473  0.0921  0.1790 -0.3494
 2058TIP3   OH227664   3.207   4.795  12.265  0.0901 -0.6819 -0.4465
 2058TIP3    H127665   3.185   4.839  12.347  1.1380 -0.4372 -0.2866
 2058TIP3    H227666   3.194   4.702  12.283  0.5660 -0.6504  0.0844
 2059TIP3   OH227667   6.108   5.721  13.821  0.1374 -0.6317 -0.1446
 2059TIP3    H127668   6.166   5.796  13.830  0.9036 -0.7500 -3.3769
 2059TIP3    H227669   6.089   5.694  13.911  0.9328  2.5662  1.0443
 2060TIP3   OH227670   1.218   4.025  13.035 -0.1349 -0.3741  0.0885
 2060TIP3    H127671   1.156   3.974  12.982  0.1525 -1.4051  0.7148
 2060TIP3    H227672   1.296   4.033  12.979  0.3261 -1.8289  0.4849
 2061TIP3   OH227673   0.741   2.602   0.988  0.5941 -0.0567  0.7554
 2061TIP3    H127674   0.721   2.626   0.898 -0.0203 -0.3656  0.8073
 2061TIP3    H227675   0.783   2.516   0.981  1.0377  0.1632  0.7211
 2062TIP3   OH227676   0.761   5.910  15.008 -0.1392  0.1760  0.1300
 2062TIP3    H127677   0.839   5.870  14.970 -2.2277 -2.0531 -1.9885
 2062TIP3    H227678   0.714   5.837  15.049 -2.7646  0.8182 -1.5968
 2063TIP3   OH227679   1.672   3.612   4.955 -0.3221  0.1762 -0.2174
 2063TIP3    H127680   1.720   3.589   4.876 -0.0030  0.3216 -0.0716
 2063TIP3    H227681   1.670   3.708   4.955  1.4720  0.2567  0.9797
 2064TIP3   OH227682   1.658   3.794  14.387 -0.4986 -0.1072  0.4910
 2064TIP3    H127683   1.683   3.850  14.314  1.0470  0.0676  1.1450
 2064TIP3    H227684   1.569   3.821  14.409 -1.2492 -0.6282 -1.7654
 2065TIP3   OH227685   4.377   1.488  13.953  0.2657 -0.6508 -0.1410
 2065TIP3    H127686   4.354   1.555  14.017 -0.5847 -1.2181  0.1566
 2065TIP3    H227687   4.358   1.527  13.868  1.3833  0.1019 -0.0510
 2066TIP3   OH227688   2.669   3.404   1.077 -0.0578  0.3049 -0.1398
 2066TIP3    H127689   2.685   3.320   1.119  2.4094  0.4352 -0.7154
 2066TIP3    H227690   2.698   3.392   0.986 -0.6031  1.4914 -0.4932
 2067TIP3   OH227691   4.398   6.246   5.617  0.3740  0.5133  0.0411
 2067TIP3    H127692   4.484   6.215   5.588 -0.0237  1.4052 -2.1574
 2067TIP3    H227693   4.347   6.253   5.537 -1.8808 -0.3201  1.3607
 2068TIP3   OH227694   6.453   3.404  12.245 -0.1340  0.2559 -0.1917
 2068TIP3    H127695   6.493   3.392  12.331  1.1407 -0.0318 -0.8057
 2068TIP3    H227696   6.359   3.393  12.260  0.3435 -3.8158  0.5281
 2069TIP3   OH227697   5.365   0.472  10.269  0.0912 -0.1917 -0.1949
 2069TIP3    H127698   5.365   0.438  10.359  0.4953  0.2386 -0.0250
 2069TIP3    H227699   5.273   0.491  10.251  0.0176 -0.1939  0.1659
 2070TIP3   OH227700   4.512   2.180   6.303  0.0483 -0.2470  0.0787
 2070TIP3    H127701   4.479   2.105   6.253 -1.4703 -0.1523  0.8966
 2070TIP3    H227702   4.555   2.140   6.379  1.3846 -0.3525 -0.7162
 2071TIP3   OH227703   4.415   4.724   4.576  0.2407 -0.0774 -0.9114
 2071TIP3    H127704   4.454   4.735   4.663 -2.2633 -1.1587  0.3955
 2071TIP3    H227705   4.402   4.813   4.544  0.8510  0.3300 -0.0414
 2072TIP3   OH227706   5.891   3.055  14.584  0.2925  0.2271  0.3393
 2072TIP3    H127707   5.986   3.055  14.599  0.2995 -0.6047  0.2885
 2072TIP3    H227708   5.876   2.983  14.523 -0.4509 -0.0412  0.8379
 2073TIP3   OH227709   3.079   1.999   5.992  0.0215 -0.0773 -0.8208
 2073TIP3    H127710   3.053   2.049   5.914  2.5099  1.4469 -0.7064
 2073TIP3    H227711   3.120   1.920   5.957 -0.6260 -0.3223 -1.0340
 2074TIP3   OH227712   6.360   1.482   0.144  0.0660  0.0463 -0.0011
 2074TIP3    H127713   6.454   1.491   0.127 -0.1641  2.3775 -0.2002
 2074TIP3    H227714   6.319   1.479   0.058 -0.2241  1.3643  0.0809
 2075TIP3   OH227715   1.126   3.277  16.000 -0.1980 -0.0912  0.2995
 2075TIP3    H127716   1.030   3.280  16.010 -0.1969 -1.8382  1.1438
 2075TIP3    H227717   1.151   3.195  16.042  1.7565  0.6643  0.6528
 2076TIP3   OH227718   6.707   1.162  11.812 -0.5887  0.0662  0.0864
 2076TIP3    H127719   6.674   1.170  11.723  0.0575 -0.7219 -0.2339
 2076TIP3    H227720   6.644   1.104  11.856 -0.8462  0.3643  0.1128
 2077TIP3   OH227721   6.665   1.201  14.979 -0.0595  0.2996  0.1677
 2077TIP3    H127722   6.615   1.175  15.057  0.0406  0.4566  0.2855
 2077TIP3    H227723   6.633   1.144  14.910 -0.8232  0.7860  0.1097
 2078TIP3   OH227724   6.774   2.611   2.650 -0.2061  0.5660 -0.5787
 2078TIP3    H127725   6.868   2.621   2.661 -0.2522  1.1138 -0.6937
 2078TIP3    H227726   6.756   2.522   2.680  0.3112  0.5473 -0.3233
 2079TIP3   OH227727   4.249   2.411  15.264  0.2109 -0.4117  0.7612
 2079TIP3    H127728   4.190   2.347  15.304 -1.2117  0.3209 -0.1282
 2079TIP3    H227729   4.289   2.456  15.338 -1.2163 -0.1328  1.3768
 2080TIP3   OH227730   4.059   0.667   2.713  0.8137  0.4667  0.0720
 2080TIP3    H127731   3.992   0.636   2.652  1.5022 -0.6967 -0.1031
 2080TIP3    H227732   4.057   0.763   2.703  1.7164  0.2684 -2.6718
 2081TIP3   OH227733   0.085   1.741  13.804 -1.1493 -0.2360 -0.5310
 2081TIP3    H127734   0.143   1.813  13.781 -1.0396 -0.4804 -1.0273
 2081TIP3    H227735   0.142   1.674  13.841 -1.0446 -0.6521 -1.4210
 2082TIP3   OH227736   3.866   2.599  13.377  0.0351 -0.1857  0.4416
 2082TIP3    H127737   3.906   2.650  13.306  1.3715 -1.1182  0.5221
 2082TIP3    H227738   3.855   2.511  13.341  2.1803 -1.0766  1.8972
 2083TIP3   OH227739   3.465   2.830  11.732 -0.1126 -0.0026  0.5235
 2083TIP3    H127740   3.486   2.854  11.823  0.9114  2.9169 -0.4259
 2083TIP3    H227741   3.485   2.908  11.682 -3.3839 -0.6265 -1.8885
 2084TIP3   OH227742   0.415   4.075   1.445  0.4402  0.5338 -0.0087
 2084TIP3    H127743   0.398   4.164   1.412 -1.0800 -0.1414 -1.1103
 2084TIP3    H227744   0.503   4.056   1.415 -0.0378  0.8499 -1.6928
 2085TIP3   OH227745   1.632   2.106   4.449 -0.7589 -0.1041 -0.6851
 2085TIP3    H127746   1.653   2.199   4.442 -1.4542  0.0908 -0.2569
 2085TIP3    H227747   1.536   2.102   4.442 -0.7361 -0.7893 -0.7101
 2086TIP3   OH227748   2.190   3.041  14.091 -0.2753  0.0021 -0.3271
 2086TIP3    H127749   2.269   3.065  14.043 -0.8040 -0.6001 -1.5209
 2086TIP3    H227750   2.124   3.104  14.061 -0.4160  0.1056  0.1939
 2087TIP3   OH227751   0.152   0.832   3.560 -0.1650 -0.2165 -0.0907
 2087TIP3    H127752   0.150   0.881   3.643  0.8855 -0.2559 -0.0317
 2087TIP3    H227753   0.098   0.885   3.500  2.3432  1.9718 -0.5185
 2088TIP3   OH227754   4.553   1.870  13.814  0.5903 -0.3687  0.5696
 2088TIP3    H127755   4.605   1.836  13.888 -0.9711 -1.2145  1.3176
 2088TIP3    H227756   4.595   1.832  13.737 -0.7217 -3.5958  1.3449
 2089TIP3   OH227757   1.569   3.289   3.271 -0.3598  0.6835 -0.3471
 2089TIP3    H127758   1.528   3.205   3.292 -0.8697  1.1611  0.5593
 2089TIP3    H227759   1.560   3.296   3.175 -1.5176  0.3278 -0.2755
 2090TIP3   OH227760   4.136   5.676  13.781 -0.6138 -0.0256 -0.1464
 2090TIP3    H127761   4.053   5.628  13.784 -0.7872  0.2860  0.1104
 2090TIP3    H227762   4.113   5.761  13.745 -0.2296 -0.2857 -0.9971
 2091TIP3   OH227763   1.201   4.593   4.500 -0.2585  0.1023 -0.0290
 2091TIP3    H127764   1.230   4.507   4.529  0.6005 -0.1725 -1.6241
 2091TIP3    H227765   1.219   4.651   4.574 -0.6594 -1.0435  0.9847
 2092TIP3   OH227766   0.756   3.257  11.864  0.3906 -0.6845  0.3411
 2092TIP3    H127767   0.797   3.171  11.852 -0.1231 -0.8045 -0.6339
 2092TIP3    H227768   0.776   3.305  11.784  1.6556  0.5309  1.3714
 2093TIP3   OH227769   4.936   4.078   3.777 -1.0626  0.0371 -0.5157
 2093TIP3    H127770   4.862   4.070   3.837 -0.0761  1.0265  0.8586
 2093TIP3    H227771   4.914   4.152   3.721 -1.3260  0.0200 -0.4358
 2094TIP3   OH227772   3.834   0.787   1.204 -0.1117  0.6441 -0.1403
 2094TIP3    H127773   3.810   0.697   1.181 -3.1139  1.2091  0.5522
 2094TIP3    H227774   3.864   0.781   1.294 -1.8377  0.5218  0.4559
 2095TIP3   OH227775   4.893   0.391   1.109  0.0025  0.1070 -0.5052
 2095TIP3    H127776   4.908   0.308   1.153 -2.4806 -1.0991 -1.8258
 2095TIP3    H227777   4.937   0.456   1.163  0.6040 -1.8635  1.4126
 2096TIP3   OH227778   2.923   6.701   2.767  0.3432  0.1020 -0.3782
 2096TIP3    H127779   2.952   6.675   2.855  1.8487  0.9973 -0.5948
 2096TIP3    H227780   3.003   6.702   2.715 -0.4124  0.4755 -1.5419
 2097TIP3   OH227781   4.940   2.467  12.478 -0.0390  0.2391  0.1269
 2097TIP3    H127782   4.850   2.446  12.500 -0.0101 -0.9953 -0.9026
 2097TIP3    H227783   4.972   2.391  12.430  0.9765  1.4033 -1.0982
 2098TIP3   OH227784   0.528   0.380  11.065 -0.0687  0.0400  0.0638
 2098TIP3    H127785   0.433   0.371  11.066  0.0356 -1.7099 -2.2763
 2098TIP3    H227786   0.543   0.463  11.020 -0.4618 -1.2096 -2.4684
 2099TIP3   OH227787   2.261   0.270  15.056  0.0761 -0.2977 -0.6874
 2099TIP3    H127788   2.190   0.235  15.108  1.0344 -0.5046  0.5015
 2099TIP3    H227789   2.229   0.354  15.023 -0.7429 -0.4353 -0.2352
 2100TIP3   OH227790   1.340   3.885   4.415 -0.3596  0.2240  0.1797
 2100TIP3    H127791   1.417   3.910   4.467  0.8731  0.2212 -1.6058
 2100TIP3    H227792   1.294   3.967   4.401  0.9000  0.7271 -1.2162
 2101TIP3   OH227793   0.321   5.767   1.167 -0.2318  0.0495  0.3185
 2101TIP3    H127794   0.364   5.851   1.182 -1.6977  0.7088  0.9507
 2101TIP3    H227795   0.348   5.742   1.078  0.7146  0.8811  0.3683
 2102TIP3   OH227796   4.070   5.260   4.656  0.1060 -0.7956 -0.4100
 2102TIP3    H127797   4.155   5.301   4.638 -0.7990  0.4528 -1.8583
 2102TIP3    H227798   4.050   5.210   4.577 -1.2344  0.1692 -0.6946
 2103TIP3   OH227799   5.536   1.048  11.195  1.1273  0.1333 -0.1844
 2103TIP3    H127800   5.602   1.014  11.135 -0.1236 -1.4498 -0.6854
 2103TIP3    H227801   5.517   0.974  11.253  0.6642  0.9570  0.7208
 2104TIP3   OH227802   0.599   3.456  15.125  0.8110  0.2355 -0.6517
 2104TIP3    H127803   0.582   3.491  15.038  2.6671  1.7019 -0.4425
 2104TIP3    H227804   0.597   3.361  15.113  1.4495  0.4262 -2.3615
 2105TIP3   OH227805   5.993   6.505   3.193 -0.4625 -0.1046 -0.2215
 2105TIP3    H127806   6.030   6.428   3.237 -0.3896 -0.4855 -0.9376
 2105TIP3    H227807   5.909   6.519   3.236 -0.3497 -0.4227  0.1033
 2106TIP3   OH227808   3.939   0.574  13.730 -0.5806  0.2796 -0.0386
 2106TIP3    H127809   3.925   0.608  13.818  0.2028  0.4268  0.0271
 2106TIP3    H227810   4.006   0.630  13.692 -1.6764  0.8986 -1.1236
 2107TIP3   OH227811   4.737   2.414  13.636 -0.1299 -0.7696  0.0235
 2107TIP3    H127812   4.669   2.422  13.703 -0.0070 -1.4364  0.2256
 2107TIP3    H227813   4.700   2.352  13.572 -0.2160 -0.2016 -0.4844
 2108TIP3   OH227814   3.782   1.621   0.080 -0.1774  0.1101  1.1588
 2108TIP3    H127815   3.813   1.540   0.041 -1.5418  0.5927 -0.9785
 2108TIP3    H227816   3.731   1.593   0.156 -0.4585 -1.0129  0.5599
 2109TIP3   OH227817   5.919   0.682   5.474 -0.9902 -0.1306 -0.0368
 2109TIP3    H127818   5.915   0.712   5.565  0.2286 -0.6014  0.1816
 2109TIP3    H227819   5.997   0.723   5.438 -1.7004  0.3788 -0.9971
 2110TIP3   OH227820   2.191   5.511  15.320 -0.1202  0.2773 -0.1527
 2110TIP3    H127821   2.236   5.552  15.393  1.9439  0.5906 -1.5538
 2110TIP3    H227822   2.145   5.582  15.276  0.0751  0.3865 -0.1798
 2111TIP3   OH227823   3.589   4.454  13.753 -0.1854 -0.0258 -0.2906
 2111TIP3    H127824   3.599   4.522  13.686  2.8805 -0.3237 -0.1752
 2111TIP3    H227825   3.638   4.379  13.719  0.6306 -0.4979  1.8711
 2112TIP3   OH227826   4.143   0.987   4.188 -0.0390  0.9810 -0.3946
 2112TIP3    H127827   4.108   0.942   4.265  0.4548  1.2636  0.0056
 2112TIP3    H227828   4.234   1.006   4.212  0.0630  1.2335 -0.9796
 2113TIP3   OH227829   2.908   0.088   3.516 -0.2966  0.0307  0.1537
 2113TIP3    H127830   2.868   0.133   3.591 -2.3016  1.0112 -1.4693
 2113TIP3    H227831   2.895  -0.005   3.534 -2.1220  0.2987  0.3089
 2114TIP3   OH227832   0.277   6.726  13.274  0.2207  0.3189 -0.3173
 2114TIP3    H127833   0.212   6.675  13.323  0.8460 -0.3378 -0.1553
 2114TIP3    H227834   0.308   6.792  13.336 -0.4509  0.7692 -0.4631
 2115TIP3   OH227835   2.128   5.257   0.282  0.3302  0.2060  0.6267
 2115TIP3    H127836   2.210   5.300   0.258 -0.7831  2.5795  0.9377
 2115TIP3    H227837   2.070   5.273   0.207 -0.7912  1.1911  1.6866
 2116TIP3   OH227838   0.896   3.834   5.746  0.3933  0.0506 -0.3295
 2116TIP3    H127839   0.814   3.845   5.699 -0.7621 -2.5703  0.9689
 2116TIP3    H227840   0.904   3.913   5.800  0.0126  1.4612 -2.2828
 2117TIP3   OH227841   1.444   5.077  11.329  0.0316  0.6270 -0.2978
 2117TIP3    H127842   1.517   5.033  11.374 -2.1736 -1.4910  1.3560
 2117TIP3    H227843   1.421   5.018  11.258 -0.8138  0.7217 -0.1040
 2118TIP3   OH227844   0.728   6.330   4.304 -0.6007  0.0410 -0.0578
 2118TIP3    H127845   0.710   6.400   4.367  1.1332 -0.1504  0.6735
 2118TIP3    H227846   0.730   6.374   4.219  2.6034  1.2955  0.6071
 2119TIP3   OH227847   2.800   2.232  15.799  0.4002 -0.0106  0.3894
 2119TIP3    H127848   2.785   2.145  15.764  0.6055  0.2446 -0.3424
 2119TIP3    H227849   2.795   2.290  15.723  0.8031  0.5536  0.7846
 2120TIP3   OH227850   0.388   0.755   3.685  0.3538 -0.1140 -0.0474
 2120TIP3    H127851   0.343   0.725   3.764  0.2162 -0.1026 -0.1212
 2120TIP3    H227852   0.318   0.781   3.626  0.5238  3.0028  1.0406
 2121TIP3   OH227853   2.578   5.609   3.807 -0.7210 -0.2982 -0.0989
 2121TIP3    H127854   2.486   5.617   3.783 -0.5388 -0.8451 -1.0102
 2121TIP3    H227855   2.580   5.544   3.877 -0.9527 -0.7972 -0.5561
 2122TIP3   OH227856   0.455   1.162   3.880  0.5513  0.1396 -0.4969
 2122TIP3    H127857   0.502   1.143   3.799  1.0968 -0.0689 -0.1411
 2122TIP3    H227858   0.389   1.093   3.886  1.0503 -0.3367 -0.3530
 2123TIP3   OH227859   2.605   0.507  12.194  0.1105 -0.1171  0.3052
 2123TIP3    H127860   2.649   0.591  12.203 -0.3331 -0.0141  1.7108
 2123TIP3    H227861   2.511   0.528  12.192  0.0699 -0.3450 -2.5190
 2124TIP3   OH227862   0.205   3.662   4.740 -0.1077  0.1708 -0.1460
 2124TIP3    H127863   0.282   3.666   4.797 -0.1895 -1.5842  0.1193
 2124TIP3    H227864   0.201   3.571   4.712 -2.8655 -0.1009  0.9596
 2125TIP3   OH227865   2.999   1.310  14.695 -0.5390  0.4715  0.6950
 2125TIP3    H127866   3.088   1.314  14.659 -0.0365 -0.1171  1.8648
 2125TIP3    H227867   3.003   1.361  14.776 -1.8049  2.2598 -0.3134
 2126TIP3   OH227868   3.058   2.056   3.167  0.3955  0.3764  0.1794
 2126TIP3    H127869   3.015   2.122   3.112  0.3929 -0.0914 -0.3780
 2126TIP3    H227870   3.135   2.101   3.201  0.2943  0.7301 -0.0495
 2127TIP3   OH227871   3.971   3.669   4.333 -0.3238  0.0280 -0.2998
 2127TIP3    H127872   4.004   3.652   4.245 -0.1507  0.5740 -0.3402
 2127TIP3    H227873   3.893   3.723   4.320 -0.2630  0.1626 -0.1170
 2128TIP3   OH227874   6.363   1.161   5.225  0.0933  0.0562  0.2796
 2128TIP3    H127875   6.346   1.129   5.137 -0.0763  0.3297  0.2150
 2128TIP3    H227876   6.373   1.255   5.216 -0.2264  0.1221  0.5991
 2129TIP3   OH227877   4.475   6.048  13.473  0.2605 -0.5169 -0.0136
 2129TIP3    H127878   4.395   6.099  13.467 -0.1410 -0.9459  1.5479
 2129TIP3    H227879   4.447   5.957  13.465  0.6528 -0.6380 -0.0522
 2130TIP3   OH227880   2.983   5.229   2.073 -0.6759 -0.2617 -0.6942
 2130TIP3    H127881   2.940   5.162   2.020 -1.6003 -1.3463  1.3772
 2130TIP3    H227882   2.919   5.250   2.142  0.7801  0.5956  0.4206
 2131TIP3   OH227883   1.081   4.376  16.393 -0.6000 -0.5170  0.0597
 2131TIP3    H127884   1.091   4.412  16.481  0.2640 -1.6308  0.4315
 2131TIP3    H227885   1.157   4.408  16.345 -0.0659 -1.4738  0.2648
 2132TIP3   OH227886   4.925   2.109   2.612  0.2084  0.0432 -0.8418
 2132TIP3    H127887   4.834   2.083   2.629  0.3773 -0.0323 -0.0555
 2132TIP3    H227888   4.922   2.204   2.609  0.3319  0.0993  0.5200
 2133TIP3   OH227889   1.991   2.665  12.658 -0.1055  0.2107 -0.0943
 2133TIP3    H127890   2.044   2.716  12.596 -1.0680  0.0471 -1.0703
 2133TIP3    H227891   1.901   2.678  12.629 -0.5910  0.2291  1.3607
 2134TIP3   OH227892   2.770   3.588   3.891  0.0788  0.0477  0.3609
 2134TIP3    H127893   2.681   3.559   3.872  0.5350 -1.6996  0.8454
 2134TIP3    H227894   2.767   3.615   3.983  0.0924 -0.1849  0.4299
 2135TIP3   OH227895   2.999   3.758  15.280  0.4395  0.2033  0.0747
 2135TIP3    H127896   2.963   3.671  15.262  0.6239  0.0712  0.3367
 2135TIP3    H227897   2.975   3.776  15.370  0.0374  0.6086 -0.1110
 2136TIP3   OH227898   2.571   1.401   4.442  0.5427 -0.1099  0.1646
 2136TIP3    H127899   2.592   1.482   4.488  2.3456 -0.3032 -0.2784
 2136TIP3    H227900   2.651   1.350   4.447 -0.5194 -1.8032  0.2787
 2137TIP3   OH227901   2.995   5.475  14.716  0.0333  0.2555  0.1122
 2137TIP3    H127902   3.057   5.528  14.664 -0.1579 -0.7292 -1.1637
 2137TIP3    H227903   2.909   5.512  14.696 -0.0214  0.0050 -0.1208
 2138TIP3   OH227904   4.172   5.580   2.323 -0.9144  0.3331 -0.4619
 2138TIP3    H127905   4.147   5.612   2.410  1.0296  1.0334 -0.1372
 2138TIP3    H227906   4.214   5.655   2.282  0.4454 -0.7462 -1.0671
 2139TIP3   OH227907   6.791   1.700   5.055 -0.5900  0.4402  0.2521
 2139TIP3    H127908   6.780   1.773   5.116  0.9238 -2.3039  4.0169
 2139TIP3    H227909   6.703   1.680   5.024 -2.0108 -0.4633  4.5524
 2140TIP3   OH227910   5.473   6.415  13.245 -0.2247 -0.3289  0.1699
 2140TIP3    H127911   5.381   6.418  13.270 -0.2105 -2.0815  0.4330
 2140TIP3    H227912   5.503   6.328  13.271  1.3385 -0.0099 -0.5034
 2141TIP3   OH227913   2.517   5.617  14.152  0.1617  0.0577  0.2561
 2141TIP3    H127914   2.424   5.610  14.133  0.5403 -0.7963 -1.3995
 2141TIP3    H227915   2.548   5.687  14.095  0.5106  0.4783  0.9484
 2142TIP3   OH227916   5.022   5.113  13.779 -0.3100 -0.0882  1.0918
 2142TIP3    H127917   4.992   5.031  13.738  0.6314  0.1605 -0.1060
 2142TIP3    H227918   4.965   5.180  13.741  0.1358  0.0565  0.6803
 2143TIP3   OH227919   6.380   4.720  15.300 -0.4139  0.1092 -0.2450
 2143TIP3    H127920   6.407   4.674  15.221  2.2776 -0.1789  0.7954
 2143TIP3    H227921   6.451   4.705  15.363 -2.1828  0.8570  2.0295
 2144TIP3   OH227922   2.845   5.769   5.794 -0.2643  0.6059 -0.0303
 2144TIP3    H127923   2.872   5.745   5.883 -1.9196  0.2100  0.3767
 2144TIP3    H227924   2.776   5.706   5.772 -0.4536  1.2400 -1.2766
 2145TIP3   OH227925   6.233   5.282  13.679  0.2950 -0.4009 -0.0742
 2145TIP3    H127926   6.259   5.198  13.718  0.7252 -0.3523 -0.2525
 2145TIP3    H227927   6.313   5.315  13.638 -0.4031 -0.9427 -1.8829
 2146TIP3   OH227928   4.189   4.010  13.042 -0.5053  0.0268  0.3393
 2146TIP3    H127929   4.160   4.045  13.126  0.6207 -1.9623  1.5920
 2146TIP3    H227930   4.245   4.079  13.005  0.8100  0.0354  2.2700
 2147TIP3   OH227931   5.251   2.899   4.787 -0.3709  0.0275 -0.4415
 2147TIP3    H127932   5.323   2.837   4.773 -0.0495  0.4779 -0.7898
 2147TIP3    H227933   5.199   2.893   4.706  0.5171  1.3441 -1.1264
 2148TIP3   OH227934   2.896   2.965   1.377  0.0220 -0.0310 -0.1935
 2148TIP3    H127935   2.806   2.983   1.403 -0.2752  0.9405 -1.8214
 2148TIP3    H227936   2.910   2.873   1.402 -1.1608  0.0305  0.7460
 2149TIP3   OH227937   2.872   4.685   1.340  0.5551  0.4967  0.6480
 2149TIP3    H127938   2.870   4.750   1.270  1.2380  0.5536  0.6749
 2149TIP3    H227939   2.788   4.693   1.384 -0.2618 -0.1640 -0.7448
 2150TIP3   OH227940   3.154   3.407  12.732 -0.0039  0.2270 -0.1905
 2150TIP3    H127941   3.228   3.436  12.678  0.1341 -0.2839 -0.2708
 2150TIP3    H227942   3.140   3.316  12.708  2.4539 -1.1444  3.3186
 2151TIP3   OH227943   1.968   2.244   2.071  0.1852  0.0305  0.2994
 2151TIP3    H127944   1.954   2.324   2.122 -1.5787 -1.3417  2.0809
 2151TIP3    H227945   2.007   2.183   2.133 -1.4468 -1.4782 -0.1061
 2152TIP3   OH227946   0.973   3.239   4.747 -0.1604  0.2310 -0.2328
 2152TIP3    H127947   0.986   3.287   4.666 -0.1540  0.7349  0.0687
 2152TIP3    H227948   1.029   3.282   4.811 -0.1016 -0.2169  0.0245
 2153TIP3   OH227949   6.356   1.147  14.953 -0.0338 -0.0009  0.4713
 2153TIP3    H127950   6.338   1.219  14.892 -1.5078 -0.5911  0.1713
 2153TIP3    H227951   6.273   1.100  14.958  1.0954 -2.0914  0.1152
 2154TIP3   OH227952   3.754   3.868  14.818 -0.0025  0.4991  0.0849
 2154TIP3    H127953   3.698   3.921  14.876  1.2419  1.0112  0.8437
 2154TIP3    H227954   3.702   3.855  14.739 -1.1729  1.0100  0.7646
 2155TIP3   OH227955   5.051   1.710  14.065 -0.3643  0.6056 -0.1252
 2155TIP3    H127956   5.014   1.625  14.042  0.0628  0.4677 -0.3045
 2155TIP3    H227957   4.997   1.741  14.138 -0.0924 -0.1369  0.3979
 2156TIP3   OH227958   0.264   3.576   0.198 -0.2974 -0.7771 -1.1057
 2156TIP3    H127959   0.195   3.614   0.142 -0.3573  0.6980 -0.0647
 2156TIP3    H227960   0.220   3.559   0.281  0.3061 -0.9839 -0.8295
 2157TIP3   OH227961   3.286   3.390  16.292  0.4894 -0.5616 -0.0023
 2157TIP3    H127962   3.236   3.335  16.352  0.1618 -0.1116  0.1451
 2157TIP3    H227963   3.330   3.329  16.234 -0.5963 -0.9637 -0.4233
 2158TIP3   OH227964   6.763   6.023   5.209  0.2875 -0.0783  0.0254
 2158TIP3    H127965   6.848   6.030   5.252  0.7289  0.5617 -0.9136
 2158TIP3    H227966   6.753   5.930   5.190  0.7821 -0.1607  0.1513
 2159TIP3   OH227967   6.512   2.635   5.127  0.3743 -0.5315  0.2533
 2159TIP3    H127968   6.515   2.541   5.144  1.4944 -0.3733  1.0229
 2159TIP3    H227969   6.604   2.661   5.127  0.0077  0.8982  2.0276
 2160TIP3   OH227970   0.898   1.749   3.691  0.1102  0.3399 -0.8225
 2160TIP3    H127971   0.902   1.738   3.596  0.7250 -0.8086 -0.6781
 2160TIP3    H227972   0.927   1.664   3.726 -1.4002  0.3161  0.3924
 2161TIP3   OH227973   1.847   5.673   6.195  0.1825  0.0720 -0.1093
 2161TIP3    H127974   1.828   5.612   6.123  0.4403  1.0214 -0.9840
 2161TIP3    H227975   1.761   5.690   6.234 -0.1354  0.4976 -0.9646
 2162TIP3   OH227976   0.513   1.100  11.357 -0.2032 -0.2412  0.2347
 2162TIP3    H127977   0.554   1.027  11.310  1.4296 -0.2437  1.5804
 2162TIP3    H227978   0.420   1.081  11.356  0.1817 -2.1726  0.2691
 2163TIP3   OH227979   3.427   4.151   0.843 -0.2842  0.0940 -0.0290
 2163TIP3    H127980   3.418   4.246   0.849  2.1915  0.4140 -0.6904
 2163TIP3    H227981   3.351   4.117   0.889 -1.1457  2.3920  0.3373
 2164TIP3   OH227982   6.624   5.850   0.522  0.1830  0.3540 -0.7065
 2164TIP3    H127983   6.717   5.845   0.545  0.5148  0.7964 -1.8949
 2164TIP3    H227984   6.578   5.833   0.604  1.3191  0.6255  0.0028
 2165TIP3   OH227985   5.859   1.183  14.242 -0.1598  0.5538  0.1304
 2165TIP3    H127986   5.829   1.098  14.207  1.9047  0.0848 -0.5569
 2165TIP3    H227987   5.891   1.230  14.166 -0.4860  1.6302  0.6505
 2166TIP3   OH227988   1.183   2.279   3.736 -0.2611  0.9723 -0.2684
 2166TIP3    H127989   1.195   2.185   3.745  2.4695  1.3682  0.7352
 2166TIP3    H227990   1.104   2.298   3.786 -0.2594 -0.6393  0.3733
 2167TIP3   OH227991   3.661   3.004   2.274  0.2258  0.2152 -0.1195
 2167TIP3    H127992   3.706   2.934   2.321 -0.6076 -0.5069 -0.3848
 2167TIP3    H227993   3.677   2.984   2.181 -1.0905 -0.3564 -0.2317
 2168TIP3   OH227994   4.891   2.351   3.490 -0.4716  0.1006 -0.4840
 2168TIP3    H127995   4.866   2.297   3.415  0.5899  2.2524 -2.4861
 2168TIP3    H227996   4.970   2.397   3.460  0.1723  0.7294  2.1076
 2169TIP3   OH227997   1.171   6.047  11.855  0.0007 -0.0677  0.5292
 2169TIP3    H127998   1.133   6.102  11.787 -0.0555 -0.1152  0.5215
 2169TIP3    H227999   1.220   6.108  11.911  0.1113 -0.0409  0.4011
 2170TIP3   OH228000   3.286   1.579  16.077 -0.0110  0.4428  0.0059
 2170TIP3    H128001   3.214   1.537  16.030 -0.3196 -0.0332  0.8883
 2170TIP3    H228002   3.311   1.653  16.021 -0.4612 -0.0242 -0.8317
 2171TIP3   OH228003   4.396   3.178   5.058  1.0172  0.0941 -0.0526
 2171TIP3    H128004   4.476   3.231   5.061  0.7697  0.4081  1.6387
 2171TIP3    H228005   4.387   3.144   5.147 -1.4401  1.1795  0.1518
 2172TIP3   OH228006   0.657   5.332   3.217  0.6418  0.0306 -0.0116
 2172TIP3    H128007   0.715   5.313   3.291 -1.0836 -1.2684  1.0538
 2172TIP3    H228008   0.635   5.246   3.181  0.6167  0.6021 -1.3748
 2173TIP3   OH228009   6.494   4.496  11.668 -0.6314 -0.1662  0.1077
 2173TIP3    H128010   6.418   4.501  11.611 -0.6295 -0.1896  0.1026
 2173TIP3    H228011   6.502   4.584  11.706  0.8972  0.5961 -1.9084
 2174TIP3   OH228012   4.649   5.437   0.529  0.0346 -0.3549 -0.5058
 2174TIP3    H128013   4.640   5.476   0.442 -0.4936 -1.0995 -0.8004
 2174TIP3    H228014   4.741   5.410   0.533  1.1068  3.2715  0.7508
 2175TIP3   OH228015   0.516   0.826   3.936  0.1871 -0.3533 -0.0404
 2175TIP3    H128016   0.603   0.864   3.925 -0.1076  0.5447  0.7371
 2175TIP3    H228017   0.485   0.811   3.846  1.0292 -0.4338 -0.3239
 2176TIP3   OH228018   3.640   0.071   2.493 -0.3023 -0.2148  0.1551
 2176TIP3    H128019   3.710   0.103   2.550 -0.4957  1.0868 -0.3396
 2176TIP3    H228020   3.575   0.035   2.553 -0.1173  0.3796  0.7184
 2177TIP3   OH228021   5.646   5.055  12.669 -0.0165 -0.1067 -0.2027
 2177TIP3    H128022   5.622   5.146  12.652 -0.1971 -0.0365  0.4079
 2177TIP3    H228023   5.673   5.054  12.761  2.9430 -0.0572 -1.0136
 2178TIP3   OH228024   0.211   3.497   1.857  0.5852  0.0763  0.3072
 2178TIP3    H128025   0.157   3.574   1.873 -1.1269 -1.2179  0.8742
 2178TIP3    H228026   0.254   3.516   1.773  1.0228  2.0770  0.9435
 2179TIP3   OH228027   1.636   0.951   5.235  0.3807  0.2939  0.9108
 2179TIP3    H128028   1.615   1.044   5.220 -0.3481  0.1064  0.7181
 2179TIP3    H228029   1.713   0.952   5.291  0.1273  1.0205  1.2514
 2180TIP3   OH228030   3.819   0.506  16.562  0.3913 -0.6954  0.0481
 2180TIP3    H128031   3.885   0.563  16.522  1.3720 -1.5121  0.4815
 2180TIP3    H228032   3.862   0.421  16.568 -0.2580 -0.9263  1.5274
 2181TIP3   OH228033   6.251   2.099   4.859  0.2372 -0.4344 -0.5910
 2181TIP3    H128034   6.285   2.140   4.780  0.6523 -2.3110 -1.4073
 2181TIP3    H228035   6.157   2.087   4.842  0.4377 -1.4011 -1.0713
 2182TIP3   OH228036   2.371   2.194  16.322  0.3902  0.3392  0.2236
 2182TIP3    H128037   2.389   2.106  16.287 -1.0367  0.5985 -1.2598
 2182TIP3    H228038   2.372   2.251  16.245 -3.4211  0.8370  0.4059
 2183TIP3   OH228039   1.631   4.967   0.818  0.0883 -0.1144  0.1024
 2183TIP3    H128040   1.625   5.038   0.882 -0.0091  0.4120 -0.4881
 2183TIP3    H228041   1.658   4.891   0.869 -1.7381 -0.1320  1.0739
 2184TIP3   OH228042   4.866   1.137  13.637 -0.6260  0.6799 -0.2592
 2184TIP3    H128043   4.827   1.143  13.550 -1.4981  3.6543  0.3082
 2184TIP3    H228044   4.915   1.218  13.647  2.1212 -1.0138  0.8249
 2185TIP3   OH228045   2.600   6.402  12.825  0.1276 -0.0666  0.1615
 2185TIP3    H128046   2.662   6.450  12.880  2.2138 -0.7455 -1.5050
 2185TIP3    H228047   2.620   6.430  12.736  0.4158 -2.8892 -0.7123
 2186TIP3   OH228048   1.061   0.349  11.973  0.2733 -0.2691 -0.2706
 2186TIP3    H128049   0.972   0.332  11.943  0.2440  2.5069 -1.8849
 2186TIP3    H228050   1.052   0.422  12.035  1.1913 -1.2921  1.0852
 2187TIP3   OH228051   5.777   3.917  15.593  0.0096 -0.7395  0.7042
 2187TIP3    H128052   5.682   3.910  15.604 -0.0966 -0.3791  0.0220
 2187TIP3    H228053   5.807   3.961  15.672 -0.9883  3.5839 -1.1883
 2188TIP3   OH228054   3.853   0.534  12.586  0.1877  0.6204 -0.4094
 2188TIP3    H128055   3.817   0.489  12.662 -0.8355 -0.5022 -1.5408
 2188TIP3    H228056   3.859   0.626  12.613 -0.1009  0.2206  1.0355
 2189TIP3   OH228057   5.520   2.818   1.854 -0.0211  0.4423  0.4082
 2189TIP3    H128058   5.547   2.732   1.823 -0.7949 -0.1754  1.4247
 2189TIP3    H228059   5.595   2.849   1.905 -0.2002 -0.1493  1.0428
 2190TIP3   OH228060   3.472   5.630   5.755 -0.0545  0.6999  0.0153
 2190TIP3    H128061   3.565   5.612   5.768 -0.6193 -0.9567  1.8873
 2190TIP3    H228062   3.444   5.568   5.688  0.7110  2.8850 -2.4159
 2191TIP3   OH228063   0.121   6.404  13.235  0.5758  0.2422  0.0364
 2191TIP3    H128064   0.199   6.414  13.181  0.0208  0.8734 -0.6681
 2191TIP3    H228065   0.056   6.366  13.176  0.3311 -0.2343  0.6026
 2192TIP3   OH228066   5.545   3.665   0.483 -0.3023 -0.8945 -0.2197
 2192TIP3    H128067   5.506   3.579   0.500  0.6800 -1.6153 -1.4965
 2192TIP3    H228068   5.634   3.658   0.517 -0.1239 -0.4764 -0.5925
 2193TIP3   OH228069   5.600   3.390  13.273  0.5773 -0.3155  0.2115
 2193TIP3    H128070   5.539   3.459  13.299  0.6777 -0.4798  0.8804
 2193TIP3    H228071   5.639   3.423  13.192 -0.4223 -0.2295 -0.2428
 2194TIP3   OH228072   5.087   5.392  14.186  0.4678  0.3231  0.4709
 2194TIP3    H128073   5.082   5.297  14.188 -1.0188  0.3980  0.8265
 2194TIP3    H228074   5.181   5.411  14.186  0.7874 -1.0976  2.5420
 2195TIP3   OH228075   5.060   5.930   3.634 -0.2735 -0.0051 -0.4992
 2195TIP3    H128076   4.980   5.901   3.679 -0.4058  0.1196 -0.6582
 2195TIP3    H228077   5.033   5.944   3.544 -0.9673  3.7781  0.2291
 2196TIP3   OH228078   2.860   0.137   2.613 -0.2340  0.1409 -0.7508
 2196TIP3    H128079   2.901   0.092   2.686 -0.4112  1.5049  0.2014
 2196TIP3    H228080   2.789   0.078   2.586  0.6730 -0.9833 -0.6971
 2197TIP3   OH228081   2.520   3.528   3.872 -0.2100  0.1652  0.7871
 2197TIP3    H128082   2.452   3.586   3.907 -0.8327  0.1151 -0.3152
 2197TIP3    H228083   2.495   3.440   3.902 -0.0315  0.2878  1.2942
 2198TIP3   OH228084   1.513   3.741   2.306  0.2882 -0.3011  0.3064
 2198TIP3    H128085   1.574   3.676   2.342  2.5067  1.8850  0.6772
 2198TIP3    H228086   1.450   3.756   2.377  0.2515 -1.4122  0.5236
 2199TIP3   OH228087   3.935   6.572  16.407 -0.0863  0.0862 -0.3007
 2199TIP3    H128088   4.028   6.573  16.387 -0.4457 -0.8645 -2.0286
 2199TIP3    H228089   3.891   6.580  16.323 -1.5827  0.7179  0.5051
 2200TIP3   OH228090   3.362   0.394   4.198  0.9708  0.6407 -0.4574
 2200TIP3    H128091   3.363   0.370   4.291 -1.7309 -0.0787 -0.5841
 2200TIP3    H228092   3.390   0.315   4.152 -0.2382  0.1518 -0.3847
 2201TIP3   OH228093   3.140   0.880  14.726 -0.2115  0.5366 -0.5548
 2201TIP3    H128094   3.171   0.845  14.642 -0.0972  0.6949 -0.5784
 2201TIP3    H228095   3.216   0.926  14.762 -0.8115  2.1039 -1.2509
 2202TIP3   OH228096   3.710   2.876   5.225  0.3433  0.3275  0.6323
 2202TIP3    H128097   3.685   2.913   5.310  0.4545  2.9824 -0.4805
 2202TIP3    H228098   3.629   2.879   5.173  0.9118  1.0934 -0.2032
 2203TIP3   OH228099   1.657   3.192  16.068  0.0237 -0.6038 -0.4833
 2203TIP3    H128100   1.750   3.172  16.060  0.2697 -0.3683  1.5080
 2203TIP3    H228101   1.644   3.268  16.011  1.2062 -0.2060 -0.2453
 2204TIP3   OH228102   5.728   5.049   1.867 -0.6928  0.0943 -0.1121
 2204TIP3    H128103   5.823   5.041   1.858 -0.2990  0.8607  2.8816
 2204TIP3    H228104   5.702   5.108   1.796  0.8092 -1.4994 -2.0261
 2205TIP3   OH228105   1.080   6.070   5.748  0.2390 -0.2595  0.4591
 2205TIP3    H128106   1.014   6.092   5.682  0.5245  0.1013  0.2991
 2205TIP3    H228107   1.036   6.087   5.832  0.5315  1.1324  0.3365
 2206TIP3   OH228108   3.113   3.813   5.511  0.1229 -0.2766  0.1047
 2206TIP3    H128109   3.076   3.819   5.599 -1.0012  2.0079 -0.4630
 2206TIP3    H228110   3.042   3.778   5.457 -0.6903  2.3119 -0.6261
 2207TIP3   OH228111   1.653   5.144  16.102  0.4928  0.0788  0.1265
 2207TIP3    H128112   1.692   5.168  16.018 -2.0505  0.2101 -1.0420
 2207TIP3    H228113   1.728   5.117  16.156  2.5596  3.2310 -1.0304
 2208TIP3   OH228114   5.867   1.354   6.653 -0.3764  0.0611  0.6063
 2208TIP3    H128115   5.936   1.366   6.588 -0.9329  1.6546  0.2837
 2208TIP3    H228116   5.913   1.324   6.732  0.2566 -2.2339 -0.6187
 2209TIP3   OH228117   3.579   1.150  11.645 -0.4739  0.8320  0.1075
 2209TIP3    H128118   3.645   1.211  11.611  0.1350  1.5545  2.5158
 2209TIP3    H228119   3.617   1.117  11.726 -2.5019  0.2008  0.8109
 2210TIP3   OH228120   5.269   6.437   0.968  0.0251 -0.4143  0.4776
 2210TIP3    H128121   5.291   6.430   1.061  0.9684 -0.5307  0.2480
 2210TIP3    H228122   5.217   6.517   0.962  2.6035  1.3149  0.6349
 2211TIP3   OH228123   1.888   3.385  13.138 -0.2168  0.0018 -0.2836
 2211TIP3    H128124   1.879   3.290  13.134 -2.9532  0.1566  1.0695
 2211TIP3    H228125   1.910   3.404  13.229 -3.2008  0.8737  0.2952
 2212TIP3   OH228126   3.897   0.921  11.186  0.4186 -0.7302 -0.3109
 2212TIP3    H128127   3.911   0.965  11.102 -2.0189 -0.4414 -0.6018
 2212TIP3    H228128   3.886   0.829  11.163 -1.4386 -0.4955 -0.4872
 2213TIP3   OH228129   6.561   4.995  14.008  0.5640 -0.4807  0.0860
 2213TIP3    H128130   6.490   4.938  13.976 -0.2276  0.4220  0.2114
 2213TIP3    H228131   6.628   4.934  14.039  0.5296 -1.3624 -1.5249
 2214TIP3   OH228132   2.950   6.052   5.794 -0.0003 -0.1379  0.1266
 2214TIP3    H128133   2.864   6.050   5.837  0.3077 -0.2521  0.7312
 2214TIP3    H228134   2.985   5.964   5.805  0.1071 -0.1485 -0.3036
 2215TIP3   OH228135   5.992   2.156  13.309  0.2117  0.0787  0.5507
 2215TIP3    H128136   6.002   2.233  13.252  0.6394  0.3235  0.9601
 2215TIP3    H228137   6.010   2.082  13.251 -1.6114  0.1893 -0.2202
 2216TIP3   OH228138   0.900   0.086  14.077 -0.2456  0.1864 -0.0472
 2216TIP3    H128139   0.929  -0.005  14.088 -0.9249 -0.0298 -0.0089
 2216TIP3    H228140   0.851   0.085  13.995  0.8303  0.7955 -0.7079
 2217TIP3   OH228141   2.990   6.172  14.245  0.0668 -0.5248 -0.4918
 2217TIP3    H128142   3.049   6.144  14.314  0.9322  1.5714 -0.3338
 2217TIP3    H228143   2.909   6.198  14.290  0.3409  0.0673 -0.3342
 2218TIP3   OH228144   6.385   1.216  14.563 -0.0656 -0.6222 -0.2366
 2218TIP3    H128145   6.325   1.216  14.489 -0.1466 -1.6243 -0.1850
 2218TIP3    H228146   6.332   1.240  14.639  0.2619  1.5650 -0.6782
 2219TIP3   OH228147   4.709   2.927   1.862  0.1575 -0.3484  0.3196
 2219TIP3    H128148   4.802   2.948   1.867 -0.4574  3.2894 -1.7696
 2219TIP3    H228149   4.697   2.891   1.775 -0.1001 -2.6079  1.2654
 2220TIP3   OH228150   6.766   2.839  12.881  0.5688 -0.4177  0.0901
 2220TIP3    H128151   6.859   2.829  12.900  1.0010  3.1246  0.1990
 2220TIP3    H228152   6.762   2.851  12.786  0.2739 -0.0428  0.1493
 2221TIP3   OH228153   5.065   3.174   0.471  0.0913 -0.3884  0.5932
 2221TIP3    H128154   5.055   3.081   0.494  0.2374 -0.1354  1.7100
 2221TIP3    H228155   5.150   3.178   0.427  0.1959 -0.7425  0.7585
 2222TIP3   OH228156   1.783   0.948  12.581  0.2845  0.6531  0.3226
 2222TIP3    H128157   1.738   1.030  12.603  0.9014  1.2071 -0.4643
 2222TIP3    H228158   1.724   0.880  12.613 -0.6080  1.3881  0.2863
 2223TIP3   OH228159   4.482   6.575  12.320 -0.4972  0.0337  0.3443
 2223TIP3    H128160   4.449   6.520  12.249 -0.4736  0.0653  0.3094
 2223TIP3    H228161   4.575   6.585  12.302 -0.6272  0.6283 -0.0212
 2224TIP3   OH228162   2.666   4.095   5.294 -0.1927 -0.8457  0.4430
 2224TIP3    H128163   2.670   4.185   5.262  2.7173 -0.9850  0.2213
 2224TIP3    H228164   2.617   4.048   5.227 -0.2944  0.2647 -0.2753
 2225TIP3   OH228165   6.650   3.080   1.799  0.7825  0.1779  0.5985
 2225TIP3    H128166   6.646   3.089   1.894 -2.0555  1.0962  0.4175
 2225TIP3    H228167   6.590   3.146   1.765  2.1126  0.1952 -1.8786
 2226TIP3   OH228168   5.765   5.776   2.557 -0.2039 -0.3396 -0.0937
 2226TIP3    H128169   5.686   5.771   2.504 -0.3327 -0.4453  0.1057
 2226TIP3    H228170   5.733   5.776   2.647  0.0240 -0.3968 -0.0128
 2227TIP3   OH228171   0.280   6.403   2.181  0.3813 -0.1574 -0.0740
 2227TIP3    H128172   0.310   6.421   2.270  2.2626  0.5923 -0.8284
 2227TIP3    H228173   0.344   6.340   2.147 -0.3070 -0.4154 -0.8948
 2228TIP3   OH228174   2.406   0.340  14.710 -0.4091  0.3810  0.8153
 2228TIP3    H128175   2.453   0.277  14.766 -0.9746 -0.2617  0.5758
 2228TIP3    H228176   2.326   0.360  14.759 -2.7209 -2.9979 -1.3280
 2229TIP3   OH228177   2.156   4.977  16.245 -0.2192 -0.0356  0.0794
 2229TIP3    H128178   2.212   5.055  16.251 -0.0036 -0.2334  0.6588
 2229TIP3    H228179   2.213   4.904  16.269 -0.6602 -0.2685  0.4265
 2230TIP3   OH228180   5.405   4.324   3.546  0.3875  0.0033  0.0518
 2230TIP3    H128181   5.446   4.321   3.459  1.4240  0.6257  0.5080
 2230TIP3    H228182   5.320   4.365   3.531 -0.3390 -1.8681 -1.0076
 2231TIP3   OH228183   1.568   1.662   6.145  0.0931 -0.4900  0.5237
 2231TIP3    H128184   1.552   1.647   6.238 -0.0409 -0.0167  0.5776
 2231TIP3    H228185   1.483   1.688   6.110  0.3596  0.3265  0.4701
 2232TIP3   OH228186   6.305   2.303  16.029 -0.4654 -0.0772  0.0949
 2232TIP3    H128187   6.223   2.289  15.981 -0.3272 -0.2771 -0.0837
 2232TIP3    H228188   6.345   2.217  16.034 -0.0525  0.0989 -0.2063
 2233TIP3   OH228189   2.771   0.306   0.860 -0.0454 -0.0027  0.4373
 2233TIP3    H128190   2.711   0.313   0.785  0.8821  1.7218 -0.1706
 2233TIP3    H228191   2.738   0.232   0.911 -1.3469 -0.4932 -1.0948
 2234TIP3   OH228192   2.824   5.606  16.664 -0.0021  0.4011 -0.1540
 2234TIP3    H128193   2.900   5.548  16.666 -0.6044 -0.3888  0.3550
 2234TIP3    H228194   2.776   5.585  16.744 -0.8351  0.7780 -0.5468
 2235TIP3   OH228195   4.747   4.650  12.325  0.4304 -0.6634 -0.1092
 2235TIP3    H128196   4.670   4.679  12.277  1.7401  0.7775 -1.3695
 2235TIP3    H228197   4.711   4.609  12.404 -1.6657 -1.3276 -1.3504
 2236TIP3   OH228198   4.996   3.280  16.829  0.1758  0.3642  0.5388
 2236TIP3    H128199   5.019   3.315  16.915  0.9605 -1.0706  0.9311
 2236TIP3    H228200   5.079   3.244  16.795  0.0352  1.5963 -1.1317
 2237TIP3   OH228201   6.602   6.283   1.305 -0.0494 -0.3236  0.4208
 2237TIP3    H128202   6.572   6.205   1.257  2.3755 -2.3532  2.1017
 2237TIP3    H228203   6.563   6.273   1.392  0.4902  0.2266  0.7216
 2238TIP3   OH228204   3.464   3.670  13.539 -0.2668  0.9121 -0.1592
 2238TIP3    H128205   3.455   3.699  13.630  0.3541  0.2230  0.1221
 2238TIP3    H228206   3.552   3.633  13.533 -0.3198  0.9039 -1.0290
 2239TIP3   OH228207   2.363   3.320   3.047 -0.2035  0.3230 -0.3446
 2239TIP3    H128208   2.378   3.228   3.027 -0.4363  0.3666 -0.7240
 2239TIP3    H228209   2.393   3.367   2.969  0.0490  0.5812 -0.0973
 2240TIP3   OH228210   4.457   6.373  13.016 -0.1091  0.1249  0.4724
 2240TIP3    H128211   4.379   6.322  13.033  0.2675 -0.6429 -0.0650
 2240TIP3    H228212   4.529   6.318  13.046  0.4014 -0.2856 -1.4559
 2241TIP3   OH228213   1.605   2.429   6.306 -0.4635  0.1769 -0.0335
 2241TIP3    H128214   1.572   2.351   6.351 -0.6545  0.2554 -0.0392
 2241TIP3    H228215   1.527   2.469   6.267 -0.2067 -0.2894 -1.0472
 2242TIP3   OH228216   1.267   1.293   0.119  0.4001  0.0586 -0.1049
 2242TIP3    H128217   1.224   1.316   0.202 -4.8186  0.3502 -2.6626
 2242TIP3    H228218   1.273   1.376   0.072  3.9790  0.0111  0.1647
 2243TIP3   OH228219   2.304   2.135   0.052 -0.2143  0.0526 -0.0935
 2243TIP3    H128220   2.351   2.199  -0.001  0.7290  0.1788  0.8871
 2243TIP3    H228221   2.349   2.052   0.036  0.3714  0.1804  0.8771
 2244TIP3   OH228222   1.043   4.891   3.736  0.7121  0.8773  0.6256
 2244TIP3    H128223   1.058   4.849   3.821 -0.0512 -0.3712  0.1525
 2244TIP3    H228224   1.029   4.983   3.758 -0.8335  0.3472  1.9873
 2245TIP3   OH228225   0.625   3.314   5.549  0.4712 -0.3276  0.0618
 2245TIP3    H128226   0.613   3.222   5.523  0.1795  0.1317 -1.4419
 2245TIP3    H228227   0.538   3.352   5.544  0.4050 -0.2145  1.7399
 2246TIP3   OH228228   3.633   5.024   3.532  0.2756 -0.0817  0.1622
 2246TIP3    H128229   3.619   5.007   3.625  0.3901  1.6325  0.4968
 2246TIP3    H228230   3.725   5.003   3.518  0.3010 -0.1802  0.4749
 2247TIP3   OH228231   0.788   3.238  15.473 -0.3974  0.3935 -0.0705
 2247TIP3    H128232   0.854   3.181  15.514 -1.6125 -0.9442  0.0710
 2247TIP3    H228233   0.762   3.191  15.394 -2.8811 -0.2593  1.0827
 2248TIP3   OH228234   0.609   5.697   0.297 -0.4374  0.6321  0.0034
 2248TIP3    H128235   0.546   5.637   0.336  0.1085 -0.8983 -1.3548
 2248TIP3    H228236   0.623   5.765   0.363 -0.0668 -1.4693  2.1648
 2249TIP3   OH228237   6.046   2.703  13.205 -0.2799 -0.3237  0.3137
 2249TIP3    H128238   5.960   2.743  13.209  0.1656  1.1266 -2.6847
 2249TIP3    H228239   6.086   2.723  13.289 -1.5960  2.0559  0.4176
 2250TIP3   OH228240   1.031   0.254  15.142 -0.2473 -0.4319  0.1322
 2250TIP3    H128241   0.978   0.290  15.213 -1.1938 -1.3409 -0.0929
 2250TIP3    H228242   0.967   0.221  15.079  0.5909 -1.4335 -0.2102
 2251TIP3   OH228243   6.329   0.369   2.684 -0.0316 -0.0123 -0.2561
 2251TIP3    H128244   6.378   0.331   2.757  3.3094  1.3116 -1.7208
 2251TIP3    H228245   6.311   0.459   2.711 -0.1133  0.0357 -0.4693
 2252TIP3   OH228246   3.752   0.888   3.489  0.6300  0.0242 -0.1465
 2252TIP3    H128247   3.768   0.908   3.581 -0.4813  0.6674 -0.0828
 2252TIP3    H228248   3.705   0.805   3.490 -0.5785  0.6966 -0.0488
 2253TIP3   OH228249   5.070   6.245   6.057  0.4626 -0.2996 -0.4371
 2253TIP3    H128250   5.117   6.187   6.117 -1.6006 -1.6151 -0.0396
 2253TIP3    H228251   5.025   6.186   5.997  0.9686  0.9762 -2.1074
 2254TIP3   OH228252   1.941   1.107   5.154  0.2888 -0.2305  0.0195
 2254TIP3    H128253   1.965   1.016   5.170 -0.8833 -0.3078  1.3968
 2254TIP3    H228254   1.994   1.156   5.217 -1.0499 -0.1884  1.1458
 2255TIP3   OH228255   3.222   5.199  13.313  0.9455  0.1122  0.2748
 2255TIP3    H128256   3.150   5.159  13.264  1.5235 -3.1107  1.9134
 2255TIP3    H228257   3.299   5.150  13.287  1.8509  0.7740  1.6603
 2256TIP3   OH228258   3.814   6.802   4.793  0.2241 -0.0680 -0.0295
 2256TIP3    H128259   3.771   6.718   4.779 -1.1320  0.9420 -2.2329
 2256TIP3    H228260   3.797   6.823   4.884 -1.6089 -1.0199 -0.1314
 2257TIP3   OH228261   3.255   1.813   6.553  0.0302 -0.4000  0.0369
 2257TIP3    H128262   3.341   1.839   6.586  0.8746 -0.5298 -1.9386
 2257TIP3    H228263   3.259   1.717   6.546 -0.9918 -0.5921  1.7804
 2258TIP3   OH228264   2.174   6.658  17.078  0.0920  0.3349  0.1275
 2258TIP3    H128265   2.127   6.603  17.141 -0.2361 -1.2802 -1.4588
 2258TIP3    H228266   2.154   6.748  17.104  0.9177 -0.2618  3.0181
 2259TIP3   OH228267   0.456   3.153   0.971  0.1325  0.0550 -0.2412
 2259TIP3    H128268   0.533   3.099   0.953 -0.5551 -0.4874 -1.6458
 2259TIP3    H228269   0.381   3.097   0.948 -0.7179  0.3766  1.6386
 2260TIP3   OH228270   0.954   6.152   1.115  0.0862  0.2071 -0.2155
 2260TIP3    H128271   1.024   6.091   1.137 -0.3903 -0.7067 -1.2125
 2260TIP3    H228272   0.893   6.102   1.061 -1.8858  0.6778  1.4775
 2261TIP3   OH228273   1.326   3.441  14.639  0.5095 -0.0608  0.4226
 2261TIP3    H128274   1.404   3.481  14.600 -0.5527  2.2871  0.6799
 2261TIP3    H228275   1.289   3.388  14.569  2.2625 -1.1324  0.2628
 2262TIP3   OH228276   2.315   4.983  15.460 -0.1618  0.5473  0.0400
 2262TIP3    H128277   2.255   5.054  15.436 -0.7768 -0.0829 -0.3326
 2262TIP3    H228278   2.258   4.914  15.495  0.6158  0.9679  2.2053
 2263TIP3   OH228279   2.497   3.545  10.937 -0.0827  0.1230 -0.9013
 2263TIP3    H128280   2.455   3.537  10.851  0.1897  2.1808 -1.2386
 2263TIP3    H228281   2.577   3.594  10.920  1.0751 -1.3424  0.1945
 2264TIP3   OH228282   6.212   6.474  11.497 -0.4556  0.0717 -0.2339
 2264TIP3    H128283   6.144   6.473  11.564  0.5196 -1.8927  0.7848
 2264TIP3    H228284   6.281   6.417  11.532  1.6939  1.9826 -1.2605
 2265TIP3   OH228285   4.835   4.569   4.521  0.2417  0.0449  0.2874
 2265TIP3    H128286   4.862   4.506   4.454 -0.9742  0.5246 -0.6790
 2265TIP3    H228287   4.811   4.515   4.596  1.6227 -0.5000  0.3484
 2266TIP3   OH228288   6.650   5.793  16.162 -0.2698  0.2012  0.7137
 2266TIP3    H128289   6.671   5.887  16.164 -0.0177  0.1542  0.2352
 2266TIP3    H228290   6.733   5.750  16.182  0.0405  0.0241 -0.9229
 2267TIP3   OH228291   4.820   4.947  17.130 -0.2230  0.5170 -0.1000
 2267TIP3    H128292   4.816   4.859  17.091  0.4766  1.0342 -1.3550
 2267TIP3    H228293   4.913   4.971  17.126 -0.2621  0.9165  1.1576
 2268TIP3   OH228294   6.245   0.484  13.962 -0.4391  0.0410  0.0855
 2268TIP3    H128295   6.200   0.411  13.918 -1.1186  0.4814  0.0431
 2268TIP3    H228296   6.332   0.487  13.922 -0.8950  0.1464 -0.9031
 2269TIP3   OH228297   1.773   4.847   6.011  0.1352  0.1909  0.5568
 2269TIP3    H128298   1.740   4.934   5.991 -0.2952 -0.1776 -0.3972
 2269TIP3    H228299   1.811   4.816   5.928  1.0400 -0.1891  1.1138
 2270TIP3   OH228300   6.577   4.955   4.649  0.1339 -0.2107 -0.0815
 2270TIP3    H128301   6.526   4.927   4.726 -1.1173  0.2085 -0.7401
 2270TIP3    H228302   6.652   4.896   4.648 -0.1567 -0.6303  1.1110
 2271TIP3   OH228303   3.980   4.417   2.281 -0.5975  0.0397 -0.1442
 2271TIP3    H128304   4.067   4.437   2.247 -1.2520 -0.9141 -2.4497
 2271TIP3    H228305   3.990   4.422   2.376  2.1011 -0.5954 -0.3561
 2272TIP3   OH228306   4.753   2.361   4.144 -0.6915 -0.3483 -0.6687
 2272TIP3    H128307   4.847   2.358   4.123 -0.1856  1.8199  1.0824
 2272TIP3    H228308   4.710   2.379   4.060  0.4178 -1.4771 -1.5105
 2273TIP3   OH228309   6.341   0.181   1.714  0.8280 -0.9452 -0.0249
 2273TIP3    H128310   6.417   0.124   1.699  0.8222 -1.0377  0.2884
 2273TIP3    H228311   6.271   0.120   1.736  0.4060 -0.9334 -1.3173
 2274TIP3   OH228312   6.432   6.116  13.165 -0.1797 -0.1123  0.4368
 2274TIP3    H128313   6.433   6.038  13.109  1.0489 -0.4644  0.9266
 2274TIP3    H228314   6.416   6.081  13.253  0.9987  0.1210  0.7482
 2275TIP3   OH228315   1.692   6.551   3.752  0.2306  0.1346  0.1067
 2275TIP3    H128316   1.738   6.471   3.726  2.0143  1.5376 -1.1942
 2275TIP3    H228317   1.716   6.564   3.844 -0.1345 -0.8404  0.3496
 2276TIP3   OH228318   6.722   1.900  13.432  0.0695  0.0851 -0.2888
 2276TIP3    H128319   6.755   1.981  13.393  0.1087  0.9739  1.5288
 2276TIP3    H228320   6.632   1.921  13.459  0.7554  0.1424  1.9811
 2277TIP3   OH228321   3.399   5.901   3.941  0.4539 -0.5727 -0.3274
 2277TIP3    H128322   3.429   5.812   3.926  0.1849 -0.6754 -0.2584
 2277TIP3    H228323   3.323   5.891   3.999 -0.6401 -0.4287 -1.7110
 2278TIP3   OH228324   4.834   5.429   0.182  0.9710 -0.4812 -0.4854
 2278TIP3    H128325   4.868   5.389   0.263 -0.2857  1.1424  0.8734
 2278TIP3    H228326   4.895   5.501   0.165 -0.9595  1.6165  1.2264
 2279TIP3   OH228327   4.918   5.368   0.440  0.1504 -0.2550 -0.1634
 2279TIP3    H128328   4.945   5.276   0.443  1.1965 -0.0669 -2.6332
 2279TIP3    H228329   4.989   5.415   0.484  0.3915 -0.4900 -0.2975
 2280TIP3   OH228330   0.502   4.008   6.192 -0.1493 -0.0493  0.2483
 2280TIP3    H128331   0.540   3.954   6.122 -0.9001  0.2140 -0.3772
 2280TIP3    H228332   0.413   4.026   6.162 -0.7728 -0.6548  1.6973
 2281TIP3   OH228333   2.233   3.639   4.768  1.0426 -0.1764  0.2547
 2281TIP3    H128334   2.267   3.590   4.692 -1.2069  0.4553 -1.2123
 2281TIP3    H228335   2.177   3.575   4.814 -0.8563  0.5808 -0.9372
 2282TIP3   OH228336   6.736   0.322   3.570 -0.0799  0.3500  0.2402
 2282TIP3    H128337   6.652   0.350   3.604  0.6994  1.7671  1.0642
 2282TIP3    H228338   6.744   0.231   3.596 -1.6679  0.0016 -0.4791
 2283TIP3   OH228339   6.785   0.753   4.592 -0.1572 -0.0345  0.1262
 2283TIP3    H128340   6.823   0.804   4.520  0.9043  0.4724  1.0287
 2283TIP3    H228341   6.731   0.816   4.639  0.1312 -0.0547  0.4870
 2284TIP3   OH228342   5.709   0.491   1.382 -0.4964 -0.1994  0.4724
 2284TIP3    H128343   5.635   0.466   1.326  1.5693 -0.7728 -2.1477
 2284TIP3    H228344   5.734   0.578   1.351  1.6272 -1.1516 -0.5855
 2285TIP3   OH228345   4.445   0.211  15.195 -0.2652  0.2953  0.1407
 2285TIP3    H128346   4.391   0.133  15.186 -2.9978  2.0919  0.3109
 2285TIP3    H228347   4.466   0.215  15.289 -2.1254  0.9990  0.5561
 2286TIP3   OH228348   5.440   5.087  15.372 -0.3185  0.3646  0.2476
 2286TIP3    H128349   5.421   5.022  15.439  0.1190 -1.0738 -0.9906
 2286TIP3    H228350   5.503   5.147  15.412  0.9422 -1.2333  0.7065
 2287TIP3   OH228351   1.499   3.781   3.612 -0.3886 -0.3657  0.0959
 2287TIP3    H128352   1.458   3.697   3.594  0.0390 -0.8765  1.4582
 2287TIP3    H228353   1.553   3.766   3.689  0.6278  0.8561 -0.3472
 2288TIP3   OH228354   0.065   6.028  12.140  0.3676  0.0750 -0.5080
 2288TIP3    H128355   0.050   5.938  12.110 -1.0772  0.4879 -1.0835
 2288TIP3    H228356  -0.022   6.068  12.136  0.6602  0.9390  1.6102
 2289TIP3   OH228357   1.990   1.455   4.370  0.5750 -0.4360 -0.0756
 2289TIP3    H128358   2.007   1.397   4.444  0.0794  1.1449  1.2983
 2289TIP3    H228359   1.919   1.413   4.322 -1.8146  0.4723  2.5514
 2290TIP3   OH228360   5.443   5.021   3.068 -0.3914  0.3895  0.2241
 2290TIP3    H128361   5.358   5.064   3.064  0.4514  1.9107 -2.3590
 2290TIP3    H228362   5.442   4.957   2.997  0.6974  0.5816  0.0244
 2291TIP3   OH228363   1.083   4.097  11.619  1.0665  0.5775  0.3987
 2291TIP3    H128364   1.133   4.090  11.537 -1.3937  1.6253 -1.2359
 2291TIP3    H228365   1.015   4.029  11.611 -0.3867  1.9787  0.6887
 2292TIP3   OH228366   1.664   4.738   5.112 -0.2659  0.9330  0.4701
 2292TIP3    H128367   1.611   4.807   5.150 -0.3992  1.5886 -0.8593
 2292TIP3    H228368   1.602   4.667   5.094 -0.4025  1.0553  0.4620
 2293TIP3   OH228369   2.136   1.301  10.611  0.6620  0.5061  0.1509
 2293TIP3    H128370   2.131   1.207  10.625  1.3830  0.4709  0.1911
 2293TIP3    H228371   2.045   1.331  10.614  0.4932 -0.0719  0.9754
 2294TIP3   OH228372   1.456   5.334   5.757  0.1550  0.4342  0.1522
 2294TIP3    H128373   1.398   5.380   5.697  1.9396  2.7808  0.1422
 2294TIP3    H228374   1.498   5.404   5.808  0.2759 -1.3927  2.6481
 2295TIP3   OH228375   6.422   2.133   5.893 -0.2158  0.5420 -0.1830
 2295TIP3    H128376   6.392   2.081   5.967  1.0098 -0.4040 -0.3466
 2295TIP3    H228377   6.377   2.096   5.817  1.8344 -1.3216 -0.5283
 2296TIP3   OH228378   1.519   0.501  14.528 -0.3268 -0.6488 -0.2567
 2296TIP3    H128379   1.428   0.508  14.558 -0.5873 -1.6282 -0.7818
 2296TIP3    H228380   1.570   0.545  14.596 -1.1293 -0.7784  0.4422
 2297TIP3   OH228381   6.654   1.098   2.481  0.2191 -0.0541 -0.0621
 2297TIP3    H128382   6.715   1.149   2.535 -0.1637 -1.0219  1.3294
 2297TIP3    H228383   6.570   1.142   2.491 -0.1495 -1.0293  1.2838
 2298TIP3   OH228384   5.866   0.622  15.237  0.1640 -0.4600 -0.8010
 2298TIP3    H128385   5.813   0.546  15.263 -0.8066  0.8211  1.0557
 2298TIP3    H228386   5.946   0.614  15.290  0.5265 -0.7671 -1.3953
 2299TIP3   OH228387   6.344   3.216  11.106  0.4860 -0.2891  0.1470
 2299TIP3    H128388   6.290   3.178  11.037 -1.7210  1.9798  0.5488
 2299TIP3    H228389   6.408   3.270  11.059 -1.0836  1.3466 -0.1511
 2300TIP3   OH228390   5.453   0.766   0.465  0.5098  0.1781 -0.2579
 2300TIP3    H128391   5.377   0.797   0.415  1.0339 -0.3238 -1.3811
 2300TIP3    H228392   5.421   0.760   0.556  0.0313  2.6884 -0.2318
 2301TIP3   OH228393   6.483   1.087   0.305  0.5136  0.3630  0.6969
 2301TIP3    H128394   6.392   1.118   0.310  0.5905  0.5144  1.1040
 2301TIP3    H228395   6.508   1.103   0.214  0.0536  0.1031  0.5192
 2302TIP3   OH228396   3.243   3.163   1.766  0.5682 -0.1183 -0.5688
 2302TIP3    H128397   3.284   3.083   1.732  0.3390 -1.6920  2.6473
 2302TIP3    H228398   3.150   3.152   1.744  0.6224 -0.4932 -0.6249
 2303TIP3   OH228399   5.592   2.190  12.901 -0.4637 -0.0471  0.1766
 2303TIP3    H128400   5.650   2.248  12.950  0.3551 -1.1827  0.5856
 2303TIP3    H228401   5.628   2.189  12.812 -0.1095 -0.4136  0.3233
 2304TIP3   OH228402   6.526   5.712  11.222 -0.4757  0.1649  0.9384
 2304TIP3    H128403   6.501   5.639  11.165  0.8530  0.6567 -0.3166
 2304TIP3    H228404   6.549   5.782  11.161 -0.2052  1.0991  2.1153
 2305TIP3   OH228405   5.977   3.258  15.932 -0.4660 -0.0752 -0.3787
 2305TIP3    H128406   6.045   3.311  15.891 -1.9538  0.6737 -1.9397
 2305TIP3    H228407   5.968   3.182  15.875  0.7048 -1.3669  1.1184
 2306TIP3   OH228408   5.289   4.555   4.893 -0.0863 -0.0155  0.1511
 2306TIP3    H128409   5.340   4.635   4.881  0.3787 -0.3998 -0.4414
 2306TIP3    H228410   5.202   4.578   4.861  0.3484 -0.0972 -1.1274
 2307TIP3   OH228411   4.067   6.105   0.128  0.4980  0.0250  0.2507
 2307TIP3    H128412   4.032   6.184   0.169 -0.0884 -0.4796  0.7271
 2307TIP3    H228413   4.023   6.101   0.043 -0.0096 -0.1836  0.5253
 2308TIP3   OH228414   4.103   3.460  15.949 -0.1958  0.0228 -0.4694
 2308TIP3    H128415   4.105   3.499  16.037  1.3640  1.4913 -1.1194
 2308TIP3    H228416   4.118   3.366  15.964  3.8114  0.7268  0.6377
 2309TIP3   OH228417   1.472   0.354   0.629  0.3546 -0.1069  0.2204
 2309TIP3    H128418   1.558   0.314   0.643 -0.1292 -0.4179  2.5499
 2309TIP3    H228419   1.411   0.281   0.630 -0.2836  0.4201  2.1293
 2310TIP3   OH228420   4.290   3.800  16.090  0.0121  0.6290  0.1410
 2310TIP3    H128421   4.326   3.773  16.174 -2.8963 -0.7185  1.0224
 2310TIP3    H228422   4.355   3.771  16.026  0.2374 -2.3640  1.5974
 2311TIP3   OH228423   5.641   6.139  12.548 -0.3255  0.0678  0.1348
 2311TIP3    H128424   5.676   6.052  12.567 -0.9739 -0.2060  0.0897
 2311TIP3    H228425   5.717   6.190  12.520  0.3426 -0.0359  1.7109
 2312TIP3   OH228426   0.968   2.881   5.319 -0.2153  0.7252  0.3833
 2312TIP3    H128427   0.975   2.976   5.327 -0.4902  0.8737 -1.0905
 2312TIP3    H228428   0.976   2.849   5.409 -0.4692  2.1626  0.9278
 2313TIP3   OH228429   4.979   0.995  16.311  0.6699 -0.1489  0.4661
 2313TIP3    H128430   4.979   0.901  16.292  0.0912 -0.1951  0.6656
 2313TIP3    H228431   5.056   1.009  16.366  1.9976 -0.1211 -1.3446
 2314TIP3   OH228432   5.637   2.862  15.320 -0.7124  0.3947  0.3022
 2314TIP3    H128433   5.602   2.901  15.240 -0.9867 -0.6868 -0.1107
 2314TIP3    H228434   5.655   2.936  15.377  2.4048  1.4625 -1.9052
 2315TIP3   OH228435   5.504   1.550   5.442 -0.3020  0.4720 -0.9254
 2315TIP3    H128436   5.521   1.542   5.348 -0.2132  1.3977 -0.9956
 2315TIP3    H228437   5.519   1.643   5.461 -4.1504  1.1406 -0.7434
 2316TIP3   OH228438   0.275   1.399  12.301  0.0909  0.3510 -0.5373
 2316TIP3    H128439   0.184   1.418  12.324  0.6956  1.5536  0.9639
 2316TIP3    H228440   0.326   1.449  12.365  1.8009 -0.3652 -1.3316
 2317TIP3   OH228441   0.947   1.567  16.438 -0.3029  0.6497  0.2207
 2317TIP3    H128442   0.978   1.505  16.504 -1.4891  0.4205  0.5613
 2317TIP3    H228443   0.941   1.516  16.358 -1.9353  0.1543  0.6521
 2318TIP3   OH228444   4.575   3.760  12.391  0.0075 -0.0544  0.5031
 2318TIP3    H128445   4.593   3.707  12.313  0.9792  0.8400  0.0947
 2318TIP3    H228446   4.566   3.849  12.357 -0.5133  0.1985  1.3043
 2319TIP3   OH228447   6.501   4.673  15.069 -0.5277 -0.5615  0.2734
 2319TIP3    H128448   6.596   4.666  15.060 -0.2328  0.1084  2.4077
 2319TIP3    H228449   6.465   4.612  15.004  1.3383 -0.3992 -0.9351
 2320TIP3   OH228450   4.196   1.056   6.162 -1.0249 -0.0989  0.3381
 2320TIP3    H128451   4.103   1.056   6.142 -1.1530 -0.4861  0.9319
 2320TIP3    H228452   4.217   1.148   6.177 -1.2660  0.0111  0.0151
 2321TIP3   OH228453   5.379   4.621   1.652  1.2113  0.3369 -0.0378
 2321TIP3    H128454   5.370   4.669   1.735  1.0168  0.0123  0.1312
 2321TIP3    H228455   5.295   4.634   1.608  1.8248  1.7002 -0.8310
 2322TIP3   OH228456   0.425   2.494   3.127 -0.1286 -0.3248 -0.0798
 2322TIP3    H128457   0.417   2.588   3.108 -0.6740 -0.1857  0.8495
 2322TIP3    H228458   0.368   2.452   3.063 -0.9316  0.0662  0.3762
 2323TIP3   OH228459   3.992   6.706   1.484  0.0018 -0.8199 -0.0168
 2323TIP3    H128460   3.937   6.631   1.461 -0.9161 -0.6707  1.6216
 2323TIP3    H228461   3.931   6.780   1.491  0.9649  0.2083 -2.1051
 2324TIP3   OH228462   0.970   3.350   4.266  0.2154 -0.0063  0.0619
 2324TIP3    H128463   0.885   3.365   4.307  0.4654  0.2513  0.4972
 2324TIP3    H228464   1.032   3.352   4.339  1.1066  4.0162 -0.6572
 2325TIP3   OH228465   2.418   2.617   0.679 -0.4542 -0.4115 -0.3309
 2325TIP3    H128466   2.422   2.693   0.737 -0.7199 -0.3951 -0.3335
 2325TIP3    H228467   2.457   2.546   0.729  2.4504  0.3716 -1.3574
 2326TIP3   OH228468   2.127   4.095   5.901 -0.1027  0.6257  0.7990
 2326TIP3    H128469   2.204   4.151   5.906  0.2997  0.1109  0.4508
 2326TIP3    H228470   2.117   4.059   5.989 -0.3488  1.2268  1.0155
 2327TIP3   OH228471   0.084   4.466   6.650 -0.3664  0.0460 -0.1040
 2327TIP3    H128472   0.055   4.375   6.658 -2.0558  0.5063 -0.6283
 2327TIP3    H228473   0.003   4.518   6.659  0.5873  1.4953  0.3101
 2328TIP3   OH228474   4.194   0.846  13.131  0.0930  0.6878  0.2879
 2328TIP3    H128475   4.227   0.907  13.197 -0.8432 -0.0762  1.4600
 2328TIP3    H228476   4.265   0.783  13.118 -0.3994 -0.2300  1.9121
 2329TIP3   OH228477   6.009   5.586   5.862  0.0261 -0.5226  0.0321
 2329TIP3    H128478   5.917   5.600   5.886  0.3671  3.1091 -0.3583
 2329TIP3    H228479   6.048   5.543   5.937 -0.7813  3.1180  2.6860
 2330TIP3   OH228480   2.480   1.031   4.189  0.2854 -0.1925 -0.3210
 2330TIP3    H128481   2.389   1.027   4.216 -0.0080 -0.2071 -1.2847
 2330TIP3    H228482   2.478   1.014   4.094  1.4057 -1.4760 -0.1390
 2331TIP3   OH228483   5.724   2.193  14.247  0.3546  0.1755 -0.1342
 2331TIP3    H128484   5.668   2.170  14.173  0.8136 -0.1023 -0.3979
 2331TIP3    H228485   5.696   2.134  14.317  0.9912 -0.6691 -0.5735
 2332TIP3   OH228486   3.433   6.296  16.262  0.2601  0.7341  0.6821
 2332TIP3    H128487   3.398   6.278  16.175  0.5705  0.9191  0.5117
 2332TIP3    H228488   3.502   6.230  16.274 -1.5273 -0.9525  1.8679
 2333TIP3   OH228489   0.622   6.694  12.003 -0.1981  0.3335 -0.0517
 2333TIP3    H128490   0.711   6.689  12.037  0.2468  1.4925 -1.0164
 2333TIP3    H228491   0.572   6.738  12.073  0.6566  2.4863 -0.7473
 2334TIP3   OH228492   6.726   1.611   2.179  0.1863 -0.5235  0.3874
 2334TIP3    H128493   6.724   1.690   2.125  0.8925 -0.9744 -0.2978
 2334TIP3    H228494   6.752   1.643   2.266 -0.6273  0.1509  0.3916
 2335TIP3   OH228495   0.417   4.343  15.559 -0.0477  0.1730  0.3791
 2335TIP3    H128496   0.413   4.253  15.594  2.3855 -0.4958 -0.9366
 2335TIP3    H228497   0.456   4.394  15.630  1.2708 -0.4091  0.0891
 2336TIP3   OH228498   3.467   3.015  17.243  0.3542  0.0301  0.4718
 2336TIP3    H128499   3.542   3.065  17.275 -0.2153  1.0374  0.2523
 2336TIP3    H228500   3.424   2.983  17.322 -0.1405  1.1750  0.6748
 2337TIP3   OH228501   3.982   1.675   4.909 -0.2790 -0.5761  0.1422
 2337TIP3    H128502   3.898   1.633   4.896 -0.1804 -0.5868 -0.4563
 2337TIP3    H228503   3.970   1.765   4.877  0.2577 -0.8983 -0.9724
 2338TIP3   OH228504   5.832   2.039   4.087 -0.1143 -0.2027 -0.5460
 2338TIP3    H128505   5.739   2.016   4.087 -0.1304 -0.1765 -2.0171
 2338TIP3    H228506   5.837   2.120   4.137 -0.9760  0.1768 -1.0779
 2339TIP3   OH228507   2.155   2.550  16.799 -0.0975  0.5454  0.4043
 2339TIP3    H128508   2.189   2.477  16.850  4.6092 -0.8617 -4.2492
 2339TIP3    H228509   2.065   2.525  16.779  0.6871 -2.9777  0.8438
 2340TIP3   OH228510   0.742   1.394   5.733 -0.1112  0.1963  0.1386
 2340TIP3    H128511   0.708   1.443   5.658  1.6543  0.9546 -0.2168
 2340TIP3    H228512   0.712   1.443   5.809 -0.7367  0.2306 -0.1294
 2341TIP3   OH228513   0.577   2.910   1.270  0.2840 -0.1241  0.1567
 2341TIP3    H128514   0.602   2.989   1.222 -3.7567  2.1344  1.5541
 2341TIP3    H228515   0.520   2.862   1.210 -1.2606  0.5340  1.0703
 2342TIP3   OH228516   2.228   6.190   1.830 -0.3090  0.3890 -0.2628
 2342TIP3    H128517   2.267   6.111   1.792  2.0029  1.4997 -0.2858
 2342TIP3    H228518   2.222   6.171   1.923  2.5510  1.0161  0.1252
 2343TIP3   OH228519   4.551   3.185   2.139  0.2846  0.3283  0.0374
 2343TIP3    H128520   4.528   3.208   2.049 -1.5772 -0.5332  0.2633
 2343TIP3    H228521   4.597   3.262   2.173 -0.6471  1.3922 -1.0732
 2344TIP3   OH228522   4.781   2.259  14.197  0.3115  0.1253 -0.3715
 2344TIP3    H128523   4.779   2.177  14.147  0.3149  0.2424 -0.5670
 2344TIP3    H228524   4.873   2.269  14.223  0.4571  0.4370 -0.9774
 2345TIP3   OH228525   3.147   2.514   5.976 -0.9180  0.6144 -0.0433
 2345TIP3    H128526   3.111   2.601   5.988 -0.6277  0.6749  0.4027
 2345TIP3    H228527   3.202   2.499   6.053  0.0797  0.5643 -0.7421
 2346TIP3   OH228528   4.019   6.479  17.200 -0.2130 -0.2946  0.9462
 2346TIP3    H128529   4.101   6.503  17.155 -0.0892 -3.3158 -0.6049
 2346TIP3    H228530   3.951   6.526  17.151  0.3800  0.4637  0.8304
 2347TIP3   OH228531   4.875   0.746   3.214 -0.1657  0.0620 -0.4374
 2347TIP3    H128532   4.935   0.807   3.256 -0.8622  1.2109 -1.0889
 2347TIP3    H228533   4.795   0.797   3.199 -1.4378 -1.5157  0.7103
 2348TIP3   OH228534   0.227   1.839  17.099  0.3856 -0.5102 -0.1979
 2348TIP3    H128535   0.260   1.749  17.098 -1.1079 -1.1087 -4.0227
 2348TIP3    H228536   0.133   1.830  17.114  0.0421  0.2956 -1.7534
 2349TIP3   OH228537   4.612   6.558   3.063 -0.0977 -0.0529  0.0732
 2349TIP3    H128538   4.696   6.517   3.082  0.4602  1.7496  1.5967
 2349TIP3    H228539   4.628   6.611   2.985 -0.4570 -1.5056 -1.0312
 2350TIP3   OH228540   1.425   5.225  15.605  0.2474 -0.3819 -0.1036
 2350TIP3    H128541   1.442   5.315  15.631  1.5279 -0.6446  0.0250
 2350TIP3    H228542   1.345   5.229  15.553 -0.3507  0.6525  0.8914
 2351TIP3   OH228543   4.174   2.889  11.553  0.0344  0.0185 -0.4654
 2351TIP3    H128544   4.171   2.895  11.458 -0.1383 -0.1545 -0.4696
 2351TIP3    H228545   4.259   2.927  11.577  0.4272 -0.6840 -0.7472
 2352TIP3   OH228546   1.254   3.278   3.448 -0.3929 -0.1071 -0.1740
 2352TIP3    H128547   1.269   3.316   3.362 -0.5811 -0.5983 -0.4249
 2352TIP3    H228548   1.195   3.204   3.432  0.0554 -0.5728  0.2930
 2353TIP3   OH228549   1.809   3.468   3.039  0.4685  0.8637 -0.1101
 2353TIP3    H128550   1.851   3.386   3.066 -0.2121  0.9920  1.3894
 2353TIP3    H228551   1.882   3.527   3.020  0.9832  0.6535  1.1466
 2354TIP3   OH228552   6.738   6.503   4.307 -0.3892 -0.2687  0.0346
 2354TIP3    H128553   6.739   6.485   4.401  0.7274  0.6725  0.2108
 2354TIP3    H228554   6.825   6.476   4.276 -0.2461  0.7526 -0.4672
 2355TIP3   OH228555   3.016   3.360   3.750  0.4607 -0.3730 -0.0537
 2355TIP3    H128556   3.043   3.296   3.684 -1.1881 -0.6744 -0.4396
 2355TIP3    H228557   2.921   3.355   3.752  0.3842  1.0499  0.9443
 2356TIP3   OH228558   6.600   3.990   5.975  0.3749  0.4774  0.4130
 2356TIP3    H128559   6.681   3.970   6.023  0.1557 -1.0036  0.1824
 2356TIP3    H228560   6.559   4.060   6.027  1.8927  1.3933  0.4124
 2357TIP3   OH228561   3.306   3.006  15.510 -0.4637 -0.1205 -0.1868
 2357TIP3    H128562   3.256   3.046  15.439 -0.0898 -0.4953 -0.6581
 2357TIP3    H228563   3.242   2.994  15.580 -0.9571 -0.2786 -0.6648
 2358TIP3   OH228564   5.378   4.965  13.264  0.3630 -0.3302  0.6186
 2358TIP3    H128565   5.390   5.055  13.294 -1.8343  0.2721 -0.2641
 2358TIP3    H228566   5.448   4.916  13.307  0.6737  1.5267  2.2680
 2359TIP3   OH228567   3.268   5.621   3.468 -0.2704 -0.0882 -0.5409
 2359TIP3    H128568   3.210   5.685   3.425 -0.2558 -0.4972 -1.1722
 2359TIP3    H228569   3.356   5.649   3.445 -0.1475  1.4036  1.6433
 2360TIP3   OH228570   4.807   0.954  10.949  0.2785  0.1951  0.1086
 2360TIP3    H128571   4.725   0.996  10.975 -1.8845 -3.1002 -1.1435
 2360TIP3    H228572   4.801   0.865  10.985  2.5053 -0.6500 -1.5195
 2361TIP3   OH228573   1.853   0.131  17.082  0.2235 -0.3972 -0.0975
 2361TIP3    H128574   1.835   0.179  17.001  2.9205 -0.9517 -1.0749
 2361TIP3    H228575   1.840   0.039  17.058  0.3107 -0.5153  0.3063
 2362TIP3   OH228576   5.904   0.857   3.824 -0.6191 -0.9335 -0.0718
 2362TIP3    H128577   5.834   0.843   3.760 -1.5311  1.1704  0.4336
 2362TIP3    H228578   5.970   0.908   3.777 -0.3074 -1.2295  0.0404
 2363TIP3   OH228579   3.771   1.305  13.431 -0.2539 -0.1812 -0.0103
 2363TIP3    H128580   3.722   1.314  13.349  0.9866  1.5801 -0.5833
 2363TIP3    H228581   3.703   1.299  13.498 -1.2810  0.5482 -0.9573
 2364TIP3   OH228582   1.288   0.994  11.566 -0.5600 -0.4470 -0.4364
 2364TIP3    H128583   1.376   0.979  11.601  0.0978 -1.2482 -2.3833
 2364TIP3    H228584   1.236   1.019  11.642  1.8821  2.3660  0.4059
 2365TIP3   OH228585   3.453   2.007  15.783 -0.0345  0.4149  0.2666
 2365TIP3    H128586   3.469   2.068  15.855 -1.2892 -0.0060  0.9414
 2365TIP3    H228587   3.394   2.054  15.724 -1.7081 -0.4249  1.2302
 2366TIP3   OH228588   5.520   6.671   3.304  0.2142  0.2712  0.2533
 2366TIP3    H128589   5.437   6.706   3.271 -0.0242  0.2952  0.8799
 2366TIP3    H228590   5.571   6.747   3.329  0.4233  0.2551 -0.1048
 2367TIP3   OH228591   0.564   2.544  17.062 -0.7090  0.0497  0.1273
 2367TIP3    H128592   0.505   2.504  17.126 -0.6463 -0.1435  0.0663
 2367TIP3    H228593   0.625   2.596  17.114  0.0019 -0.9578  0.3032
 2368TIP3   OH228594   1.579   0.697  15.894  0.1696  0.4198 -0.3286
 2368TIP3    H128595   1.670   0.691  15.923 -0.1268 -2.7137  0.1294
 2368TIP3    H228596   1.554   0.788  15.912  2.4353  0.6668  1.8306
 2369TIP3   OH228597   2.099   3.060  12.938  0.0659  0.0117  0.6131
 2369TIP3    H128598   2.143   3.145  12.943 -0.7321  0.3868  1.4118
 2369TIP3    H228599   2.095   3.030  13.029  0.3312 -0.8778  0.3354
 2370TIP3   OH228600   3.686   3.971  17.254 -0.1231 -0.5444  0.1628
 2370TIP3    H128601   3.761   3.983  17.196 -0.0657 -1.3998  0.0506
 2370TIP3    H228602   3.660   3.880  17.241 -0.8935 -0.3871  0.5441
 2371TIP3   OH228603   1.265   1.927  12.056 -0.4174  0.3084  0.3892
 2371TIP3    H128604   1.246   2.002  12.113 -0.8843 -0.0077  0.6518
 2371TIP3    H228605   1.359   1.914  12.064 -0.1436  1.5903 -0.5502
 2372TIP3   OH228606   6.713   6.397   0.400  0.1273  0.4660  0.3402
 2372TIP3    H128607   6.640   6.456   0.384 -0.7936 -0.6020  0.5000
 2372TIP3    H228608   6.680   6.335   0.465  0.1084 -1.8806 -1.8310
 2373TIP3   OH228609   5.979   0.965  13.264 -0.6039  0.0471  0.7642
 2373TIP3    H128610   6.073   0.957  13.248 -0.8520 -0.0116 -0.7515
 2373TIP3    H228611   5.969   1.048  13.312  0.3748 -0.7729  2.4453
 2374TIP3   OH228612   2.091   6.445   3.044 -0.1832  0.0664 -0.1161
 2374TIP3    H128613   2.109   6.369   3.100 -2.0692 -0.1784  0.1906
 2374TIP3    H228614   2.038   6.410   2.972 -2.0124  1.2596  0.6149
 2375TIP3   OH228615   0.224   4.423   6.075 -0.5533 -0.4533 -0.6731
 2375TIP3    H128616   0.288   4.413   6.145  0.6228  0.9212 -1.5117
 2375TIP3    H228617   0.153   4.364   6.098  0.1606 -0.5778  1.2731
 2376TIP3   OH228618   6.806   0.650   1.751  0.4355 -0.6372  0.5399
 2376TIP3    H128619   6.808   0.651   1.655  0.7778 -0.0041  0.5508
 2376TIP3    H228620   6.880   0.704   1.777 -0.1584 -0.1102  1.1569
 2377TIP3   OH228621   2.820   3.299  12.426 -0.7663 -0.0895 -0.6634
 2377TIP3    H128622   2.771   3.234  12.375 -1.5973  1.3299 -1.7076
 2377TIP3    H228623   2.756   3.333  12.489 -0.1347 -0.7960  0.3669
 2378TIP3   OH228624   1.703   5.993   3.562 -0.3753  0.7377  0.4454
 2378TIP3    H128625   1.786   6.018   3.520 -0.1411  0.0355  0.4741
 2378TIP3    H228626   1.636   6.017   3.499 -0.3036  3.1138  1.2288
 2379TIP3   OH228627   2.040   0.476  14.587  0.7925  0.1114 -0.1943
 2379TIP3    H128628   2.090   0.514  14.515  0.6606  1.0198  0.1836
 2379TIP3    H228629   1.951   0.470  14.553  0.6695  0.8208 -0.0147
 2380TIP3   OH228630   1.042   5.530  14.799 -0.3319 -0.6669  0.2916
 2380TIP3    H128631   1.079   5.617  14.781  1.4709 -1.7734 -1.6752
 2380TIP3    H228632   1.100   5.492  14.865 -0.1287 -1.0075 -0.0819
 2381TIP3   OH228633   0.215   4.134   2.090 -0.8991  0.1215 -0.0754
 2381TIP3    H128634   0.293   4.163   2.043 -1.3921  0.2700 -0.8115
 2381TIP3    H228635   0.145   4.192   2.061 -1.5918 -0.8992 -0.5139
 2382TIP3   OH228636   2.144   1.006  12.912  0.1243  0.4407 -0.1392
 2382TIP3    H128637   2.175   1.061  12.983 -0.8901  2.6296 -1.3400
 2382TIP3    H228638   2.195   1.034  12.836 -2.2005  1.5566 -1.3305
 2383TIP3   OH228639   0.248   1.984  13.730  0.1927  0.0303  0.1040
 2383TIP3    H128640   0.225   1.943  13.647 -0.7126  1.1220 -0.1948
 2383TIP3    H228641   0.344   1.984  13.731  0.2330 -2.4439  0.3080
 2384TIP3   OH228642   3.520   3.295  15.028  0.0951 -0.4461 -0.1814
 2384TIP3    H128643   3.540   3.240  15.104  0.2594 -0.9358 -0.5780
 2384TIP3    H228644   3.531   3.385  15.060 -0.6027 -0.6286  0.5916
 2385TIP3   OH228645   4.583   2.238   2.016  0.5975 -0.0453 -0.4445
 2385TIP3    H128646   4.493   2.239   2.048  1.0725  1.1129  0.9017
 2385TIP3    H228647   4.575   2.219   1.922 -1.1139  1.1714 -0.5670
 2386TIP3   OH228648   5.634   4.606   2.088  0.1250  0.3114 -0.7187
 2386TIP3    H128649   5.545   4.608   2.054  0.4592  2.3447 -1.5520
 2386TIP3    H228650   5.668   4.520   2.062 -0.8294  0.4256 -2.3810
 2387TIP3   OH228651   4.730   6.265  13.997  0.2814 -0.1127  0.2587
 2387TIP3    H128652   4.684   6.301  13.922  0.5677 -1.6597 -0.6777
 2387TIP3    H228653   4.671   6.279  14.071  0.7064  2.9319  0.0708
 2388TIP3   OH228654   3.032   0.596   4.424 -0.6213 -0.3820  0.3904
 2388TIP3    H128655   3.126   0.610   4.412 -0.7367 -0.9438 -1.3067
 2388TIP3    H228656   2.996   0.683   4.439 -0.0767  0.0689 -0.8481
 2389TIP3   OH228657   4.125   2.703  14.814  0.0582  0.2531 -0.6577
 2389TIP3    H128658   4.203   2.742  14.774 -0.2042  0.2762 -1.1587
 2389TIP3    H228659   4.143   2.704  14.908  0.6460  0.2912 -0.7661
 2390TIP3   OH228660   4.090   0.357  15.690 -0.5393  0.0245 -0.8848
 2390TIP3    H128661   4.119   0.317  15.772 -1.1361 -0.6137 -0.9771
 2390TIP3    H228662   4.033   0.429  15.718 -2.5492 -1.5694 -0.7298
 2391TIP3   OH228663   2.537   6.668  10.708  0.2306 -0.3673 -0.4938
 2391TIP3    H128664   2.573   6.629  10.628 -0.6879 -2.4192  0.0431
 2391TIP3    H228665   2.552   6.762  10.699  2.5894 -0.8452 -1.8353
 2392TIP3   OH228666   3.145   4.497   0.680 -0.2771  0.1819 -0.0361
 2392TIP3    H128667   3.164   4.405   0.659 -2.0209 -0.3153  0.4207
 2392TIP3    H228668   3.219   4.525   0.734 -1.0520 -1.8455  2.1835
 2393TIP3   OH228669   0.318   1.646   5.082  0.2005 -0.2684 -0.2051
 2393TIP3    H128670   0.413   1.644   5.092  0.3740  1.8245 -1.0340
 2393TIP3    H228671   0.287   1.688   5.162 -0.0533 -1.1008  0.1391
 2394TIP3   OH228672   3.718   0.097  17.123 -0.1694 -0.7378 -0.1433
 2394TIP3    H128673   3.725   0.138  17.036 -2.0297 -3.6428 -1.7398
 2394TIP3    H228674   3.630   0.121  17.154 -0.1384 -1.0631  0.2010
 2395TIP3   OH228675   4.855   1.812  12.271 -0.1650 -0.1151 -0.4263
 2395TIP3    H128676   4.815   1.775  12.350 -0.0701  0.3353 -0.1677
 2395TIP3    H228677   4.792   1.794  12.201 -0.3331 -0.3465 -0.2137
 2396TIP3   OH228678   4.115   3.721  15.870 -0.1526 -0.2100 -0.2584
 2396TIP3    H128679   4.168   3.760  15.938  0.0018  0.2565 -0.6398
 2396TIP3    H228680   4.102   3.630  15.897  0.8278 -0.3205 -0.1652
 2397TIP3   OH228681   2.716   0.889  14.296 -0.2881  0.1631 -0.0672
 2397TIP3    H128682   2.740   0.976  14.327 -1.3665  0.5592 -0.3358
 2397TIP3    H228683   2.797   0.852  14.261  0.1929  1.0078  0.1550
 2398TIP3   OH228684   2.414   4.091  16.451  0.6272 -0.2474 -0.2618
 2398TIP3    H128685   2.339   4.123  16.400 -0.4950  0.7864  1.9669
 2398TIP3    H228686   2.376   4.066  16.535  2.5296 -1.4429  0.2527
 2399TIP3   OH228687   2.656   1.961  16.053  0.4657  0.1622 -0.2593
 2399TIP3    H128688   2.654   2.038  15.997  1.0636 -0.2802 -0.8906
 2399TIP3    H228689   2.567   1.925  16.047  0.4189  0.3358 -0.6081
 2400TIP3   OH228690   1.807   6.690   1.183  0.3320  0.5725  0.0282
 2400TIP3    H128691   1.750   6.722   1.253  0.4266 -0.6991  0.7010
 2400TIP3    H228692   1.892   6.680   1.225  0.6210  0.7472 -0.5204
 2401TIP3   OH228693   6.270   6.640   5.074  0.0083 -0.3983  0.5763
 2401TIP3    H128694   6.241   6.617   5.162  0.2232 -1.5467  0.3531
 2401TIP3    H228695   6.195   6.621   5.018 -0.1734  0.4582  0.5274
 2402TIP3   OH228696   1.615   0.474   5.511 -0.6777  0.2519  0.0406
 2402TIP3    H128697   1.529   0.479   5.471 -1.0184  1.0568  0.8631
 2402TIP3    H228698   1.602   0.505   5.600  1.0567  3.4298 -0.7461
 2403TIP3   OH228699   1.543   1.692  16.363 -0.4772 -0.0706  0.0923
 2403TIP3    H128700   1.482   1.636  16.316 -0.4086  1.0285 -1.3287
 2403TIP3    H228701   1.508   1.695  16.453 -2.3072  0.2351 -0.6045
 2404TIP3   OH228702   2.747   6.346   4.398  0.0634 -0.0490  0.0077
 2404TIP3    H128703   2.748   6.280   4.328 -1.8821  0.5084 -0.5691
 2404TIP3    H228704   2.838   6.353   4.424  0.6597 -1.1581 -1.6461
 2405TIP3   OH228705   0.853   5.201   5.657 -0.2847  0.0180 -0.1906
 2405TIP3    H128706   0.902   5.219   5.737 -1.8041  0.5280  0.6391
 2405TIP3    H228707   0.824   5.286   5.625 -0.9252 -0.2999 -0.4867
 2406TIP3   OH228708   5.763   0.899   2.561  0.2766  0.1530 -0.1421
 2406TIP3    H128709   5.672   0.894   2.533  0.1209  1.1038  0.1601
 2406TIP3    H228710   5.798   0.976   2.516  0.6537  0.3510  0.4758
 2407TIP3   OH228711   1.683   3.065  15.606  0.0066 -0.3831  0.4946
 2407TIP3    H128712   1.759   3.122  15.592  1.3473 -2.0535  0.7301
 2407TIP3    H228713   1.610   3.125  15.621  1.5539  1.2637  1.6637
 2408TIP3   OH228714   2.518   4.913  14.695 -0.0984  0.4209 -0.3984
 2408TIP3    H128715   2.425   4.935  14.693  0.4331  2.6347 -2.2648
 2408TIP3    H228716   2.561   4.989  14.733  1.1230  0.0169 -0.9258
 2409TIP3   OH228717   5.264   3.002   0.834 -0.0997  0.0269 -0.2594
 2409TIP3    H128718   5.199   2.934   0.815 -0.1206 -0.0639  0.1291
 2409TIP3    H228719   5.338   2.982   0.777 -0.4775  0.2284 -0.8284
 2410TIP3   OH228720   3.406   3.113   1.264 -0.2738  0.5680  0.2237
 2410TIP3    H128721   3.400   3.202   1.229 -0.4286  1.5662  2.7349
 2410TIP3    H228722   3.317   3.078   1.257 -0.5232  1.1294  0.5958
 2411TIP3   OH228723   5.594   2.916   6.099  0.6580  0.0330  0.0508
 2411TIP3    H128724   5.628   2.911   6.188  1.8617  1.1729 -0.3364
 2411TIP3    H228725   5.639   2.846   6.052  1.4027  0.6208 -0.1123
 2412TIP3   OH228726   3.626   4.221  11.083  0.2297  0.1855 -0.3521
 2412TIP3    H128727   3.544   4.187  11.118  0.4486  0.8376  0.8236
 2412TIP3    H228728   3.640   4.303  11.130  1.4409  0.1867 -0.6957
 2413TIP3   OH228729   2.188   2.962  12.654 -0.0245  0.2172  0.2645
 2413TIP3    H128730   2.195   2.990  12.745  0.0754 -1.4390  0.7880
 2413TIP3    H228731   2.192   2.866  12.658  1.5535  0.1770 -1.6170
 2414TIP3   OH228732   1.339   1.826   2.858 -0.5535  0.2287  0.7264
 2414TIP3    H128733   1.266   1.798   2.803 -0.8028  1.7217  0.2869
 2414TIP3    H228734   1.402   1.864   2.797  0.1279 -0.0671  1.2326
 2415TIP3   OH228735   0.121   0.129  14.345 -0.2053 -1.0951 -0.0554
 2415TIP3    H128736   0.138   0.206  14.291 -0.8504 -0.4777  0.6126
 2415TIP3    H228737   0.170   0.145  14.426 -1.4901 -0.7278  0.6551
 2416TIP3   OH228738   0.605   1.647   3.861 -0.0412  0.2936  0.5492
 2416TIP3    H128739   0.603   1.562   3.905  0.8145 -1.2428 -2.2911
 2416TIP3    H228740   0.538   1.640   3.793 -1.0903  2.5153  1.2902
 2417TIP3   OH228741   0.395   2.827   0.272  0.4041  0.6233  0.1796
 2417TIP3    H128742   0.410   2.844   0.179  0.2301  0.3527  0.1033
 2417TIP3    H228743   0.390   2.914   0.311 -2.4121  0.8445 -0.5196
 2418TIP3   OH228744   1.539   4.937  11.872  0.2640  0.2167 -0.0148
 2418TIP3    H128745   1.488   4.967  11.947  0.0478 -0.1424 -0.0164
 2418TIP3    H228746   1.625   4.915  11.909 -0.1811 -0.9962  0.3187
 2419TIP3   OH228747   0.217   0.353  14.187  0.0400  0.0257 -0.3433
 2419TIP3    H128748   0.299   0.368  14.140  0.8828  2.1736  1.7081
 2419TIP3    H228749   0.206   0.430  14.243 -3.6737  0.0616 -0.9423
 2420TIP3   OH228750   4.204   1.742  10.940  0.3094  0.1727 -0.3959
 2420TIP3    H128751   4.259   1.669  10.910  0.2088 -0.7065  1.4454
 2420TIP3    H228752   4.122   1.701  10.965 -0.2769  1.1367 -0.7270
 2421TIP3   OH228753   3.444   3.289   3.391 -0.2165  0.0606 -0.5183
 2421TIP3    H128754   3.474   3.310   3.302 -0.5011  3.2704  0.0978
 2421TIP3    H228755   3.524   3.269   3.439  0.1235  0.1752 -1.0369
 2422TIP3   OH228756   2.422   3.638   4.554 -0.2499  0.3693  0.1532
 2422TIP3    H128757   2.419   3.733   4.544 -0.2342  0.2429 -1.0720
 2422TIP3    H228758   2.515   3.615   4.549 -0.3695  0.1357 -1.0116
 2423TIP3   OH228759   2.130   4.467   5.570 -0.2441  0.0473  0.7516
 2423TIP3    H128760   2.143   4.373   5.583 -0.9161  0.1626  2.4374
 2423TIP3    H228761   2.140   4.504   5.658 -1.2728  1.3939  0.3046
 2424TIP3   OH228762   1.006   0.996   2.847  0.3566 -0.1438  0.1225
 2424TIP3    H128763   0.966   0.939   2.912  2.3864 -0.5055  1.0724
 2424TIP3    H228764   1.041   1.070   2.897 -2.2464  2.0151 -1.0834
 2425TIP3   OH228765   3.556   0.468  12.602 -0.0477 -0.0825 -0.0364
 2425TIP3    H128766   3.525   0.412  12.674 -0.0556 -2.0254 -1.5137
 2425TIP3    H228767   3.637   0.426  12.572  0.5438  1.3289 -0.4664
 2426TIP3   OH228768   5.470   2.620  16.890 -0.7340  0.0231 -0.5980
 2426TIP3    H128769   5.477   2.525  16.877 -0.0601  0.3101 -2.4902
 2426TIP3    H228770   5.503   2.658  16.809  0.3693  1.9275  0.7132
 2427TIP3   OH228771   2.424   2.397  16.638 -0.3206 -0.2208 -0.4882
 2427TIP3    H128772   2.413   2.308  16.605  0.1026 -0.5258  0.1551
 2427TIP3    H228773   2.509   2.395  16.682 -0.2335  0.5506 -0.6152
 2428TIP3   OH228774   3.716   6.556  14.021 -0.3990 -0.1568 -0.4749
 2428TIP3    H128775   3.756   6.500  14.087 -1.2234  1.5684  1.5182
 2428TIP3    H228776   3.622   6.552  14.039 -0.5641  0.9532 -1.0728
 2429TIP3   OH228777   6.003   4.037  15.890  0.8904  0.0358 -0.4214
 2429TIP3    H128778   5.945   4.102  15.851  0.3619  0.6898  1.4395
 2429TIP3    H228779   5.944   3.968  15.920  1.2353 -0.1367 -0.1454
 2430TIP3   OH228780   6.382   2.082  12.852 -0.3333 -0.5032  0.7972
 2430TIP3    H128781   6.358   2.130  12.932 -0.4400  1.8384 -0.5877
 2430TIP3    H228782   6.305   2.091  12.796  0.7735  0.2574 -0.6228
 2431TIP3   OH228783   6.266   0.026   2.741  0.1034  0.5291  0.1930
 2431TIP3    H128784   6.262   0.031   2.646 -1.7864 -0.5598  0.1964
 2431TIP3    H228785   6.342  -0.030   2.759 -0.0246  0.0737 -0.6832
 2432TIP3   OH228786   5.799   0.773  10.433  0.5245 -0.2368  0.2053
 2432TIP3    H128787   5.876   0.728  10.467 -0.8262 -0.7967  2.6104
 2432TIP3    H228788   5.732   0.705  10.426  0.2124  0.2334 -1.9189
 2433TIP3   OH228789   4.838   6.385   3.072  0.4777 -0.1329 -0.1432
 2433TIP3    H128790   4.913   6.346   3.027 -0.4898 -1.1916 -0.8896
 2433TIP3    H228791   4.787   6.310   3.103 -0.5837  0.5517 -0.1948
 2434TIP3   OH228792   1.246   2.306  15.592  0.6270  0.5755 -0.1913
 2434TIP3    H128793   1.304   2.292  15.517  0.8185  1.7630 -0.2761
 2434TIP3    H228794   1.305   2.321  15.666  0.4337  0.8560 -0.0948
 2435TIP3   OH228795   2.501   3.088  10.488  0.0424  0.2977 -0.1853
 2435TIP3    H128796   2.484   3.176  10.521 -1.2977  0.1920 -0.5519
 2435TIP3    H228797   2.522   3.101  10.395  1.6305  0.3852  0.1634
 2436TIP3   OH228798   2.468   5.635  16.149 -0.3148 -0.2224 -0.6612
 2436TIP3    H128799   2.529   5.697  16.109  1.4586 -1.7374 -0.4028
 2436TIP3    H228800   2.479   5.554  16.098 -0.4190 -1.1993  0.8387
 2437TIP3   OH228801   4.085   2.888  13.961 -0.4403 -0.5731 -0.2585
 2437TIP3    H128802   4.134   2.808  13.979  0.5423 -0.0524 -0.5513
 2437TIP3    H228803   4.128   2.925  13.883 -1.6487 -0.3876 -0.8441
 2438TIP3   OH228804   3.772   0.655   1.753 -0.5793 -0.2382 -0.2174
 2438TIP3    H128805   3.766   0.718   1.825  0.5123 -1.3131  0.8469
 2438TIP3    H228806   3.781   0.570   1.797  0.7825 -0.8293 -1.5971
 2439TIP3   OH228807   1.628   2.053  12.427  0.0870  0.9245 -0.2661
 2439TIP3    H128808   1.572   2.084  12.499  1.1828  0.9683  0.5801
 2439TIP3    H228809   1.576   2.068  12.348 -0.1387  3.2385  0.2842
 2440TIP3   OH228810   2.252   4.764  13.703 -0.2088  0.4761 -0.8218
 2440TIP3    H128811   2.275   4.838  13.646  1.2952  0.7231  0.0456
 2440TIP3    H228812   2.315   4.696  13.681 -1.1519 -0.2995 -1.1303
 2441TIP3   OH228813   0.442   3.165   1.768  0.2106 -0.6760 -0.9673
 2441TIP3    H128814   0.513   3.139   1.709  0.6970  1.2473 -1.2953
 2441TIP3    H228815   0.465   3.255   1.793  0.2033 -1.5213  2.4128
 2442TIP3   OH228816   2.605   0.364   0.628 -0.3600  0.0189 -0.0311
 2442TIP3    H128817   2.537   0.401   0.683  0.5319  2.8168 -0.7291
 2442TIP3    H228818   2.558   0.309   0.565 -1.6801 -0.3533  1.2462
 2443TIP3   OH228819   3.447   0.681   5.772 -0.2479 -0.2692 -0.0021
 2443TIP3    H128820   3.434   0.752   5.835  0.1766  1.0611 -1.3731
 2443TIP3    H228821   3.378   0.695   5.706  0.6780 -0.2950 -0.9915
 2444TIP3   OH228822   2.918   0.854   5.558  0.5936  0.0635  0.2588
 2444TIP3    H128823   2.997   0.899   5.590 -0.1438  1.9413 -0.4922
 2444TIP3    H228824   2.951   0.791   5.494  1.6220 -0.3052  1.1343
 2445TIP3   OH228825   4.432   1.538  15.597 -0.0356 -0.2507  0.8201
 2445TIP3    H128826   4.513   1.578  15.565 -0.9329  1.1246  0.2542
 2445TIP3    H228827   4.426   1.567  15.688 -0.2096  0.1541  0.6801
 2446TIP3   OH228828   0.734   1.790  14.935  0.2392  0.6632  0.1577
 2446TIP3    H128829   0.698   1.878  14.926  0.1362  0.6649  0.5516
 2446TIP3    H228830   0.732   1.773  15.029  1.1510  0.6180  0.1783
 2447TIP3   OH228831   1.232   6.667  12.889  0.4825 -0.2346  0.0177
 2447TIP3    H128832   1.179   6.588  12.877  0.8745 -0.3125 -1.2619
 2447TIP3    H228833   1.211   6.721  12.814 -0.0142  1.0320  1.0460
 2448TIP3   OH228834   6.306   3.241   1.610  0.2105 -0.4594  0.3990
 2448TIP3    H128835   6.299   3.323   1.561  0.4295 -0.4230  0.4277
 2448TIP3    H228836   6.357   3.184   1.553  0.6909 -0.3286  0.6996
 2449TIP3   OH228837   5.834   3.200   4.604  0.8297  0.4882  0.4866
 2449TIP3    H128838   5.868   3.270   4.660  1.2557  0.4604  0.2646
 2449TIP3    H228839   5.843   3.120   4.657 -0.3209  0.7049  1.0108
 2450TIP3   OH228840   6.623   5.181  12.915 -0.8066 -0.6711  0.3917
 2450TIP3    H128841   6.664   5.259  12.953  1.6587 -2.3129  1.2397
 2450TIP3    H228842   6.568   5.215  12.845  0.1151  1.8409  0.8130
 2451TIP3   OH228843   1.040   5.428   4.531 -0.1772  0.8605  0.5069
 2451TIP3    H128844   1.065   5.463   4.445 -0.6934 -1.5430 -0.6896
 2451TIP3    H228845   0.945   5.415   4.524 -0.0052 -0.7241  0.8796
 2452TIP3   OH228846   5.011   1.590  15.238 -0.0737 -0.4713 -0.3455
 2452TIP3    H128847   4.986   1.526  15.171  0.1183  0.7856 -1.6396
 2452TIP3    H228848   5.066   1.540  15.299 -1.3327 -1.9526 -0.3939
 2453TIP3   OH228849   4.066   4.039  15.604  0.4541 -0.2223  0.0413
 2453TIP3    H128850   4.132   4.057  15.538 -3.3067  0.3167 -3.7725
 2453TIP3    H228851   4.066   3.944  15.612  0.1078 -0.3799 -1.6699
 2454TIP3   OH228852   3.507   4.601  16.570  0.3778  0.1200  0.1792
 2454TIP3    H128853   3.512   4.524  16.514 -1.0434 -0.6160  1.0466
 2454TIP3    H228854   3.413   4.619  16.578  0.5595  0.1605  2.4054
 2455TIP3   OH228855   6.589   5.061  15.561 -0.5853 -0.0863 -0.3817
 2455TIP3    H128856   6.678   5.063  15.527 -1.0578  0.4899 -1.6409
 2455TIP3    H228857   6.599   5.045  15.655  0.8384  0.0610 -0.4978
 2456TIP3   OH228858   0.322   6.791  16.498  0.2286 -0.4618 -0.1612
 2456TIP3    H128859   0.291   6.825  16.414  0.5660 -0.3959 -0.2583
 2456TIP3    H228860   0.411   6.825  16.506  0.2359 -0.5628  0.1700
 2457TIP3   OH228861   1.810   6.678  13.209  0.6715  0.2177 -0.3413
 2457TIP3    H128862   1.853   6.700  13.292  0.1584  1.4023 -0.3847
 2457TIP3    H228863   1.721   6.711  13.218  0.5193  0.0724 -1.2442
 2458TIP3   OH228864   3.959   2.362   1.991  0.0371 -0.0336 -0.0352
 2458TIP3    H128865   3.988   2.453   1.989 -0.0219  0.0285  1.5277
 2458TIP3    H228866   4.019   2.317   1.932  0.3117  0.9426 -0.5220
 2459TIP3   OH228867   1.740   4.242   2.891 -0.1017 -0.2098  0.2088
 2459TIP3    H128868   1.704   4.330   2.890  0.2001 -0.0909 -0.1888
 2459TIP3    H228869   1.834   4.255   2.909 -0.0955 -0.4618  0.3633
 2460TIP3   OH228870   1.662   4.501   2.655  0.3772 -0.0556  0.0342
 2460TIP3    H128871   1.687   4.588   2.625  1.0852 -0.7062 -1.3445
 2460TIP3    H228872   1.740   4.467   2.699  0.3132 -0.2391  0.0096
 2461TIP3   OH228873   6.506   3.828   2.023  0.1906  0.3149  0.2470
 2461TIP3    H128874   6.581   3.848   1.968  0.0647 -0.2563 -0.1468
 2461TIP3    H228875   6.542   3.778   2.096 -0.0938 -2.0634 -1.1724
 2462TIP3   OH228876   3.622   3.692  13.894  0.6940 -0.0325  0.2675
 2462TIP3    H128877   3.677   3.769  13.906 -0.1970  0.5638  0.5823
 2462TIP3    H228878   3.540   3.726  13.857 -0.0275 -0.7167  1.2177
 2463TIP3   OH228879   0.482   5.888   1.821  0.4301  0.4316  0.0669
 2463TIP3    H128880   0.499   5.968   1.870  2.6042  0.0557 -0.0441
 2463TIP3    H228881   0.535   5.821   1.863 -0.6692 -0.7798 -0.4039
 2464TIP3   OH228882   2.265   1.638   4.999  0.5972  0.2101  0.5750
 2464TIP3    H128883   2.216   1.556   5.007  1.0217 -0.3159 -1.9333
 2464TIP3    H228884   2.348   1.620   5.044 -0.1795  0.0384  1.9923
 2465TIP3   OH228885   0.294   5.221   5.299  0.2499 -0.2963 -0.8762
 2465TIP3    H128886   0.258   5.279   5.232 -1.7449 -0.6353 -0.1430
 2465TIP3    H228887   0.241   5.239   5.377  0.5839 -2.0272 -0.2275
 2466TIP3   OH228888   3.538   3.524  16.960  0.1883  0.6396  0.3951
 2466TIP3    H128889   3.470   3.473  17.003  1.7031 -1.1491  0.7603
 2466TIP3    H228890   3.506   3.539  16.871 -1.5300  1.5601  1.1528
 2467TIP3   OH228891   3.901   1.278  16.910 -0.5900  0.0706 -0.4219
 2467TIP3    H128892   3.898   1.274  16.815 -1.2549 -0.1256 -0.3921
 2467TIP3    H228893   3.821   1.325  16.935  0.0242  0.9081 -0.0068
 2468TIP3   OH228894   2.836   0.832  15.821  0.7015 -0.0553  0.6374
 2468TIP3    H128895   2.835   0.798  15.732  2.0277 -1.5111  1.1484
 2468TIP3    H228896   2.878   0.918  15.813  0.8951 -0.2142 -0.1260
 2469TIP3   OH228897   3.215   3.487  15.220  0.0884  0.6208  0.9729
 2469TIP3    H128898   3.158   3.486  15.143  1.2815  0.1691  0.0771
 2469TIP3    H228899   3.254   3.574  15.219  1.4360  0.0189  0.0555
 2470TIP3   OH228900   0.676   3.195   2.329 -0.2251 -0.1748  0.2697
 2470TIP3    H128901   0.643   3.244   2.404 -2.1190 -0.5351 -0.3226
 2470TIP3    H228902   0.736   3.256   2.285  2.0985 -0.4628  2.8667
 2471TIP3   OH228903   0.182   6.415   5.203 -0.2605  0.1930 -0.0707
 2471TIP3    H128904   0.187   6.320   5.206 -0.8175  0.1957  1.1719
 2471TIP3    H228905   0.146   6.440   5.288 -0.9711  1.4630 -0.7351
 2472TIP3   OH228906   2.893   2.246   5.160 -0.9229  0.0305  0.4336
 2472TIP3    H128907   2.903   2.239   5.255  0.6091  2.3870  0.4797
 2472TIP3    H228908   2.832   2.318   5.147 -0.6800  0.1023 -0.3657
 2473TIP3   OH228909   0.956   1.707   4.194 -0.1222 -0.2521  0.4342
 2473TIP3    H128910   0.893   1.776   4.177  0.0667  0.5047  2.6099
 2473TIP3    H228911   1.039   1.753   4.208  0.9606 -1.2267 -2.3760
 2474TIP3   OH228912   2.996   0.345  13.420  0.3802  0.7518 -0.5906
 2474TIP3    H128913   2.927   0.342  13.486  0.0571  0.4814 -0.9444
 2474TIP3    H228914   3.059   0.277  13.448  1.3858  2.1821  0.7040
 2475TIP3   OH228915   1.451   5.264  12.258 -0.0792  0.4302  0.5754
 2475TIP3    H128916   1.460   5.341  12.202 -2.7780  1.7238  1.8343
 2475TIP3    H228917   1.522   5.271  12.321 -0.6573  2.2635  1.0559
 2476TIP3   OH228918   0.441   3.289  13.441 -0.3190  0.2792 -0.5998
 2476TIP3    H128919   0.401   3.333  13.366 -0.0098  0.1352 -0.8503
 2476TIP3    H228920   0.430   3.196  13.423  2.5005  0.1754 -1.9767
 2477TIP3   OH228921   0.500   1.824  11.468 -0.2816 -0.5395  0.0816
 2477TIP3    H128922   0.471   1.832  11.378  0.0514  1.0392  0.0957
 2477TIP3    H228923   0.427   1.856  11.520  0.0718 -0.0967  0.3040
 2478TIP3   OH228924   2.778   4.026   5.888 -0.5422 -0.1367 -0.7245
 2478TIP3    H128925   2.725   4.105   5.898 -2.1671 -1.2768 -0.1482
 2478TIP3    H228926   2.776   3.985   5.974  0.1754 -0.8720 -1.0551
 2479TIP3   OH228927   5.195   0.038   0.128 -0.4168 -0.4810 -0.0533
 2479TIP3    H128928   5.131  -0.030   0.148 -0.4524 -0.1542  0.9670
 2479TIP3    H228929   5.277   0.007   0.166 -0.2240 -0.3744 -0.3767
 2480TIP3   OH228930   6.378   0.003   2.211  0.2451  0.2257  0.2236
 2480TIP3    H128931   6.437  -0.066   2.183 -0.4122  0.2955 -1.3504
 2480TIP3    H228932   6.301  -0.006   2.156 -0.7844  0.8057  1.5363
 2481TIP3   OH228933   6.133   0.512   2.321  0.8110 -0.3443 -0.1897
 2481TIP3    H128934   6.187   0.562   2.261 -0.6527 -0.0039 -1.2631
 2481TIP3    H228935   6.113   0.573   2.393  0.6013  0.0023 -0.5432
 2482TIP3   OH228936   6.222   0.354  16.171  0.3397 -0.0798  0.5808
 2482TIP3    H128937   6.149   0.292  16.165 -2.5380  2.8456  3.1452
 2482TIP3    H228938   6.257   0.341  16.259 -0.0019  1.5780  0.9799
 2483TIP3   OH228939   2.470   0.994   6.584 -0.5293 -0.1064 -0.0741
 2483TIP3    H128940   2.542   1.025   6.530 -0.9192  0.4857 -0.2579
 2483TIP3    H228941   2.473   0.899   6.576 -1.7987  0.0257 -2.7389
 2484TIP3   OH228942   2.480   2.509   2.046 -0.6315 -0.9389 -0.1539
 2484TIP3    H128943   2.521   2.519   2.132 -1.0525 -1.0428  0.0604
 2484TIP3    H228944   2.456   2.598   2.020 -0.2517 -0.8730 -0.2957
 2485TIP3   OH228945   1.325   5.686   2.201  0.4217 -0.4012  0.1169
 2485TIP3    H128946   1.312   5.592   2.189  0.8904 -0.4878  0.2685
 2485TIP3    H228947   1.292   5.725   2.120 -2.8272 -0.4156  1.3576
 2486TIP3   OH228948   6.726   1.736   2.451 -0.0933  0.0708 -0.7149
 2486TIP3    H128949   6.666   1.662   2.463  1.0487 -0.7812 -0.1030
 2486TIP3    H228950   6.782   1.734   2.529 -0.8189  2.3340 -0.0951
 2487TIP3   OH228951   3.638   0.728   0.586 -0.4230 -0.2308  0.1167
 2487TIP3    H128952   3.542   0.730   0.591 -0.4621  0.3165 -0.7861
 2487TIP3    H228953   3.667   0.751   0.675 -1.1247  1.3133 -0.0301
 2488TIP3   OH228954   1.915   2.740  14.193 -0.0192 -0.0636  0.2949
 2488TIP3    H128955   1.842   2.798  14.210 -0.9175 -1.3463  0.8739
 2488TIP3    H228956   1.875   2.656  14.172  1.2963 -1.0350  1.5994
 2489TIP3   OH228957   5.512   5.628  12.753  0.2874  0.1059 -0.0783
 2489TIP3    H128958   5.544   5.711  12.787  0.3735 -0.3153  0.9112
 2489TIP3    H228959   5.418   5.628  12.774  0.6202 -0.7971  1.5695
 2490TIP3   OH228960   3.073   0.596  11.546 -0.2613 -0.2456 -0.2157
 2490TIP3    H128961   3.049   0.688  11.556 -1.3297 -0.5743  0.3474
 2490TIP3    H228962   3.029   0.568  11.466 -1.1090 -0.6448  0.3900
 2491TIP3   OH228963   1.302   4.506   0.049  0.2484  0.3717 -0.1717
 2491TIP3    H128964   1.307   4.464  -0.037 -3.1313 -1.9467  0.6545
 2491TIP3    H228965   1.250   4.585   0.034 -0.9565 -0.4099 -0.1417
 2492TIP3   OH228966   1.101   2.898  14.927  0.2249 -0.2742 -0.0451
 2492TIP3    H128967   1.117   2.864  14.839 -0.5167 -0.3288 -0.1633
 2492TIP3    H228968   1.010   2.928  14.925 -0.0486 -1.0068  0.9277
 2493TIP3   OH228969   5.507   4.495   0.736 -0.2011 -0.2101 -0.1598
 2493TIP3    H128970   5.545   4.408   0.753  0.2786 -0.3838 -2.0367
 2493TIP3    H228971   5.454   4.483   0.657  1.4904  1.6555 -1.6354
 2494TIP3   OH228972   6.595   2.483   3.161 -0.0400  0.4942  0.0144
 2494TIP3    H128973   6.604   2.388   3.161  0.4728  0.5207  1.8581
 2494TIP3    H228974   6.666   2.514   3.106  0.7463 -0.1251  0.6724
 2495TIP3   OH228975   6.087   2.453  11.961 -0.3268 -0.4349 -0.6461
 2495TIP3    H128976   6.166   2.454  11.906 -1.1330 -2.0410 -1.8767
 2495TIP3    H228977   6.016   2.441  11.898 -1.4558 -0.1418  0.5762
 2496TIP3   OH228978   5.709   1.897   5.060 -0.1144 -0.1642 -0.0068
 2496TIP3    H128979   5.659   1.953   5.001 -0.4811 -1.4904 -0.9813
 2496TIP3    H228980   5.799   1.902   5.027  0.1421  1.0184  0.8237
 2497TIP3   OH228981   2.135   2.672  13.410 -0.0905  0.9660  0.0840
 2497TIP3    H128982   2.122   2.604  13.476 -2.5051 -0.9327 -2.2704
 2497TIP3    H228983   2.092   2.750  13.447 -0.4462  0.2439  1.2270
 2498TIP3   OH228984   6.031   6.686  14.588  0.0009 -0.4914  0.0625
 2498TIP3    H128985   5.983   6.680  14.505  0.4044 -1.7124 -0.0863
 2498TIP3    H228986   6.017   6.776  14.617 -0.6297 -0.2271 -1.0379
 2499TIP3   OH228987   4.324   3.268   2.254  0.2391 -0.1133 -0.3493
 2499TIP3    H128988   4.406   3.236   2.216 -0.2847 -0.3618 -1.3034
 2499TIP3    H228989   4.257   3.208   2.221 -0.3442  0.1574  0.3185
 2500TIP3   OH228990   4.286   2.325  16.503  0.1644 -0.1038  0.3238
 2500TIP3    H128991   4.380   2.341  16.502  0.6737 -2.8775 -1.4836
 2500TIP3    H228992   4.254   2.364  16.422 -0.3862  1.5078  1.3015
 2501TIP3   OH228993   1.240   0.669  10.950  0.3883 -0.1232 -0.1911
 2501TIP3    H128994   1.292   0.596  10.983  0.3636  0.2928  0.7933
 2501TIP3    H228995   1.163   0.629  10.910  1.7448 -0.7841 -2.2110
 2502TIP3   OH228996   2.926   2.586   1.231 -0.2860 -0.2945 -0.0825
 2502TIP3    H128997   2.835   2.612   1.219 -0.3638  0.4612  1.9719
 2502TIP3    H228998   2.967   2.660   1.276  1.2803 -0.7448 -0.7368
 2503TIP3   OH228999   0.759   0.377  16.240 -0.1265 -0.7891  0.3670
 2503TIP3    H129000   0.790   0.288  16.260  0.0810 -0.3984  1.8471
 2503TIP3    H229001   0.837   0.432  16.252 -0.9465 -0.0280  2.3772
 2504TIP3   OH229002   1.812   0.931  13.361 -0.1442 -0.2229  0.2966
 2504TIP3    H129003   1.880   0.975  13.413 -0.8720 -1.1177  2.0265
 2504TIP3    H229004   1.857   0.855  13.323 -0.2005 -0.9109  1.5797
 2505TIP3   OH229005   1.342   4.938   3.276  0.4163 -0.1970  0.2455
 2505TIP3    H129006   1.409   4.892   3.327 -0.1656 -0.0168  1.1883
 2505TIP3    H229007   1.357   4.910   3.186 -0.0069 -2.3519  0.8141
 2506TIP3   OH229008   4.862   3.912   3.443  0.4834  0.6725 -0.0318
 2506TIP3    H129009   4.928   3.981   3.435 -0.0470  1.3178  1.1159
 2506TIP3    H229010   4.910   3.839   3.482  1.4116 -0.1549 -2.6150
 2507TIP3   OH229011   1.410   0.317  16.427 -0.1007 -0.3619  0.5276
 2507TIP3    H129012   1.327   0.289  16.389 -0.3521  1.8810 -0.6605
 2507TIP3    H229013   1.409   0.282  16.516 -1.8121 -1.2698  0.1726
 2508TIP3   OH229014   5.925   0.515  10.972  0.4317  0.3155  0.1005
 2508TIP3    H129015   5.953   0.604  10.952 -2.7721  1.2060 -0.7379
 2508TIP3    H229016   6.006   0.464  10.972  2.4348  3.3400  1.4630
 2509TIP3   OH229017   5.585   4.990  11.782 -0.7899  0.6023 -0.1759
 2509TIP3    H129018   5.622   5.074  11.755 -2.0427  1.9319  2.0977
 2509TIP3    H229019   5.584   4.993  11.878  0.0495 -2.4305 -0.0155
 2510TIP3   OH229020   0.921   5.200  14.545 -0.1331 -0.1195  0.0684
 2510TIP3    H129021   1.003   5.213  14.497 -0.9121 -1.1034 -1.5405
 2510TIP3    H229022   0.880   5.124  14.504 -2.4646  1.1175  0.0074
 2511TIP3   OH229023   4.943   1.215  16.670  0.1817 -0.0637  0.8688
 2511TIP3    H129024   5.007   1.254  16.611 -1.8749  2.9196  0.4797
 2511TIP3    H229025   4.908   1.141  16.622  0.3442  0.8153 -0.6422
 2512TIP3   OH229026   2.690   4.956  13.542 -0.1016  0.5003  0.0374
 2512TIP3    H129027   2.754   4.915  13.484  0.6187  1.2974  0.2554
 2512TIP3    H229028   2.678   4.893  13.613 -1.6020 -0.8515 -1.3721
 2513TIP3   OH229029   0.488   0.471   5.587  0.3417 -0.4992  0.3593
 2513TIP3    H129030   0.400   0.464   5.548  1.0484  0.3071 -1.4325
 2513TIP3    H229031   0.547   0.452   5.514  1.6760 -0.1337  1.3442
 2514TIP3   OH229032   4.347   3.406   4.903  0.2652 -0.0135  0.1386
 2514TIP3    H129033   4.383   3.330   4.948  2.1037  1.6986  1.6641
 2514TIP3    H229034   4.277   3.437   4.960 -0.5763 -0.6334 -0.5495
 2515TIP3   OH229035   1.042   3.630   2.349  0.3246 -0.4144  0.2779
 2515TIP3    H129036   1.103   3.649   2.421  0.7193 -2.2718  0.4579
 2515TIP3    H229037   1.088   3.566   2.295 -1.8851 -2.7086  1.0172
 2516TIP3   OH229038   3.675   3.647   3.690 -0.1637  0.0127  0.5029
 2516TIP3    H129039   3.643   3.566   3.650 -3.2259  2.4154 -2.1447
 2516TIP3    H229040   3.610   3.667   3.758  0.9375 -0.0971  1.5948
 2517TIP3   OH229041   0.519   1.310   5.293  0.0033 -0.4473 -0.2582
 2517TIP3    H129042   0.477   1.318   5.379 -0.0540  2.4127 -0.5056
 2517TIP3    H229043   0.597   1.257   5.310  0.8479  1.3937  1.9082
 2518TIP3   OH229044   6.691   3.047  11.437 -0.1911  0.4452 -0.1627
 2518TIP3    H129045   6.729   3.081  11.518  1.2371 -0.6802 -0.3292
 2518TIP3    H229046   6.674   2.955  11.455 -1.7667  0.6631 -0.4977
 2519TIP3   OH229047   4.356   1.516  13.672 -0.1662 -0.5353  1.1327
 2519TIP3    H129048   4.306   1.481  13.599  0.7782  0.5163 -0.0475
 2519TIP3    H229049   4.416   1.446  13.697  0.6028 -0.3472 -0.1515
 2520TIP3   OH229050   5.539   2.011  11.682 -0.7378  0.2885 -0.3154
 2520TIP3    H129051   5.608   1.973  11.628 -0.9355  0.7534 -0.9059
 2520TIP3    H229052   5.570   2.001  11.771 -0.2081 -0.0963 -0.5406
 2521TIP3   OH229053   0.607   1.077   2.258 -0.5154 -0.5595  0.4594
 2521TIP3    H129054   0.514   1.078   2.283 -0.3829 -0.9820  0.9809
 2521TIP3    H229055   0.647   1.142   2.316 -0.5326 -0.1553  0.0255
 2522TIP3   OH229056   1.626   2.396  15.993 -0.3704 -0.2555 -0.1097
 2522TIP3    H129057   1.691   2.466  15.994 -2.3389  1.6166  0.1115
 2522TIP3    H229058   1.678   2.316  15.979  1.9701  1.1448  0.1879
 2523TIP3   OH229059   0.518   3.346   3.926 -0.3640 -0.2212 -0.2333
 2523TIP3    H129060   0.547   3.261   3.960 -0.4912  0.8059  2.6087
 2523TIP3    H229061   0.597   3.400   3.926 -0.7542  0.3536  0.2324
 2524TIP3   OH229062   2.039   2.816   1.234  0.1488  0.2612  0.2191
 2524TIP3    H129063   1.994   2.742   1.275 -0.8569 -0.3635 -1.9026
 2524TIP3    H229064   1.994   2.894   1.268  0.1941 -0.1706  1.2689
 2525TIP3   OH229065   4.008   5.608   4.959  0.0317  0.1217  0.5330
 2525TIP3    H129066   3.917   5.630   4.982 -0.0771  0.8514 -0.5651
 2525TIP3    H229067   4.055   5.691   4.965  0.4726 -0.1106  0.3146
 2526TIP3   OH229068   2.348   2.324   6.007  0.7394  0.1594  0.8410
 2526TIP3    H129069   2.283   2.255   6.018  2.1265 -1.6443 -1.8021
 2526TIP3    H229070   2.380   2.342   6.096 -0.6684 -1.5558  1.7228
 2527TIP3   OH229071   3.775   6.641  17.090 -0.0213  0.0593 -0.3172
 2527TIP3    H129072   3.798   6.677  17.004 -1.1253 -0.7932 -0.9799
 2527TIP3    H229073   3.729   6.713  17.134  0.0466  0.3087 -0.6496
 2528TIP3   OH229074   1.130   4.356   5.412  0.1781 -0.2628 -0.2646
 2528TIP3    H129075   1.054   4.358   5.354 -0.2401 -0.6692  0.2728
 2528TIP3    H229076   1.102   4.305   5.488  0.8956 -0.1818  0.0614
 2529TIP3   OH229077   0.802   4.835  12.039 -0.1803  0.1223  0.4863
 2529TIP3    H129078   0.889   4.806  12.011 -0.1237  0.0568  0.7276
 2529TIP3    H229079   0.791   4.920  11.998 -0.8370 -0.7487 -1.2052
 2530TIP3   OH229080   5.172   4.574  11.556 -0.0409  0.8365 -0.1343
 2530TIP3    H129081   5.106   4.505  11.552  0.6192  0.2716 -1.7112
 2530TIP3    H229082   5.122   4.655  11.549 -0.7462  0.4878  0.8157
 2531TIP3   OH229083   3.371   0.067  13.344  0.0323  0.0061  0.3551
 2531TIP3    H129084   3.379   0.118  13.264  0.0995  2.6120  1.9557
 2531TIP3    H229085   3.281   0.037  13.345 -0.5321  1.6591  0.2769
 2532TIP3   OH229086   3.942   5.824  16.436  0.1618  0.0434  0.6316
 2532TIP3    H129087   3.959   5.821  16.342  1.3400  0.5268  0.8178
 2532TIP3    H229088   3.930   5.733  16.461  1.3787 -0.2150  0.2792
 2533TIP3   OH229089   0.965   6.265  12.584 -0.2846 -0.1853 -0.1267
 2533TIP3    H129090   0.898   6.316  12.630  0.4871  0.5601  0.1830
 2533TIP3    H229091   0.961   6.295  12.494 -0.4713 -0.2560 -0.1428
 2534TIP3   OH229092   5.628   4.997  12.955  0.6317  0.4427 -0.4195
 2534TIP3    H129093   5.609   4.910  12.990  0.6886 -0.1209 -1.7566
 2534TIP3    H229094   5.722   5.009  12.969  0.6688  0.1902 -0.4608
 2535TIP3   OH229095   2.603   6.351  12.184 -0.6841 -0.3226  0.3763
 2535TIP3    H129096   2.534   6.306  12.135  0.1641 -1.7865  0.5216
 2535TIP3    H229097   2.685   6.318  12.146 -0.0446  0.4386  1.0822
 2536TIP3   OH229098   2.015   4.741   5.836  0.0674 -0.5352 -0.4993
 2536TIP3    H129099   2.043   4.654   5.806  2.2993  0.6041 -1.9100
 2536TIP3    H229100   2.085   4.769   5.895 -0.1434  0.7204 -0.8439
 2537TIP3   OH229101   4.012   1.217   4.439  0.1710 -0.2905  0.0596
 2537TIP3    H129102   4.010   1.146   4.504  1.6159  1.8573  2.5476
 2537TIP3    H229103   4.101   1.252   4.444 -0.7157  2.1905 -0.5548
 2538TIP3   OH229104   1.953   4.070   4.359 -0.4507 -0.5731  0.0445
 2538TIP3    H129105   2.000   4.023   4.290 -0.7054 -0.9745  0.1485
 2538TIP3    H229106   1.931   4.003   4.423  1.2013  0.0490  1.3038
 2539TIP3   OH229107   6.121   6.249  11.276 -0.9008  0.1513  0.0823
 2539TIP3    H129108   6.081   6.334  11.256 -2.3774 -0.3958  0.6238
 2539TIP3    H229109   6.189   6.238  11.210 -1.0440  1.5156 -0.3145
 2540TIP3   OH229110   3.804   1.010  16.098  0.0674  0.3478 -0.2986
 2540TIP3    H129111   3.725   0.972  16.136 -0.8243  0.6006 -1.8366
 2540TIP3    H229112   3.801   0.985  16.006  0.4545  2.5056 -0.9258
 2541TIP3   OH229113   4.048   6.369  16.154 -0.3855  0.2307  0.3588
 2541TIP3    H129114   3.969   6.346  16.105 -0.7103 -2.1814  1.9439
 2541TIP3    H229115   4.021   6.439  16.212 -0.4862  1.7617 -1.4796
 2542TIP3   OH229116   4.612   3.090   4.815  0.8658 -0.9766 -0.2210
 2542TIP3    H129117   4.621   3.174   4.769  0.7827 -0.9518 -0.1910
 2542TIP3    H229118   4.615   3.113   4.907 -1.0898 -0.7946 -0.1856
 2543TIP3   OH229119   3.370   4.168   2.789 -0.0355  0.2131  0.6176
 2543TIP3    H129120   3.364   4.208   2.876 -0.3072  0.4124  0.5072
 2543TIP3    H229121   3.463   4.176   2.766 -0.1649  1.1612  0.4176
 2544TIP3   OH229122   6.570   3.189  12.997 -0.3495 -0.0836  0.2889
 2544TIP3    H129123   6.537   3.177  13.086 -2.0024 -1.2510 -0.4420
 2544TIP3    H229124   6.561   3.103  12.956 -0.1966  0.5757 -1.1856
 2545TIP3   OH229125   5.010   0.335   5.934 -0.4286  0.1832 -0.3332
 2545TIP3    H129126   4.920   0.350   5.965 -0.2722 -0.8432  0.6559
 2545TIP3    H229127   5.035   0.251   5.973  0.8852  0.3588 -0.7768
 2546TIP3   OH229128   6.721   4.906  12.458 -0.5922  0.3473  0.0163
 2546TIP3    H129129   6.755   4.837  12.514  1.0037 -0.5649 -2.0097
 2546TIP3    H229130   6.639   4.933  12.500  0.2559 -0.7115  2.4188
 2547TIP3   OH229131   3.255   4.812   4.137 -0.2032  0.2345 -0.1279
 2547TIP3    H129132   3.200   4.777   4.207  1.6720  1.9489  2.3574
 2547TIP3    H229133   3.305   4.737   4.106 -2.2876 -0.8934 -0.8579
 2548TIP3   OH229134   6.491   2.958  14.423  0.1854 -0.1235 -0.4060
 2548TIP3    H129135   6.425   2.922  14.483 -1.3356  0.9975 -1.3636
 2548TIP3    H229136   6.440   3.006  14.358  1.8395 -0.7563 -2.2268
 2549TIP3   OH229137   6.392   2.163   0.351  0.2171 -0.2457  0.0090
 2549TIP3    H129138   6.462   2.150   0.286 -0.5139 -1.3083 -0.5975
 2549TIP3    H229139   6.417   2.106   0.424 -0.1828 -0.8846 -0.3496
 2550TIP3   OH229140   2.613   3.798  11.705  0.0413 -0.2740  0.3600
 2550TIP3    H129141   2.586   3.858  11.774  1.1166 -1.4737  1.8468
 2550TIP3    H229142   2.579   3.712  11.732  0.2926 -0.7264 -0.7075
 2551TIP3   OH229143   1.461   1.874   2.158  0.6106 -0.3205  0.0172
 2551TIP3    H129144   1.526   1.869   2.228  1.2341 -0.0998 -0.5336
 2551TIP3    H229145   1.386   1.919   2.197  1.3851  0.8277  0.2274
 2552TIP3   OH229146   3.888   1.638  15.868  0.5059 -0.3545 -0.3275
 2552TIP3    H129147   3.836   1.701  15.918 -0.5582 -0.0120 -1.8106
 2552TIP3    H229148   3.891   1.675  15.780  2.7827 -0.6849 -0.4272
 2553TIP3   OH229149   4.099   3.203   2.654  0.5720  0.6930  0.2705
 2553TIP3    H129150   4.014   3.199   2.609  0.8448 -0.4393 -0.1502
 2553TIP3    H229151   4.161   3.228   2.586  0.8348 -0.1092  0.2084
 2554TIP3   OH229152   0.483   6.023   5.009 -0.0378  1.3817 -0.2589
 2554TIP3    H129153   0.539   6.073   4.950  1.6932  0.5647  0.6520
 2554TIP3    H229154   0.462   6.085   5.080  1.2796  1.1418  0.3589
 2555TIP3   OH229155   3.978   3.038  11.745  0.2322  0.2368 -0.6165
 2555TIP3    H129156   3.985   3.033  11.840  0.3534  1.0262 -0.5796
 2555TIP3    H229157   4.017   2.956  11.714 -1.2729 -0.7430  0.0640
 2556TIP3   OH229158   1.963   1.584   1.650  0.4175 -0.2915 -0.1538
 2556TIP3    H129159   1.991   1.524   1.581  1.5508 -2.2028  1.9180
 2556TIP3    H229160   1.878   1.550   1.678  0.3420  0.0125 -0.0110
 2557TIP3   OH229161   1.177   5.296  14.302  0.6280  0.2334 -0.2362
 2557TIP3    H129162   1.141   5.361  14.241  1.7218  0.7596 -0.3179
 2557TIP3    H229163   1.266   5.326  14.319  0.8588 -0.8013  0.3664
 2558TIP3   OH229164   0.310   1.624   4.577  0.0975 -0.4755 -0.1187
 2558TIP3    H129165   0.232   1.577   4.549  0.3105 -0.8655 -0.0610
 2558TIP3    H229166   0.322   1.598   4.669  1.0101 -1.4083 -0.4848
 2559TIP3   OH229167   0.593   6.139  15.161 -0.0461 -0.1678  0.2380
 2559TIP3    H129168   0.639   6.170  15.238  2.1576 -0.1985 -1.0205
 2559TIP3    H229169   0.660   6.138  15.092 -2.0529  0.2476 -1.7635
 2560TIP3   OH229170   2.570   4.464  11.514  0.2941  0.0836 -0.5194
 2560TIP3    H129171   2.614   4.549  11.519  0.2833  0.1092 -0.8509
 2560TIP3    H229172   2.477   4.486  11.512  0.2784  0.0474 -0.2460
 2561TIP3   OH229173   0.476   4.345   3.946 -0.7048  0.2646 -0.5211
 2561TIP3    H129174   0.398   4.393   3.917 -0.9137  0.2460  0.0155
 2561TIP3    H229175   0.460   4.255   3.918 -0.3343  0.4946 -1.4880
 2562TIP3   OH229176   2.890   2.921   4.685 -0.1969 -0.3384 -0.2640
 2562TIP3    H129177   2.912   2.894   4.775 -0.5059  1.3704  0.3450
 2562TIP3    H229178   2.808   2.874   4.666  0.0813 -1.0198  0.1884
 2563TIP3   OH229179   0.490   3.417  11.930 -0.1142  0.3814 -0.1733
 2563TIP3    H129180   0.570   3.365  11.918 -1.1026 -1.3464  0.6006
 2563TIP3    H229181   0.454   3.426  11.841 -0.8073 -1.7021 -0.1277
 2564TIP3   OH229182   5.854   5.949   4.726  0.0883 -0.6412 -0.0167
 2564TIP3    H129183   5.892   5.943   4.814 -1.4422 -0.7011  0.6533
 2564TIP3    H229184   5.912   5.895   4.672  0.8715 -0.8510  1.0080
 2565TIP3   OH229185   1.597   1.509   5.610 -0.1266 -0.2538  0.7649
 2565TIP3    H129186   1.541   1.442   5.571  0.0305 -0.0819  0.2344
 2565TIP3    H229187   1.677   1.506   5.558 -0.6428  1.2931 -0.1622
 2566TIP3   OH229188   5.516   6.088  16.182 -0.3105 -0.6056 -0.4713
 2566TIP3    H129189   5.555   6.142  16.251  0.5779  0.9433 -2.1461
 2566TIP3    H229190   5.481   6.012  16.229  1.6423 -0.3504  1.5125
 2567TIP3   OH229191   1.978   0.945   2.665  0.4175 -0.4075 -0.0244
 2567TIP3    H129192   1.908   1.011   2.671 -0.6611 -1.4633 -0.7409
 2567TIP3    H229193   1.956   0.894   2.587  1.6742 -1.1265  0.0806
 2568TIP3   OH229194   1.658   3.732  13.841  0.3071 -0.3992 -0.4072
 2568TIP3    H129195   1.732   3.787  13.866  0.0347 -0.0675 -0.3349
 2568TIP3    H229196   1.615   3.780  13.770 -0.1910 -0.3027 -0.0414
 2569TIP3   OH229197   0.145   1.103  13.398 -0.3491 -0.1341  0.6005
 2569TIP3    H129198   0.203   1.027  13.409  0.3367  0.2761 -0.1159
 2569TIP3    H229199   0.202   1.179  13.407 -0.2877  0.2593 -2.5205
 2570TIP3   OH229200   4.261   3.467  14.743  0.5540  0.8407 -0.3397
 2570TIP3    H129201   4.303   3.388  14.708  1.5589  0.8470  0.8099
 2570TIP3    H229202   4.319   3.539  14.716  1.4169  0.8304  1.4174
 2571TIP3   OH229203   6.252   1.129  14.329  0.2880 -0.3411 -0.1692
 2571TIP3    H129204   6.177   1.071  14.343  1.5371 -1.7210  0.8474
 2571TIP3    H229205   6.311   1.080  14.272  0.8999  0.3384 -0.1317
 2572TIP3   OH229206   6.118   0.189   0.054  0.3438  0.0638  0.4212
 2572TIP3    H129207   6.194   0.214   0.107  0.2865  2.9937 -0.7991
 2572TIP3    H229208   6.154   0.165  -0.031  0.0848 -0.5997  0.4970
 2573TIP3   OH229209   4.211   3.042  14.748  0.1216 -0.6287  0.3244
 2573TIP3    H129210   4.161   3.035  14.829  4.0214 -2.0565  2.6995
 2573TIP3    H229211   4.208   2.954  14.710 -1.5092 -0.0170 -1.0643
 2574TIP3   OH229212   5.868   0.867   2.247  0.1067 -0.1233 -0.0571
 2574TIP3    H129213   5.787   0.847   2.295  0.1727 -0.7576 -0.2081
 2574TIP3    H229214   5.847   0.947   2.198  0.0643  0.5816  1.0786
 2575TIP3   OH229215   2.394   5.876   3.197 -0.2957 -0.3002 -0.5803
 2575TIP3    H129216   2.380   5.930   3.119 -1.0571  0.7381  0.2659
 2575TIP3    H229217   2.352   5.793   3.176 -1.2944  0.2827 -0.9430
 2576TIP3   OH229218   1.562   6.309  12.212  0.0046 -0.1235  0.1008
 2576TIP3    H129219   1.478   6.354  12.207 -0.8768 -1.7492  0.1735
 2576TIP3    H229220   1.604   6.345  12.290 -1.6478 -1.0562  1.4345
 2577TIP3   OH229221   6.490   5.462  11.107 -0.1566  0.5162  0.1004
 2577TIP3    H129222   6.439   5.485  11.030 -1.6893 -0.9435  0.6575
 2577TIP3    H229223   6.542   5.386  11.080 -2.5781 -1.6038  1.2038
 2578TIP3   OH229224   6.471   4.056  12.294  0.4488 -0.1665 -0.5843
 2578TIP3    H129225   6.560   4.042  12.323  0.0733 -0.2845  0.5249
 2578TIP3    H229226   6.455   3.986  12.231  0.7775 -0.7978  0.0300
 2579TIP3   OH229227   6.683   3.933   1.843  0.2376 -0.1042  0.0490
 2579TIP3    H129228   6.694   3.872   1.769 -1.9910  1.4618 -1.6367
 2579TIP3    H229229   6.750   4.000   1.829  0.7905 -0.5952  0.2997
 2580TIP3   OH229230   0.978   1.539   5.951  0.0582  0.3721 -0.1100
 2580TIP3    H129231   1.040   1.505   5.887 -2.6100 -1.4502 -1.8115
 2580TIP3    H229232   1.020   1.522   6.036  1.5754 -1.4608 -1.1829
 2581TIP3   OH229233   2.742   3.109  15.543  0.2968 -0.0224 -0.0700
 2581TIP3    H129234   2.747   3.145  15.632 -2.4731  3.0755 -1.0694
 2581TIP3    H229235   2.675   3.040  15.550 -1.1308  1.3342 -0.0531
 2582TIP3   OH229236   3.920   6.457   3.823  0.0885  0.1049 -0.5511
 2582TIP3    H129237   3.836   6.415   3.802  0.3789 -1.2870  0.9425
 2582TIP3    H229238   3.938   6.431   3.914  2.3440  0.0321 -0.9885
 2583TIP3   OH229239   4.965   1.449  13.743 -0.1718 -0.0543 -0.1991
 2583TIP3    H129240   5.013   1.427  13.823  2.2105 -3.6806 -2.4423
 2583TIP3    H229241   5.013   1.523  13.706  1.0996 -0.8479 -0.1774
 2584TIP3   OH229242   4.264   4.612  11.367  0.1965  0.0486 -0.1326
 2584TIP3    H129243   4.325   4.547  11.403 -1.5751 -0.6055  1.7755
 2584TIP3    H229244   4.263   4.683  11.431  0.5132  1.0272 -1.1846
 2585TIP3   OH229245   2.257   3.632  11.794  0.4846 -0.2907  0.0482
 2585TIP3    H129246   2.347   3.605  11.807  0.4895 -0.3137 -0.0310
 2585TIP3    H229247   2.224   3.653  11.881  0.9346  0.8792 -0.0570
 2586TIP3   OH229248   1.660   5.371  10.958 -0.8791 -0.2622  0.1802
 2586TIP3    H129249   1.627   5.290  10.917 -0.2300 -1.0904  1.2786
 2586TIP3    H229250   1.590   5.435  10.944 -1.5784 -1.1279 -0.3366
 2587TIP3   OH229251   3.813   5.588  15.262  0.2514 -0.2262 -0.0478
 2587TIP3    H129252   3.900   5.556  15.240  0.3496 -0.6987  1.0036
 2587TIP3    H229253   3.825   5.682  15.277  1.3087 -0.8578  3.6196
 2588TIP3   OH229254   2.088   0.546   3.666 -0.0085 -0.1413 -0.0334
 2588TIP3    H129255   2.093   0.598   3.586 -0.8930 -0.1655 -0.1124
 2588TIP3    H229256   2.049   0.463   3.639 -1.4009  0.2847  0.6204
 2589TIP3   OH229257   0.451   4.590   1.285  0.0802 -0.1907  0.5268
 2589TIP3    H129258   0.493   4.670   1.254  0.8255 -1.7017 -2.5725
 2589TIP3    H229259   0.359   4.600   1.262  0.0459  0.0659  0.7762
 2590TIP3   OH229260   5.753   2.331   0.046 -0.4053 -0.2124 -0.0140
 2590TIP3    H129261   5.681   2.306  -0.011 -0.6211  0.9064 -0.2255
 2590TIP3    H229262   5.823   2.358  -0.013 -0.0097 -0.7464  0.2045
 2591TIP3   OH229263   5.582   3.872  11.386 -0.4290 -0.0086  0.4177
 2591TIP3    H129264   5.669   3.854  11.349 -0.3647  0.1144  0.5102
 2591TIP3    H229265   5.570   3.804  11.453 -0.7343 -0.5084 -0.1332
 2592TIP3   OH229266   2.747   5.332   1.416  0.1376  0.2725  0.5678
 2592TIP3    H129267   2.815   5.400   1.412  0.4374 -0.0479  0.2187
 2592TIP3    H229268   2.785   5.257   1.371 -0.5707  0.1990  0.0698
 2593TIP3   OH229269   3.688   5.877   2.169  0.1047  0.0411 -0.2961
 2593TIP3    H129270   3.611   5.908   2.217  0.5990  0.0663  0.4898
 2593TIP3    H229271   3.664   5.788   2.140 -0.8280  0.6649 -1.4684
 2594TIP3   OH229272   5.223   6.066  11.182 -0.0150  0.3698 -0.0851
 2594TIP3    H129273   5.273   6.044  11.103 -0.0336 -0.8442  0.2366
 2594TIP3    H229274   5.200   6.159  11.171  1.4274  0.6647 -0.7133
 2595TIP3   OH229275   2.283   4.220   5.283  0.1955  0.4814 -0.0759
 2595TIP3    H129276   2.239   4.135   5.276  1.1431  0.0764 -1.3117
 2595TIP3    H229277   2.236   4.266   5.353 -1.2321 -0.5131 -0.3587
 2596TIP3   OH229278   5.282   2.501  12.914 -0.1481 -0.1111 -0.2452
 2596TIP3    H129279   5.196   2.540  12.899 -0.3852 -0.2394  0.7469
 2596TIP3    H229280   5.274   2.454  12.997  0.7283 -0.5626 -0.4031
 2597TIP3   OH229281   0.256   0.574  17.063  0.1674  0.1997 -1.1081
 2597TIP3    H129282   0.322   0.629  17.105  1.2532 -0.9011 -1.3383
 2597TIP3    H229283   0.197   0.636  17.020  1.5952  1.1854 -1.7045
 2598TIP3   OH229284   6.750   3.674   3.965  0.0417  0.2175  0.1535
 2598TIP3    H129285   6.797   3.702   4.043 -0.2997 -1.3595  0.9334
 2598TIP3    H229286   6.698   3.599   3.993  0.1562 -0.5727 -1.6492
 2599TIP3   OH229287   5.768   0.900   0.413  0.3149 -0.0007  0.7131
 2599TIP3    H129288   5.723   0.935   0.336  1.9647  0.0190 -0.2815
 2599TIP3    H229289   5.734   0.811   0.422 -0.0204  0.0560  0.0679
 2600TIP3   OH229290   6.057   3.655  12.343 -0.0389  0.4790 -0.2139
 2600TIP3    H129291   5.998   3.714  12.389  0.3895  1.8968 -1.4727
 2600TIP3    H229292   6.121   3.629  12.409 -0.6818  0.7861  0.5390
 2601TIP3   OH229293   5.311   2.679  11.413  0.1491  0.2667 -0.2956
 2601TIP3    H129294   5.361   2.597  11.410 -0.1108  0.1547 -2.4390
 2601TIP3    H229295   5.370   2.744  11.376 -1.2217  0.1523 -2.7382
 2602TIP3   OH229296   0.077   0.959   3.830  0.0246  0.1847  0.1520
 2602TIP3    H129297   0.016   1.027   3.857  2.2743  2.4250 -0.2034
 2602TIP3    H229298   0.105   0.918   3.912  0.6653  1.4816  0.5943
 2603TIP3   OH229299   6.509   2.032  13.569  0.4298 -0.2424  0.3346
 2603TIP3    H129300   6.521   2.045  13.664 -0.4385 -2.6534  0.8129
 2603TIP3    H229301   6.415   2.017  13.559  0.9418 -3.1795 -0.4556
 2604TIP3   OH229302   1.945   5.000  12.228  0.0096 -0.6178 -0.3159
 2604TIP3    H129303   1.865   4.951  12.245  0.3395 -0.9392  0.3646
 2604TIP3    H229304   2.010   4.932  12.208  0.7324 -0.5339  1.6894
 2605TIP3   OH229305   5.992   0.589  11.757 -0.3257  0.0725  0.5298
 2605TIP3    H129306   6.081   0.554  11.754 -1.3457 -2.5329 -0.6028
 2605TIP3    H229307   5.974   0.602  11.850  1.1261  0.3208  0.7795
 2606TIP3   OH229308   4.098   6.771   1.859  0.8023 -1.0628  0.5934
 2606TIP3    H129309   4.079   6.794   1.950 -1.7041 -0.7218  0.0182
 2606TIP3    H229310   4.050   6.689   1.845  0.0811 -0.4198 -0.7800
 2607TIP3   OH229311   3.008   1.687   3.442 -0.2027  0.5475  0.8778
 2607TIP3    H129312   2.964   1.771   3.458 -0.0440  0.6290  0.8921
 2607TIP3    H229313   2.950   1.622   3.480  0.0800  0.7213  1.6363
 2608TIP3   OH229314   1.771   4.503  11.989 -0.1748  0.3550  0.1361
 2608TIP3    H129315   1.689   4.528  12.033 -0.6336  0.2409 -0.6405
 2608TIP3    H229316   1.742   4.454  11.912  0.6563 -0.4858  0.3521
 2609TIP3   OH229317   3.216   4.927   3.421 -0.3163 -0.1183 -0.0041
 2609TIP3    H129318   3.232   4.949   3.513 -0.2548  0.0365 -0.0524
 2609TIP3    H229319   3.196   4.833   3.423  0.2803 -0.2475  0.0982
 2610TIP3   OH229320   0.143   4.033   4.900 -0.1609  0.2280 -0.5016
 2610TIP3    H129321   0.193   3.995   4.828 -0.2028  0.5921 -0.7244
 2610TIP3    H229322   0.202   4.097   4.940 -0.0692 -0.1087 -0.0907
 2611TIP3   OH229323   4.842   0.660   5.957 -0.1378 -0.2280  0.1972
 2611TIP3    H129324   4.848   0.571   5.990  0.2722 -0.4282 -0.4019
 2611TIP3    H229325   4.926   0.700   5.979  0.1342 -0.3593 -0.5817
 2612TIP3   OH229326   6.337   1.676   3.426 -0.0029 -0.5596 -0.7865
 2612TIP3    H129327   6.353   1.599   3.372  0.0212 -2.7826  2.2821
 2612TIP3    H229328   6.242   1.687   3.424 -0.0933 -1.2473 -0.4987
 2613TIP3   OH229329   1.120   2.844   1.009  0.0620  0.5793  0.4425
 2613TIP3    H129330   1.034   2.823   1.043  0.1328  0.2530  0.4192
 2613TIP3    H229331   1.130   2.788   0.932  0.0119  1.1191  0.0436
 2614TIP3   OH229332   2.605   6.203   6.016 -0.1334 -0.4992  0.7430
 2614TIP3    H129333   2.524   6.164   6.048 -0.6122 -0.8805 -0.8946
 2614TIP3    H229334   2.619   6.279   6.073 -2.0615  0.0378  0.5434
 2615TIP3   OH229335   4.572   6.513   6.014 -0.0141 -0.7462 -0.4181
 2615TIP3    H129336   4.601   6.422   6.023 -2.0313 -1.1539  2.9471
 2615TIP3    H229337   4.535   6.535   6.100 -0.8797  2.7922 -1.6091
 2616TIP3   OH229338   3.562   3.997  12.952  0.0418 -0.3755 -0.2872
 2616TIP3    H129339   3.500   3.926  12.969  0.6891 -0.7723  0.4666
 2616TIP3    H229340   3.529   4.040  12.873 -0.9825 -0.8107 -0.1031
 2617TIP3   OH229341   1.249   2.499   5.287  0.4574  0.3758 -0.2730
 2617TIP3    H129342   1.205   2.421   5.321 -0.9703  0.4443 -1.8895
 2617TIP3    H229343   1.288   2.469   5.204  0.7024  1.1546 -0.4400
 2618TIP3   OH229344   3.923   1.992   0.761 -0.2554 -0.3890  0.0174
 2618TIP3    H129345   3.842   2.032   0.793 -0.5258 -0.7195 -0.2492
 2618TIP3    H229346   3.993   2.044   0.801 -0.6018  0.1575 -0.0826
 2619TIP3   OH229347   4.301   5.164  14.854  0.2049  0.1924 -0.1989
 2619TIP3    H129348   4.232   5.186  14.916  0.7397  1.6463 -0.0982
 2619TIP3    H229349   4.265   5.187  14.769 -0.5643 -1.8919 -0.4741
 2620TIP3   OH229350   3.046   1.676  11.896  0.2001 -0.1404  0.2510
 2620TIP3    H129351   2.950   1.674  11.903  0.1954 -0.4459  0.1288
 2620TIP3    H229352   3.064   1.628  11.815  0.4730 -0.3499  0.4391
 2621TIP3   OH229353   0.868   2.057  10.410 -0.5439  0.1484  0.0718
 2621TIP3    H129354   0.800   2.048  10.477 -1.1362  0.5317 -0.4659
 2621TIP3    H229355   0.864   1.975  10.361 -0.8865  0.3306 -0.2051
 2622TIP3   OH229356   3.731   4.034  12.567 -0.1879  0.3159  0.3338
 2622TIP3    H129357   3.662   4.087  12.607 -1.0776  1.4181 -2.5318
 2622TIP3    H229358   3.684   3.963  12.522  0.7809 -0.8227  1.0730
 2623TIP3   OH229359   1.492   1.561   2.955  0.1774  0.3988  0.0958
 2623TIP3    H129360   1.560   1.588   3.017  1.1847  1.4275 -1.4195
 2623TIP3    H229361   1.441   1.640   2.939  1.3211  0.7261 -2.1040
 2624TIP3   OH229362   3.352   6.338   4.721 -0.1531 -0.3687 -0.5588
 2624TIP3    H129363   3.382   6.353   4.631  0.2458 -0.1457 -0.3926
 2624TIP3    H229364   3.387   6.413   4.771 -0.4151 -0.4638 -0.2293
 2625TIP3   OH229365   5.857   0.121  14.981 -0.0698  0.0560 -0.1428
 2625TIP3    H129366   5.792   0.185  14.949  0.7298  1.5240  1.0981
 2625TIP3    H229367   5.820   0.090  15.063 -0.1554 -0.6317 -0.4396
 2626TIP3   OH229368   3.937   4.124   2.438  0.0700  0.5340  0.0632
 2626TIP3    H129369   3.959   4.122   2.345 -0.8921 -1.0157 -0.1472
 2626TIP3    H229370   3.866   4.061   2.447  0.7811 -0.0177  2.0095
 2627TIP3   OH229371   5.962   6.445  14.717 -0.0559 -0.0600  0.4842
 2627TIP3    H129372   5.912   6.409  14.643 -0.1684 -0.7621  0.8931
 2627TIP3    H229373   5.973   6.537  14.696  0.1786 -0.3172 -0.5678
 2628TIP3   OH229374   1.389   6.027  13.091  0.1840 -0.0145  0.1350
 2628TIP3    H129375   1.350   5.945  13.120  0.1633 -0.4543 -1.1053
 2628TIP3    H229376   1.377   6.087  13.165 -0.3886 -0.9298  0.7928
 2629TIP3   OH229377   1.418   3.973   1.060  0.3834 -0.1456 -0.1515
 2629TIP3    H129378   1.454   3.922   0.987  1.2220  0.6021 -0.2516
 2629TIP3    H229379   1.463   3.939   1.138  2.7199  2.0977 -0.4909
 2630TIP3   OH229380   6.696   3.612   3.693  0.1711  0.3845  0.0486
 2630TIP3    H129381   6.658   3.692   3.657 -0.6335  0.4255  1.0019
 2630TIP3    H229382   6.716   3.633   3.784 -0.2893 -0.5825  0.3815
 2631TIP3   OH229383   2.541   4.937   4.146  0.2153  0.2164  0.1060
 2631TIP3    H129384   2.463   4.899   4.187  0.4641 -0.7328 -0.2873
 2631TIP3    H229385   2.590   4.862   4.112  0.2194  0.9429 -1.5662
 2632TIP3   OH229386   2.515   5.028   2.268  0.3300  0.1569  0.0813
 2632TIP3    H129387   2.542   5.093   2.202  0.1669 -0.4821 -0.6141
 2632TIP3    H229388   2.595   5.009   2.317  0.9145 -0.8889 -1.2505
 2633TIP3   OH229389   1.120   5.523   2.497  0.6366 -0.2318  0.1832
 2633TIP3    H129390   1.097   5.525   2.590 -2.2188 -0.2174 -0.4882
 2633TIP3    H229391   1.056   5.580   2.455  2.3657  0.3560 -1.7262
 2634TIP3   OH229392   1.695   0.574   0.280  0.5121  0.1448  0.4509
 2634TIP3    H129393   1.629   0.587   0.212  1.4745  1.3250 -0.2812
 2634TIP3    H229394   1.692   0.655   0.331 -0.0448 -0.6364  1.7063
 2635TIP3   OH229395   0.240   2.799   1.427 -0.2744 -0.0083 -0.3115
 2635TIP3    H129396   0.243   2.893   1.446 -1.2459 -0.2212  0.9171
 2635TIP3    H229397   0.309   2.761   1.481 -0.3975 -0.1039 -0.2216
 2636TIP3   OH229398   0.481   2.830   0.006 -0.2867  0.6979  0.3688
 2636TIP3    H129399   0.572   2.825  -0.023 -0.6191  0.0935 -0.5995
 2636TIP3    H229400   0.430   2.798  -0.069 -1.2195 -0.0897  1.3150
 2637TIP3   OH229401   5.678   3.650  16.273 -0.4971  0.2019  0.6296
 2637TIP3    H129402   5.692   3.742  16.295  1.5701 -0.1025  0.6942
 2637TIP3    H229403   5.677   3.605  16.358 -0.1363  0.0002  0.5301
 2638TIP3   OH229404   5.370   2.362  15.624  0.4013  0.1308 -0.6615
 2638TIP3    H129405   5.465   2.355  15.624  0.4877  1.1953 -1.0973
 2638TIP3    H229406   5.345   2.351  15.716  0.9806  0.3542 -0.4749
 2639TIP3   OH229407   0.720   6.050  14.226 -0.5877  0.2517 -0.1679
 2639TIP3    H129408   0.725   5.982  14.293 -1.1499  0.3752 -0.0010
 2639TIP3    H229409   0.706   6.131  14.275  0.9097  0.6006 -0.3169
 2640TIP3   OH229410   6.733   3.186   2.101 -0.7878  0.3384 -0.6192
 2640TIP3    H129411   6.653   3.237   2.107 -2.3376 -2.1198  0.4884
 2640TIP3    H229412   6.745   3.149   2.188  1.4027  0.4451 -0.8534
 2641TIP3   OH229413   6.381   3.689  17.198  0.2953 -0.3781 -0.0107
 2641TIP3    H129414   6.317   3.740  17.248 -1.2350 -1.2340 -1.0304
 2641TIP3    H229415   6.371   3.599  17.230  1.8970 -0.3145  0.7108
 2642TIP3   OH229416   0.139   6.641  16.648  0.4417 -0.0301 -0.1502
 2642TIP3    H129417   0.064   6.700  16.641  0.3707 -0.2151 -0.9909
 2642TIP3    H229418   0.214   6.696  16.624  0.5449  0.0842  0.4305
 2643TIP3   OH229419   0.464   1.102  10.492  0.4879 -0.1150  1.0320
 2643TIP3    H129420   0.435   1.119  10.403 -3.3651 -0.4427  2.1391
 2643TIP3    H229421   0.505   1.184  10.520  0.8717  0.2935 -0.6934
 2644TIP3   OH229422   4.320   0.045  12.509 -0.4173 -0.0019 -0.2966
 2644TIP3    H129423   4.266   0.097  12.451 -1.6443  0.0160  0.8364
 2644TIP3    H229424   4.367   0.109  12.563 -1.8349 -0.0256  1.0145
 2645TIP3   OH229425   1.298   6.492  13.171 -0.1433 -0.6231 -0.5355
 2645TIP3    H129426   1.312   6.585  13.149 -2.5654 -0.3986 -1.3019
 2645TIP3    H229427   1.343   6.444  13.101  0.0314 -0.0130 -0.8483
 2646TIP3   OH229428   2.881   4.356   5.219 -0.1974 -0.3157 -0.8422
 2646TIP3    H129429   2.873   4.421   5.150 -2.3567 -0.2763 -0.5643
 2646TIP3    H229430   2.805   4.371   5.276  0.8928 -1.1237  0.8792
 2647TIP3   OH229431   5.645   5.910  13.842  0.0182 -0.0061  0.2540
 2647TIP3    H129432   5.626   5.823  13.807  0.0916 -0.5728  1.5746
 2647TIP3    H229433   5.724   5.897  13.896  0.3817  1.0025 -0.0385
 2648TIP3   OH229434   0.832   2.110   0.169  0.2075  1.0097 -0.0380
 2648TIP3    H129435   0.788   2.161   0.236  1.4958  1.5427  0.4079
 2648TIP3    H229436   0.817   2.158   0.088  0.0497  1.2319  0.1245
 2649TIP3   OH229437   6.470   3.737  13.344 -0.1440  0.3004 -0.1453
 2649TIP3    H129438   6.498   3.799  13.276  0.5255  0.7427  0.5378
 2649TIP3    H229439   6.543   3.733  13.405 -0.7078 -0.1732  0.5067
 2650TIP3   OH229440   3.787   4.008   5.617 -0.3363  0.4096  0.5836
 2650TIP3    H129441   3.761   3.916   5.618  0.1529  0.2490  3.2254
 2650TIP3    H229442   3.778   4.036   5.709 -1.6832  3.3381 -0.3632
 2651TIP3   OH229443   6.372   3.320   6.127 -0.0532  0.1487  0.2221
 2651TIP3    H129444   6.280   3.327   6.101 -0.7273  2.0729  2.8854
 2651TIP3    H229445   6.420   3.356   6.052 -1.7016  2.4793  0.2086
 2652TIP3   OH229446   0.020   3.680  17.179  0.2147  0.0678 -0.0649
 2652TIP3    H129447  -0.017   3.757  17.136  0.6712 -0.5135 -1.5489
 2652TIP3    H229448  -0.055   3.620  17.188 -0.2759  0.9315  1.6866
 2653TIP3   OH229449   4.551   1.078   0.126 -0.2635 -0.3547 -0.6569
 2653TIP3    H129450   4.600   1.004   0.091  0.7357  0.4578 -0.9712
 2653TIP3    H229451   4.495   1.039   0.194 -0.2747 -1.5023 -1.3121
 2654TIP3   OH229452   2.765   3.091  14.034 -0.1766 -0.3149  0.2674
 2654TIP3    H129453   2.858   3.076  14.047  0.1422 -0.3611 -2.0453
 2654TIP3    H229454   2.752   3.088  13.940 -2.3031  1.0476  0.4845
 2655TIP3   OH229455   0.256   2.115  14.698 -0.0349 -0.4033  0.6594
 2655TIP3    H129456   0.296   2.034  14.668  1.6205  0.8120 -0.5068
 2655TIP3    H229457   0.324   2.182  14.684 -1.9747  1.4678 -0.0868
 2656TIP3   OH229458   0.505   0.613  17.175  0.0039 -0.2705  0.5528
 2656TIP3    H129459   0.559   0.560  17.233  0.9874 -0.3268 -0.3964
 2656TIP3    H229460   0.542   0.701  17.182  0.4328 -0.3725 -0.3363
 2657TIP3   OH229461   0.563   6.432  13.809 -0.1959  0.8418 -0.1460
 2657TIP3    H129462   0.642   6.381  13.792  0.9750  2.5216  0.0746
 2657TIP3    H229463   0.502   6.405  13.740  1.2071  0.8060 -1.4028
 2658TIP3   OH229464   1.709   3.281   0.208 -0.1467  0.2692  0.1317
 2658TIP3    H129465   1.649   3.355   0.220 -0.2898  0.3656 -1.2087
 2658TIP3    H229466   1.672   3.231   0.136  1.0784  0.0124 -0.3324
 2659TIP3   OH229467   5.533   3.177   1.795 -0.3085  0.7362  0.2865
 2659TIP3    H129468   5.466   3.149   1.858 -0.6891  1.9260  0.4261
 2659TIP3    H229469   5.599   3.221   1.848  0.6919 -0.6018  0.1666
 2660TIP3   OH229470   0.423   0.512   4.631  0.1466  0.2845  0.1576
 2660TIP3    H129471   0.357   0.451   4.598  1.0315 -0.4897 -0.1796
 2660TIP3    H229472   0.408   0.593   4.582 -0.5859  0.1388  0.1299
 2661TIP3   OH229473   3.232   0.311  15.390 -0.1971 -0.1400 -0.0347
 2661TIP3    H129474   3.287   0.235  15.370 -0.3197 -0.2457  0.0255
 2661TIP3    H229475   3.259   0.377  15.327 -0.4973 -0.4324 -0.4735
 2662TIP3   OH229476   6.802   0.116  11.779 -0.0134 -0.4795 -0.1872
 2662TIP3    H129477   6.791   0.024  11.801  0.5433 -0.8288 -1.3658
 2662TIP3    H229478   6.824   0.117  11.686  1.8381  0.7050  0.2305
 2663TIP3   OH229479   6.070   3.294   0.255  0.2902  1.0567  0.1507
 2663TIP3    H129480   6.006   3.365   0.259 -0.1138  0.7699 -1.0216
 2663TIP3    H229481   6.050   3.248   0.173  1.2971  0.3022  0.3173
 2664TIP3   OH229482   2.288   2.783   3.138 -0.5427  0.4859  0.1762
 2664TIP3    H129483   2.303   2.852   3.203 -0.0036  0.4851  0.0536
 2664TIP3    H229484   2.257   2.708   3.189 -2.2520  1.1699  0.1872
 2665TIP3   OH229485   0.911   4.444  16.157  0.0632  0.0777  0.0104
 2665TIP3    H129486   0.967   4.412  16.228 -0.5571 -0.8357  0.0897
 2665TIP3    H229487   0.915   4.376  16.090  0.4070  0.7998 -0.7204
 2666TIP3   OH229488   4.174   5.146  16.812 -0.2309 -0.2220  0.3534
 2666TIP3    H129489   4.186   5.220  16.872 -2.2038 -1.4596  2.3717
 2666TIP3    H229490   4.174   5.069  16.869 -2.1681 -1.4214 -1.2026
 2667TIP3   OH229491   5.658   4.360   3.984  0.1900  0.4125  0.2065
 2667TIP3    H129492   5.752   4.376   3.985  0.6899 -2.1701 -1.2138
 2667TIP3    H229493   5.634   4.361   3.891 -1.1125  0.6721  0.5348
 2668TIP3   OH229494   0.482   4.403  11.460  0.4842 -0.1038 -0.0563
 2668TIP3    H129495   0.484   4.400  11.556  1.5420 -0.1336 -0.0742
 2668TIP3    H229496   0.485   4.497  11.440  0.9775 -0.1216 -0.0714
 2669TIP3   OH229497   5.740   5.416   2.735  0.4338 -0.3284  0.2824
 2669TIP3    H129498   5.783   5.358   2.797 -0.2202 -0.3478  0.7235
 2669TIP3    H229499   5.647   5.413   2.759  0.3092  0.4334 -0.0685
 2670TIP3   OH229500   2.812   4.916  15.008  0.2544 -0.0938 -0.4209
 2670TIP3    H129501   2.898   4.942  14.977  1.2548 -1.7501  0.8779
 2670TIP3    H229502   2.791   4.836  14.959  0.0555 -0.4475  0.2291
 2671TIP3   OH229503   2.147   3.730  14.828  0.2738 -0.0035 -0.0444
 2671TIP3    H129504   2.140   3.701  14.737  0.5862  0.8450 -0.3381
 2671TIP3    H229505   2.225   3.784  14.831  0.3389 -0.1306  0.7613
 2672TIP3   OH229506   6.542   4.874  12.675  0.1779 -0.2279  0.2042
 2672TIP3    H129507   6.528   4.791  12.720  0.2981  0.2079  1.0554
 2672TIP3    H229508   6.512   4.940  12.737 -0.3302  0.3450 -0.6413
 2673TIP3   OH229509   2.990   6.713  11.919 -0.5152 -0.9127 -0.4117
 2673TIP3    H129510   3.037   6.794  11.900  0.3195 -1.1856  0.4263
 2673TIP3    H229511   3.041   6.645  11.874  0.5343 -1.3503  1.4023
 2674TIP3   OH229512   3.140   4.013  12.129 -0.0497  0.1444 -0.1904
 2674TIP3    H129513   3.072   4.050  12.072 -0.4819 -0.4273 -0.0538
 2674TIP3    H229514   3.215   4.072  12.119 -1.0590  1.6551  0.7916
 2675TIP3   OH229515   4.359   2.719   4.458 -0.0035 -0.0123  0.1709
 2675TIP3    H129516   4.303   2.694   4.385 -0.4807 -2.3246  1.2667
 2675TIP3    H229517   4.432   2.657   4.455  1.9790  2.2949 -0.6079
 2676TIP3   OH229518   4.782   4.022   1.220 -0.4455 -0.4821  0.9730
 2676TIP3    H129519   4.828   3.956   1.271 -0.4873 -0.2156  1.3677
 2676TIP3    H229520   4.785   3.991   1.130  1.5135  0.1064  0.8223
 2677TIP3   OH229521   6.582   1.218   5.395 -0.0616  0.3190  0.3347
 2677TIP3    H129522   6.610   1.307   5.371  2.2844 -0.4068  0.2347
 2677TIP3    H229523   6.493   1.212   5.363  0.4018  1.9941 -1.3802
 2678TIP3   OH229524   6.548   6.790  17.111  0.4468  0.5870 -0.0068
 2678TIP3    H129525   6.573   6.702  17.083  1.5839  1.4571 -1.7786
 2678TIP3    H229526   6.591   6.801  17.195 -0.6120 -0.9519  0.7810
 2679TIP3   OH229527   2.300   2.414   2.446 -0.1364  0.7764 -0.3490
 2679TIP3    H129528   2.280   2.457   2.363  1.3226  1.1625 -0.5321
 2679TIP3    H229529   2.352   2.337   2.422  2.2171  2.1003  0.2839
 2680TIP3   OH229530   5.750   0.602   3.668 -0.2244 -0.1550 -0.0430
 2680TIP3    H129531   5.669   0.575   3.711 -0.3095 -1.0432 -0.7458
 2680TIP3    H229532   5.815   0.539   3.697 -0.0846 -0.2346 -0.5284
 2681TIP3   OH229533   5.750   1.147  12.901 -0.3273  0.3757 -0.0999
 2681TIP3    H129534   5.752   1.064  12.948 -1.1070  1.3543  1.7200
 2681TIP3    H229535   5.842   1.174  12.896 -0.2397  0.2697  0.8826
 2682TIP3   OH229536   1.977   0.825  14.769 -0.0567 -0.0957 -0.5867
 2682TIP3    H129537   1.936   0.738  14.773  0.3350 -0.2099  1.2393
 2682TIP3    H229538   2.024   0.825  14.685 -0.7971 -1.3020 -1.0167
 2683TIP3   OH229539   6.122   2.063   3.311  0.2807  0.1494  0.4584
 2683TIP3    H129540   6.169   2.056   3.227 -1.1347 -1.0934 -0.2579
 2683TIP3    H229541   6.057   1.993   3.307 -1.8518  2.0416  1.2786
 2684TIP3   OH229542   3.198   4.596   3.254 -0.7882  0.5158 -0.2246
 2684TIP3    H129543   3.198   4.500   3.260 -1.3933  0.5261 -0.0611
 2684TIP3    H229544   3.130   4.624   3.315  1.4654  1.1984  2.0469
 2685TIP3   OH229545   5.045   0.844   5.214 -0.7338  0.3037  0.6933
 2685TIP3    H129546   5.008   0.894   5.287 -1.7821  0.1431  0.2713
 2685TIP3    H229547   5.119   0.797   5.253 -0.1179  1.6864  1.2348
 2686TIP3   OH229548   2.499   3.702  13.482  0.1389 -0.1446  0.0693
 2686TIP3    H129549   2.421   3.713  13.428  0.3152  1.1847  0.0719
 2686TIP3    H229550   2.473   3.731  13.569  0.8550  1.0764 -0.1102
 2687TIP3   OH229551   0.711   1.711   0.455  0.4271 -0.5058 -0.3197
 2687TIP3    H129552   0.679   1.801   0.455  1.4444 -0.1463 -0.9596
 2687TIP3    H229553   0.637   1.660   0.490  0.2366  0.6957  1.0617
 2688TIP3   OH229554   6.259   1.417   5.508 -0.7113 -0.6587  0.0616
 2688TIP3    H129555   6.229   1.505   5.484 -2.0916 -0.5593  2.0360
 2688TIP3    H229556   6.349   1.430   5.539 -0.4256 -0.1586 -0.9488
 2689TIP3   OH229557   4.787   3.514  15.307 -0.0215 -0.7195  0.9627
 2689TIP3    H129558   4.816   3.562  15.229 -0.9816 -1.3791  0.1810
 2689TIP3    H229559   4.866   3.470  15.338  0.5473  0.2029  0.8374
 2690TIP3   OH229560   5.176   3.313  11.481  0.1353  0.0402 -0.5207
 2690TIP3    H129561   5.251   3.261  11.514  1.1374  3.1119  2.3067
 2690TIP3    H229562   5.100   3.260  11.503  1.3031 -1.8052 -0.7731
 2691TIP3   OH229563   3.494   5.634   2.561  0.2166 -0.6283 -0.1497
 2691TIP3    H129564   3.403   5.659   2.576  0.3850 -1.1942  2.0021
 2691TIP3    H229565   3.488   5.553   2.509 -0.4845 -0.3410 -0.5249
 2692TIP3   OH229566   3.795   1.490  15.011  0.1179 -0.0361 -0.3597
 2692TIP3    H129567   3.807   1.479  15.105  2.3168 -1.1713 -0.7505
 2692TIP3    H229568   3.838   1.574  14.990 -0.8028  0.4617 -0.2876
 2693TIP3   OH229569   3.056   1.388  12.452 -0.3895 -0.6987  0.4149
 2693TIP3    H129570   2.987   1.443  12.489 -0.3711 -0.3734 -0.0316
 2693TIP3    H229571   3.107   1.360  12.527  0.1637  0.6760  0.5496
 2694TIP3   OH229572   4.243   3.116   1.606  0.6951 -0.1298 -0.1020
 2694TIP3    H129573   4.267   3.107   1.514 -2.4211 -3.4123 -0.7094
 2694TIP3    H229574   4.280   3.039   1.649  0.7974  0.5757  1.0983
 2695TIP3   OH229575   2.357   4.996  17.098 -0.1293 -0.5217 -0.0466
 2695TIP3    H129576   2.437   4.955  17.063 -1.1260 -2.0601 -0.5656
 2695TIP3    H229577   2.297   4.923  17.111 -0.5457  0.2858  2.8435
 2696TIP3   OH229578   2.465   1.932   3.434  0.0236  0.0314 -0.0290
 2696TIP3    H129579   2.527   1.993   3.472 -1.1511  1.0178  0.3330
 2696TIP3    H229580   2.435   1.975   3.354  1.1851 -1.2604 -1.1800
 2697TIP3   OH229581   2.644   0.666  11.833  0.1590 -0.0630  0.3750
 2697TIP3    H129582   2.611   0.576  11.835  0.2217 -0.1099 -0.3780
 2697TIP3    H229583   2.729   0.661  11.877 -0.7557  0.0331  2.1987
 2698TIP3   OH229584   6.490   2.107   1.185 -0.7675  0.2220 -0.1641
 2698TIP3    H129585   6.465   2.177   1.244 -3.4140 -1.2593  0.5319
 2698TIP3    H229586   6.441   2.124   1.105 -1.3903 -0.7843 -0.0049
 2699TIP3   OH229587   3.436   0.084   1.316  0.0124  0.1119 -0.1711
 2699TIP3    H129588   3.459   0.081   1.409  1.4198  0.1244 -0.5119
 2699TIP3    H229589   3.374   0.012   1.304  0.1868 -0.1790  0.6717
 2700TIP3   OH229590   1.226   5.369   4.150  0.0508  0.2536  0.0814
 2700TIP3    H129591   1.267   5.425   4.216  1.2740 -0.1014 -0.3473
 2700TIP3    H229592   1.139   5.405   4.137  0.4259  1.3650  0.6360
 2701TIP3   OH229593   5.863   1.848   0.042  0.4610 -0.0671  0.1153
 2701TIP3    H129594   5.903   1.882  -0.038  0.0199 -1.6546 -0.8048
 2701TIP3    H229595   5.861   1.923   0.101  2.3812  0.7042 -0.7369
 2702TIP3   OH229596   5.194   5.809   2.248  0.0737  0.1436  0.5191
 2702TIP3    H129597   5.231   5.896   2.259  0.3311 -0.0631  1.3663
 2702TIP3    H229598   5.270   5.752   2.233 -0.1209  0.1144 -0.3920
 2703TIP3   OH229599   0.236   0.368   5.709 -0.1994  0.4700 -0.0337
 2703TIP3    H129600   0.258   0.343   5.799  1.0686  1.4002 -0.0786
 2703TIP3    H229601   0.179   0.445   5.718 -3.5635 -1.8922  0.0807
 2704TIP3   OH229602   6.501   6.099   4.700 -0.1453 -0.2168  0.0113
 2704TIP3    H129603   6.494   6.132   4.789  0.7312  1.4096 -0.5048
 2704TIP3    H229604   6.560   6.024   4.706  0.3035  0.1923  0.7118
 2705TIP3   OH229605   1.631   0.214   1.758 -0.3121 -0.1907 -0.4200
 2705TIP3    H129606   1.695   0.229   1.689  0.1996 -2.3925 -0.4712
 2705TIP3    H229607   1.660   0.269   1.830  1.3258 -0.7288 -0.6438
 2706TIP3   OH229608   2.625   4.116  16.263 -0.2136 -0.4446 -0.0474
 2706TIP3    H129609   2.672   4.186  16.309 -1.0091 -1.3701  2.2301
 2706TIP3    H229610   2.546   4.102  16.315 -0.5379 -2.3857 -1.0218
 2707TIP3   OH229611   1.707   0.015   1.403 -0.4762  0.2102  0.2459
 2707TIP3    H129612   1.612   0.015   1.390 -0.6782 -1.1740  1.5920
 2707TIP3    H229613   1.720   0.062   1.485 -0.0153  0.1237  0.2252
 2708TIP3   OH229614   2.873   4.684   4.484  0.0881  0.4118  0.6559
 2708TIP3    H129615   2.777   4.684   4.479  0.1210  0.3515 -0.0690
 2708TIP3    H229616   2.895   4.766   4.529 -0.2737  0.7886  0.1525
 2709TIP3   OH229617   1.366   0.010   2.565  0.6572  0.3619 -1.0749
 2709TIP3    H129618   1.347  -0.083   2.551  2.0402  0.0081 -0.5901
 2709TIP3    H229619   1.345   0.026   2.657 -0.5562  0.7891 -1.4049
 2710TIP3   OH229620   2.751   1.189  16.681 -0.1178 -0.0658  0.5288
 2710TIP3    H129621   2.813   1.165  16.750 -0.3035  0.1714  0.7818
 2710TIP3    H229622   2.765   1.124  16.612  0.0105 -0.3590  0.8295
 2711TIP3   OH229623   2.326   3.672   5.045  0.2969 -0.4484  0.6463
 2711TIP3    H129624   2.314   3.713   4.959  0.4786 -2.4306 -0.3467
 2711TIP3    H229625   2.401   3.718   5.083  1.1115 -0.4902 -0.8632
 2712TIP3   OH229626   6.570   5.576  12.378 -0.2829  0.7813  0.4276
 2712TIP3    H129627   6.650   5.543  12.418 -0.7879  0.6822  1.3740
 2712TIP3    H229628   6.566   5.534  12.292  1.0671  1.3827  0.0619
 2713TIP3   OH229629   1.240   2.873   1.445 -0.2054  0.1484 -0.0695
 2713TIP3    H129630   1.169   2.934   1.422 -0.1962  0.9191  1.8443
 2713TIP3    H229631   1.195   2.796   1.478 -0.1746  0.4827  0.7697
 2714TIP3   OH229632   4.094   6.302  11.250 -0.2530  0.3920  0.1826
 2714TIP3    H129633   4.158   6.362  11.289  0.0762 -0.0821  0.3618
 2714TIP3    H229634   4.082   6.335  11.161 -1.0251  1.4963  0.6813
 2715TIP3   OH229635   1.299   2.216   4.862 -0.4796 -0.2579  0.1988
 2715TIP3    H129636   1.266   2.261   4.784  1.1463  0.0903 -0.3151
 2715TIP3    H229637   1.282   2.123   4.846  2.6599 -0.5316 -2.0489
 2716TIP3   OH229638   3.052   0.179  14.686 -0.2533 -0.4886 -0.3365
 2716TIP3    H129639   3.140   0.202  14.655  0.5469 -1.0178  1.4819
 2716TIP3    H229640   3.007   0.263  14.695  0.3502 -0.1465 -0.4544
 2717TIP3   OH229641   0.115   4.810  16.398 -0.6671 -0.5993  0.0549
 2717TIP3    H129642   0.106   4.902  16.424  0.0932 -0.8238  1.1414
 2717TIP3    H229643   0.201   4.806  16.355 -1.3759 -0.4895 -1.3883
 2718TIP3   OH229644   0.746   3.708  11.563 -0.0616  0.4243  0.2861
 2718TIP3    H129645   0.822   3.764  11.547  1.1035 -1.5499 -1.2470
 2718TIP3    H229646   0.700   3.706  11.479 -0.2179 -0.7173  0.3943
 2719TIP3   OH229647   2.341   2.009  14.514  0.0338 -0.1999 -0.9111
 2719TIP3    H129648   2.394   1.936  14.544 -1.4756 -1.4200 -1.1607
 2719TIP3    H229649   2.325   2.062  14.592  2.3937  0.7039 -1.0145
 2720TIP3   OH229650   0.340   3.751  13.267  0.1038  0.6165 -0.3256
 2720TIP3    H129651   0.362   3.775  13.176  1.0576 -0.2131 -0.3280
 2720TIP3    H229652   0.246   3.765  13.274  0.2373  1.9396 -1.0636
 2721TIP3   OH229653   4.051   3.094  10.378 -0.1473 -0.2359 -0.2201
 2721TIP3    H129654   3.974   3.083  10.433  0.4326 -0.2693  0.5821
 2721TIP3    H229655   4.118   3.039  10.418  1.1766  2.0239  0.7463
 2722TIP3   OH229656   0.500   2.276   1.549 -0.0323 -0.2928  0.4110
 2722TIP3    H129657   0.562   2.211   1.582  1.7367  1.0054 -0.2952
 2722TIP3    H229658   0.477   2.328   1.626 -0.9712 -1.3355  0.8529
 2723TIP3   OH229659   5.753   1.701   5.313 -0.5368  0.2458 -0.1257
 2723TIP3    H129660   5.765   1.723   5.220  0.9584  0.3913  0.0984
 2723TIP3    H229661   5.689   1.766   5.343 -0.2563  0.8619 -0.8121
 2724TIP3   OH229662   3.028   5.149   4.227  0.6089  0.5327 -0.0999
 2724TIP3    H129663   2.997   5.173   4.315  1.1861  0.6887  0.0633
 2724TIP3    H229664   3.072   5.227   4.195  1.7778 -0.0268  0.1033
 2725TIP3   OH229665   3.201   3.328  16.708 -0.1571 -0.8398 -0.1687
 2725TIP3    H129666   3.242   3.243  16.719 -1.3111 -1.3132  0.5467
 2725TIP3    H229667   3.168   3.351  16.795 -1.8506 -0.7190 -0.8161
 2726TIP3   OH229668   2.958   4.278   1.799  0.4157  0.4942  0.4913
 2726TIP3    H129669   2.872   4.319   1.793  0.0859 -0.2621  0.0335
 2726TIP3    H229670   2.998   4.318   1.877 -0.6505  0.2752  1.1555
 2727TIP3   OH229671   5.108   1.364   2.641  0.4018 -0.2633  0.3404
 2727TIP3    H129672   5.083   1.287   2.693 -0.4509  0.4643  1.0397
 2727TIP3    H229673   5.173   1.409   2.695 -0.6652  0.6252  0.9228
 2728TIP3   OH229674   1.136   0.438  12.658 -0.0662  0.6060  0.0564
 2728TIP3    H129675   1.149   0.467  12.748  0.2966  1.3724 -0.2388
 2728TIP3    H229676   1.137   0.518  12.606  1.5850  0.0308 -0.8439
 2729TIP3   OH229677   0.960   4.032  12.579  0.5165  0.5094  0.1853
 2729TIP3    H129678   0.915   4.076  12.651  0.2004 -0.5954  0.6754
 2729TIP3    H229679   1.037   3.992  12.619  1.5595  1.7869 -0.5198
 2730TIP3   OH229680   1.478   5.752  13.967  0.5619 -0.2287 -0.3215
 2730TIP3    H129681   1.453   5.738  13.875  0.9368 -0.3384 -0.4060
 2730TIP3    H229682   1.539   5.681  13.986  0.1352 -0.4693  0.1470
 2731TIP3   OH229683   5.543   4.406   5.084 -0.0944  1.0934 -0.5245
 2731TIP3    H129684   5.591   4.415   5.002 -0.2707  3.9061 -0.3685
 2731TIP3    H229685   5.599   4.447   5.150  0.7525 -2.5055  1.1168
 2732TIP3   OH229686   2.244   3.462  17.199  0.1368 -0.1654  0.2536
 2732TIP3    H129687   2.163   3.412  17.191  0.5336 -0.8889  0.7382
 2732TIP3    H229688   2.314   3.397  17.193  0.6444  0.2484  1.4574
 2733TIP3   OH229689   0.546   4.346   4.206 -0.2116  0.0304  0.3745
 2733TIP3    H129690   0.539   4.369   4.113 -0.9609  1.2625  0.7259
 2733TIP3    H229691   0.524   4.253   4.209  2.2985 -0.6555 -0.9920
 2734TIP3   OH229692   5.869   2.783  11.601 -0.2097  0.1993 -0.4296
 2734TIP3    H129693   5.783   2.768  11.639  0.3589 -0.2539  0.7242
 2734TIP3    H229694   5.870   2.731  11.521 -1.7154  1.7924 -1.5084
 2735TIP3   OH229695   5.177   6.522  13.383 -0.1178  0.3443  0.4791
 2735TIP3    H129696   5.168   6.433  13.348  1.2346 -0.2294  1.5565
 2735TIP3    H229697   5.107   6.529  13.447  0.4440 -0.3431  1.1818
 2736TIP3   OH229698   6.485   3.261   5.856 -0.0458  0.5261 -0.5590
 2736TIP3    H129699   6.466   3.345   5.814 -0.6751  1.6454  1.8974
 2736TIP3    H229700   6.499   3.201   5.783 -1.3235  2.3659 -2.3824
 2737TIP3   OH229701   6.204   1.565  12.460  0.1090  0.2599 -0.6643
 2737TIP3    H129702   6.135   1.608  12.510 -0.1357  1.6847 -2.1819
 2737TIP3    H229703   6.228   1.629  12.393  1.5813 -0.9633 -1.3228
 2738TIP3   OH229704   2.588   5.501   6.259 -0.6385 -0.4153  0.1617
 2738TIP3    H129705   2.559   5.487   6.169  0.0888 -2.8087  0.2606
 2738TIP3    H229706   2.675   5.462   6.262 -0.2826  0.4589  1.6743
 2739TIP3   OH229707   1.177   6.316   1.093  0.4694 -0.0942 -0.0376
 2739TIP3    H129708   1.105   6.253   1.081 -0.5082  0.8140  0.8807
 2739TIP3    H229709   1.203   6.339   1.004  0.0393 -0.9047 -0.3845
 2740TIP3   OH229710   4.477   3.648  16.246 -0.1942  0.4966 -0.4196
 2740TIP3    H129711   4.564   3.627  16.280  0.5399  0.5293 -2.2616
 2740TIP3    H229712   4.429   3.678  16.323  1.5690  0.9702  0.5322
 2741TIP3   OH229713   3.108   0.243  10.979 -0.0507  0.1404  0.0192
 2741TIP3    H129714   3.013   0.236  10.972 -0.1969  1.6121  0.2530
 2741TIP3    H229715   3.133   0.303  10.908  0.7075 -0.3094 -0.0992
 2742TIP3   OH229716   6.784   3.968  17.276 -0.4671 -0.6133  0.3683
 2742TIP3    H129717   6.705   3.929  17.238 -1.3031  0.7075  0.7019
 2742TIP3    H229718   6.783   3.939  17.367 -0.6464 -0.5014  0.4026
 2743TIP3   OH229719   1.907   2.693   4.520 -0.1936  0.1996 -0.5172
 2743TIP3    H129720   1.897   2.680   4.426 -0.4117  0.2077 -0.4934
 2743TIP3    H229721   1.825   2.733   4.548 -1.2580 -2.3839  0.1595
 2744TIP3   OH229722   3.786   1.636  14.653 -0.3479 -0.3684  0.1577
 2744TIP3    H129723   3.824   1.586  14.581 -1.6645 -1.9825  0.5704
 2744TIP3    H229724   3.711   1.585  14.681 -0.2602  0.6079  2.2310
 2745TIP3   OH229725   6.143   1.190  15.696  0.2185 -0.2855 -0.4417
 2745TIP3    H129726   6.206   1.135  15.742 -1.1922  0.5962  2.6914
 2745TIP3    H229727   6.175   1.279  15.708 -1.3591  0.1401  0.8578
 2746TIP3   OH229728   3.047   4.719   2.729  0.3695  0.1302 -0.0478
 2746TIP3    H129729   3.137   4.719   2.762 -0.0634  1.5254  1.1752
 2746TIP3    H229730   3.051   4.767   2.647  1.0081 -1.1889 -0.8058
 2747TIP3   OH229731   6.251   4.507  11.505  0.1193 -0.4825 -0.1186
 2747TIP3    H129732   6.241   4.601  11.521  3.6032  0.0988 -0.9044
 2747TIP3    H229733   6.268   4.501  11.411  1.2343 -1.7780  0.1584
 2748TIP3   OH229734   5.514   6.242  12.145 -0.0910  0.0811 -0.2410
 2748TIP3    H129735   5.571   6.189  12.200 -0.4858 -2.3213 -2.0331
 2748TIP3    H229736   5.575   6.293  12.090  0.2926  1.2703  1.2622
 2749TIP3   OH229737   0.123   5.711   0.261  0.3357 -0.3993 -0.3868
 2749TIP3    H129738   0.198   5.738   0.207 -0.3835 -1.3741 -1.9106
 2749TIP3    H229739   0.161   5.648   0.323  0.6700 -1.5016 -1.6704
 2750TIP3   OH229740   1.294   1.646   3.559 -0.3965  0.0471  0.0106
 2750TIP3    H129741   1.385   1.617   3.560 -0.4875 -0.2918 -0.8660
 2750TIP3    H229742   1.265   1.639   3.650  0.3708 -0.1021  0.2447
 2751TIP3   OH229743   1.955   5.466  16.191  0.0569  0.4396 -0.2936
 2751TIP3    H129744   1.916   5.457  16.278  0.1224 -1.4589 -0.4404
 2751TIP3    H229745   1.883   5.493  16.134 -0.4646 -0.4581 -0.0620
 2752TIP3   OH229746   3.880   3.359   1.212  0.0172  0.4155  0.6400
 2752TIP3    H129747   3.901   3.334   1.122  1.6451 -1.1471  1.4168
 2752TIP3    H229748   3.829   3.286   1.246 -1.6173  1.5303  0.6459
 2753TIP3   OH229749   0.803   5.144   0.520  0.6865 -0.2819 -0.7059
 2753TIP3    H129750   0.794   5.204   0.446  2.4489  1.3142  0.2947
 2753TIP3    H229751   0.780   5.058   0.485 -0.3696  0.7417 -2.5965
 2754TIP3   OH229752   6.688   4.178  14.767 -0.5288 -0.3968 -0.1035
 2754TIP3    H129753   6.629   4.156  14.840  0.6687 -1.6899  0.5022
 2754TIP3    H229754   6.776   4.171  14.805  0.0333  1.1405 -1.0939
 2755TIP3   OH229755   0.444   2.839  16.267 -0.1229 -0.0293 -0.2783
 2755TIP3    H129756   0.413   2.749  16.261 -0.5646  0.1192 -0.2790
 2755TIP3    H229757   0.372   2.892  16.232  0.7086  0.2262 -1.6598
 2756TIP3   OH229758   3.829   1.411   4.506 -0.0825 -0.1483  0.3148
 2756TIP3    H129759   3.778   1.433   4.428 -0.1237 -1.6473 -0.1130
 2756TIP3    H229760   3.878   1.332   4.481 -1.3627 -1.6457  2.3205
 2757TIP3   OH229761   3.743   2.162   1.223 -0.1000 -0.2990  0.1464
 2757TIP3    H129762   3.782   2.076   1.240 -0.1118 -0.6741 -1.6305
 2757TIP3    H229763   3.709   2.189   1.308  0.9266 -1.5263  0.9879
 2758TIP3   OH229764   4.208   0.922  14.247 -0.1210  0.0959 -0.7077
 2758TIP3    H129765   4.291   0.880  14.270 -0.6866 -0.3999  0.4505
 2758TIP3    H229766   4.229   0.975  14.170  0.8555 -1.4318 -1.5249
 2759TIP3   OH229767   5.428   1.701  12.929 -0.0183  0.1319  0.2341
 2759TIP3    H129768   5.480   1.732  12.855 -1.4950  0.5327 -0.6573
 2759TIP3    H229769   5.487   1.708  13.004  1.0216  1.1346 -0.6531
 2760TIP3   OH229770   3.563   0.512  15.432 -0.7371  0.2871 -1.1732
 2760TIP3    H129771   3.597   0.429  15.398 -2.4278 -0.5672 -0.8396
 2760TIP3    H229772   3.477   0.521  15.391 -1.3297  0.9679  0.1737
 2761TIP3   OH229773   1.518   2.173   0.940 -0.5564 -0.5983  0.3609
 2761TIP3    H129774   1.439   2.165   0.887 -0.4869  0.5321  0.0704
 2761TIP3    H229775   1.588   2.135   0.887 -0.2710  1.5585 -0.8671
 2762TIP3   OH229776   2.344   6.235  16.838  0.5160  0.2734  0.4026
 2762TIP3    H129777   2.290   6.157  16.849  0.0088  0.4043 -0.9555
 2762TIP3    H229778   2.303   6.301  16.895 -2.7767  1.3342 -2.9421
 2763TIP3   OH229779   4.402   5.648  13.717 -0.1247  0.6698  0.1443
 2763TIP3    H129780   4.319   5.650  13.764 -0.6566 -1.5252 -0.6604
 2763TIP3    H229781   4.383   5.694  13.635 -1.1434 -1.5763 -0.9221
 2764TIP3   OH229782   5.514   3.035  12.677  0.0766  0.4156  0.4004
 2764TIP3    H129783   5.422   3.039  12.652 -0.3778 -1.3549  1.6880
 2764TIP3    H229784   5.539   3.127  12.690 -1.5081  0.9155  0.0752
 2765TIP3   OH229785   6.657   0.199  12.681  0.2806  0.1311  0.7399
 2765TIP3    H129786   6.753   0.200  12.676  0.3836 -3.1493  0.5116
 2765TIP3    H229787   6.632   0.134  12.615 -2.1980  1.9926 -0.1902
 2766TIP3   OH229788   6.707   2.965  12.633 -0.2832 -0.3637 -0.2672
 2766TIP3    H129789   6.635   3.000  12.580  0.5102  0.9400 -0.4995
 2766TIP3    H229790   6.744   3.041  12.677  1.1572 -0.9716 -0.3909
 2767TIP3   OH229791   1.860   2.576   2.432  0.5053  0.5199  0.1090
 2767TIP3    H129792   1.854   2.660   2.477 -1.0109  2.1644 -3.0117
 2767TIP3    H229793   1.777   2.532   2.451  0.3612  0.6974 -0.1098
 2768TIP3   OH229794   3.015   6.314   4.500 -0.0583 -0.5095  0.2316
 2768TIP3    H129795   3.040   6.228   4.466  0.9196 -0.9380  1.9865
 2768TIP3    H229796   3.090   6.369   4.482 -1.1099  0.2877 -1.8849
 2769TIP3   OH229797   2.636   0.979  14.865  0.1242 -0.2315  0.2886
 2769TIP3    H129798   2.585   1.035  14.807 -0.0571  1.1542  1.7452
 2769TIP3    H229799   2.697   0.933  14.807 -1.4851 -0.4946 -1.2468
 2770TIP3   OH229800   2.043   3.577  16.810 -0.1505  0.1292 -0.0516
 2770TIP3    H129801   1.973   3.639  16.792 -0.6780 -0.4312  0.0357
 2770TIP3    H229802   2.105   3.625  16.864  0.2891  1.1014 -1.4145
 2771TIP3   OH229803   5.728   0.330  10.940  0.3265  0.2476  0.2820
 2771TIP3    H129804   5.742   0.304  10.849 -1.4052  0.1323  0.0388
 2771TIP3    H229805   5.797   0.394  10.957 -0.7593  2.0446 -1.8416
 2772TIP3   OH229806   1.684   5.295  16.719  0.2747  0.2640 -0.7601
 2772TIP3    H129807   1.761   5.274  16.772 -1.0347  0.6953  1.3765
 2772TIP3    H229808   1.612   5.297  16.782 -1.0401  2.6574 -2.2642
 2773TIP3   OH229809   1.192   6.501  15.200 -0.1789 -0.5202 -0.1511
 2773TIP3    H129810   1.177   6.407  15.188 -2.5705 -0.0804 -0.8367
 2773TIP3    H229811   1.278   6.517  15.163  0.0681 -2.3758 -0.4123
 2774TIP3   OH229812   4.017   4.049   4.591 -0.0168  0.7105 -0.2666
 2774TIP3    H129813   3.930   4.070   4.557  0.4342  0.1906 -1.7692
 2774TIP3    H229814   4.019   3.954   4.595  0.0663  0.7528  0.9066
 2775TIP3   OH229815   2.405   0.356   6.013 -0.6053  0.3593 -0.0141
 2775TIP3    H129816   2.409   0.335   5.919  2.3948  0.1120  0.1244
 2775TIP3    H229817   2.404   0.452   6.015 -2.4958  0.3682 -0.3179
 2776TIP3   OH229818   5.573   2.314  16.112  0.0514  0.3581 -0.6535
 2776TIP3    H129819   5.527   2.235  16.141  1.8608 -0.6786 -0.5720
 2776TIP3    H229820   5.546   2.381  16.175 -2.1887  0.0586 -1.2374
 2777TIP3   OH229821   6.352   6.789   0.935 -0.6384 -0.7280  0.3026
 2777TIP3    H129822   6.258   6.789   0.947 -0.7901  0.7598 -0.7387
 2777TIP3    H229823   6.388   6.802   1.023 -1.5302  2.5060  0.2613
 2778TIP3   OH229824   2.348   2.579  16.024  0.0050 -0.1049 -0.1588
 2778TIP3    H129825   2.437   2.593  15.991 -0.2045  1.6156 -0.0457
 2778TIP3    H229826   2.335   2.648  16.088 -0.7153 -1.5573  1.2816
 2779TIP3   OH229827   1.179   2.593   0.253  0.0175  0.1501 -0.3048
 2779TIP3    H129828   1.271   2.594   0.281 -0.1680  0.4847  0.2985
 2779TIP3    H229829   1.170   2.512   0.203  1.3762  1.5348 -2.8898
 2780TIP3   OH229830   4.728   5.588  14.771  0.4014 -0.3028 -0.1543
 2780TIP3    H129831   4.782   5.510  14.758 -0.1057 -0.4710 -1.3464
 2780TIP3    H229832   4.648   5.555  14.811  0.4739 -0.2970 -0.0056
 2781TIP3   OH229833   5.220   5.044   0.123 -0.4623 -0.2978  0.1369
 2781TIP3    H129834   5.193   5.037   0.215 -3.3332 -2.3655 -0.7950
 2781TIP3    H229835   5.155   5.102   0.083  0.3717  0.0388 -0.7460
 2782TIP3   OH229836   2.482   6.214   3.097 -0.1995 -0.8353 -0.0354
 2782TIP3    H129837   2.504   6.130   3.057 -0.0703 -0.8058 -0.0260
 2782TIP3    H229838   2.450   6.191   3.184  0.0325 -0.8590  0.0433
 2783TIP3   OH229839   4.775   6.161   1.583  0.2186 -0.5602  0.4191
 2783TIP3    H129840   4.743   6.087   1.531  0.0390 -0.9251  1.0465
 2783TIP3    H229841   4.734   6.150   1.668 -0.3160  0.6120  0.3362
 2784TIP3   OH229842   0.650   5.505   5.360  0.1239 -0.7067  0.3041
 2784TIP3    H129843   0.648   5.598   5.340 -0.3056 -1.0942 -1.5541
 2784TIP3    H229844   0.629   5.462   5.277  0.3804 -2.4582  1.1195
 2785TIP3   OH229845   3.683   2.851  11.215 -0.1246 -0.1099  0.4690
 2785TIP3    H129846   3.724   2.806  11.289 -2.1205 -1.4055  0.8283
 2785TIP3    H229847   3.687   2.787  11.143 -0.7308  0.0819  0.2637
 2786TIP3   OH229848   1.882   4.222   4.117 -0.7230 -0.1578 -0.1359
 2786TIP3    H129849   1.969   4.223   4.077 -0.5835  0.5585  0.1837
 2786TIP3    H229850   1.897   4.198   4.208 -0.7479  0.9675  0.1730
 2787TIP3   OH229851   2.250   0.094  16.768  0.1084  0.0989  0.0286
 2787TIP3    H129852   2.224   0.152  16.697 -0.5710 -1.1301 -0.7483
 2787TIP3    H229853   2.207   0.011  16.748  1.3797 -0.7975  0.9061
 2788TIP3   OH229854   6.176   2.353   5.658  0.1921  0.1613  0.3850
 2788TIP3    H129855   6.266   2.382   5.675 -0.6411  2.1735  1.4041
 2788TIP3    H229856   6.122   2.428   5.679 -1.6052 -0.3007 -2.4040
 2789TIP3   OH229857   3.668   1.969  15.454 -0.1592 -0.1387 -0.1227
 2789TIP3    H129858   3.700   2.030  15.388  2.8709 -1.5542 -0.0472
 2789TIP3    H229859   3.617   1.905  15.404 -1.4392  1.1615 -0.5006
 2790TIP3   OH229860   1.869   6.518  16.630 -0.2388  0.2874  0.1100
 2790TIP3    H129861   1.862   6.539  16.537 -0.9355  1.8919  0.5004
 2790TIP3    H229862   1.783   6.543  16.666 -0.5539 -1.8563  0.8855
 2791TIP3   OH229863   0.251   3.369   1.118  0.0985  0.4064 -1.1320
 2791TIP3    H129864   0.323   3.306   1.116  0.5787  0.6404  2.9113
 2791TIP3    H229865   0.172   3.315   1.117  0.4562 -0.1408 -0.5150
 2792TIP3   OH229866   6.565   3.631   1.504 -0.4453 -0.1898 -0.3691
 2792TIP3    H129867   6.613   3.698   1.454  2.2469 -0.3341  1.8604
 2792TIP3    H229868   6.511   3.681   1.565 -0.2730 -0.0409 -0.3371
 2793TIP3   OH229869   4.664   4.479  12.547 -0.3136  0.2374 -0.3168
 2793TIP3    H129870   4.588   4.422  12.558 -2.2553  2.4247 -1.9107
 2793TIP3    H229871   4.689   4.502  12.637 -1.0550 -1.1041  0.2534
 2794TIP3   OH229872   0.558   4.939   0.133 -1.1516  0.1174  1.1522
 2794TIP3    H129873   0.565   5.019   0.081 -4.5320 -1.6248 -2.1604
 2794TIP3    H229874   0.625   4.880   0.097 -0.7654  0.3181  1.5284
 2795TIP3   OH229875   6.166   3.679   5.450 -0.5842  0.5414 -0.2500
 2795TIP3    H129876   6.071   3.680   5.437 -0.9601 -2.0097  1.9527
 2795TIP3    H229877   6.181   3.611   5.516  2.7179  1.3813 -0.0375
 2796TIP3   OH229878   4.817   6.558  12.453 -0.2461 -0.2921  0.0471
 2796TIP3    H129879   4.791   6.611  12.529 -0.6922  0.0718 -0.3571
 2796TIP3    H229880   4.799   6.468  12.480 -2.1224 -0.0354 -0.2742
 2797TIP3   OH229881   4.191   6.015   5.479 -0.2035 -0.3263 -0.6408
 2797TIP3    H129882   4.163   5.980   5.395  1.6829  0.9691 -1.8161
 2797TIP3    H229883   4.206   6.108   5.464 -0.7853  0.1387  1.3730
 2798TIP3   OH229884   3.579   1.190   3.747  0.0438 -0.0200 -0.2642
 2798TIP3    H129885   3.588   1.102   3.783 -1.4041 -0.9754 -2.1335
 2798TIP3    H229886   3.488   1.214   3.764 -0.3925 -0.1004 -2.3425
 2799TIP3   OH229887   0.418   5.285  13.683 -0.2128 -0.6254 -0.0875
 2799TIP3    H129888   0.328   5.264  13.656  0.2952 -0.9400 -1.5794
 2799TIP3    H229889   0.462   5.200  13.684  0.5780 -0.2382 -1.3057
 2800TIP3   OH229890   0.991   6.148   0.731 -0.3834 -0.0653 -0.6237
 2800TIP3    H129891   0.967   6.081   0.795  2.0253  1.2178  1.7640
 2800TIP3    H229892   1.053   6.105   0.673 -0.5768 -0.5273 -0.4880
 2801TIP3   OH229893   0.699   5.034  11.677 -0.3162  0.0964 -0.0442
 2801TIP3    H129894   0.739   4.954  11.643  0.8437  0.3184  0.7842
 2801TIP3    H229895   0.741   5.048  11.762 -0.1101  1.8955 -0.4258
 2802TIP3   OH229896   5.601   1.618   5.984  0.4119 -0.0888  0.1749
 2802TIP3    H129897   5.527   1.592   6.040  0.0228 -1.0872 -0.7774
 2802TIP3    H229898   5.581   1.578   5.899  0.5411  2.1332 -0.9373
 2803TIP3   OH229899   6.084   3.273  11.571 -0.0412  0.6392 -0.5277
 2803TIP3    H129900   6.163   3.280  11.624  0.7000  2.5181 -1.8082
 2803TIP3    H229901   6.115   3.272  11.480 -1.4722  1.8382 -1.0741
 2804TIP3   OH229902   0.892   2.716   3.157 -0.4821 -0.5506 -0.1889
 2804TIP3    H129903   0.940   2.794   3.132  0.9246 -0.8734  1.4229
 2804TIP3    H229904   0.919   2.698   3.247 -0.8021 -2.8542 -0.5031
 2805TIP3   OH229905   1.514   3.932   4.192  0.1465  0.5153  0.4618
 2805TIP3    H129906   1.449   3.892   4.251 -1.1950 -0.1286 -1.4064
 2805TIP3    H229907   1.467   3.943   4.109  2.4439  0.0635 -0.9239
 2806TIP3   OH229908   2.655   1.512  16.031 -0.3667  0.5444 -0.2883
 2806TIP3    H129909   2.718   1.448  16.063 -3.3428 -2.0803  0.5975
 2806TIP3    H229910   2.628   1.478  15.946 -1.5147  0.9845 -0.1023
 2807TIP3   OH229911   4.036   3.598   4.056 -0.1120  0.2605  0.4868
 2807TIP3    H129912   4.114   3.549   4.079  0.7539  0.1510 -2.4305
 2807TIP3    H229913   3.971   3.532   4.032 -0.3784  0.4011  0.8218
 2808TIP3   OH229914   1.283   4.495  11.263 -0.0672  0.4011  0.3121
 2808TIP3    H129915   1.215   4.443  11.306  1.6074 -1.1598  1.1493
 2808TIP3    H229916   1.289   4.575  11.316  0.8041 -0.7686  2.0674
 2809TIP3   OH229917   0.859   6.267   3.348  0.1095 -0.1812 -0.0065
 2809TIP3    H129918   0.903   6.204   3.406  0.7363 -0.5446 -0.8675
 2809TIP3    H229919   0.777   6.224   3.325  0.3888 -0.5436 -0.3307
 2810TIP3   OH229920   3.457   1.616  16.792 -0.3573  0.1107  0.2785
 2810TIP3    H129921   3.478   1.675  16.720 -0.2377 -0.2455  0.0212
 2810TIP3    H229922   3.404   1.669  16.851  1.2927  1.0552  0.9714
 2811TIP3   OH229923   1.308   5.030  16.953  0.5446  0.4317 -0.5472
 2811TIP3    H129924   1.373   4.967  16.921  1.4415  2.7145 -3.5380
 2811TIP3    H229925   1.228   5.008  16.906 -0.1301 -0.7317  1.1433
 2812TIP3   OH229926   5.127   1.281   3.414 -0.1493  0.0171 -0.1459
 2812TIP3    H129927   5.134   1.185   3.416  1.8503  0.1223 -0.8628
 2812TIP3    H229928   5.049   1.298   3.360 -1.0325 -1.2000  0.7118
 2813TIP3   OH229929   6.042   2.946  16.560  0.2711 -0.6444 -0.0182
 2813TIP3    H129930   6.116   2.993  16.520 -0.8923  0.8692 -0.3953
 2813TIP3    H229931   5.970   2.959  16.499 -0.9641 -0.0791  1.5485
 2814TIP3   OH229932   6.605   1.329  11.166 -0.3137 -0.0321 -0.1274
 2814TIP3    H129933   6.522   1.371  11.188  0.4828  2.3250 -1.4321
 2814TIP3    H229934   6.660   1.344  11.243  0.0808  1.6747 -0.7255
 2815TIP3   OH229935   6.785   3.301   3.864  0.2573 -0.1769  0.2791
 2815TIP3    H129936   6.879   3.321   3.860  0.1329  0.2879 -0.6229
 2815TIP3    H229937   6.771   3.241   3.790 -0.2060 -0.0204  0.2406
 2816TIP3   OH229938   2.514   3.930   3.207  0.1594 -0.0597  0.1639
 2816TIP3    H129939   2.579   3.996   3.182 -0.0052  0.4114  0.9633
 2816TIP3    H229940   2.554   3.847   3.181  2.5501 -0.0691  3.5201
 2817TIP3   OH229941   6.771   2.053  16.970 -0.3746  0.2571  0.2493
 2817TIP3    H129942   6.681   2.048  16.940 -0.2690 -1.5257  0.1772
 2817TIP3    H229943   6.819   1.993  16.912  0.8488  1.1310  0.3280
 2818TIP3   OH229944   0.700   3.778  11.003 -0.0661 -0.1566 -0.1322
 2818TIP3    H129945   0.699   3.866  11.040 -0.7156 -0.8222  1.4717
 2818TIP3    H229946   0.622   3.775  10.947 -1.0338 -0.2709  1.1883
 2819TIP3   OH229947   2.954   1.607   6.113 -0.0385 -0.2018  0.0147
 2819TIP3    H129948   3.047   1.584   6.122  0.1053  0.3644 -0.0084
 2819TIP3    H229949   2.925   1.627   6.202  0.5411  2.1738 -0.2958
 2820TIP3   OH229950   2.536   1.428  13.905 -0.3643 -0.3534  0.1406
 2820TIP3    H129951   2.592   1.392  13.974  2.7619  0.6157 -1.7815
 2820TIP3    H229952   2.452   1.444  13.948  1.6340  0.6973  3.8496
 2821TIP3   OH229953   3.226   6.412  13.126 -0.3728 -0.2341 -0.2979
 2821TIP3    H129954   3.155   6.473  13.147 -0.6209 -0.8047  0.5488
 2821TIP3    H229955   3.256   6.380  13.210  0.8838 -0.0236 -0.6659
 2822TIP3   OH229956   0.796   4.985   2.451 -0.0205 -0.0104 -0.4686
 2822TIP3    H129957   0.860   5.045   2.412 -0.6354  0.2681 -1.0534
 2822TIP3    H229958   0.758   4.939   2.376 -1.7716  1.0873 -0.2572
 2823TIP3   OH229959   5.252   2.178  11.063  0.1763  0.0150  0.3341
 2823TIP3    H129960   5.192   2.246  11.095 -1.5960 -1.4610  0.2278
 2823TIP3    H229961   5.283   2.134  11.142  0.0260 -0.1262  0.3145
 2824TIP3   OH229962   3.937   2.712  13.123  0.0540  0.4852 -0.2950
 2824TIP3    H129963   3.875   2.776  13.087 -0.6759 -0.3251 -0.4882
 2824TIP3    H229964   3.967   2.662  13.047  1.2534  1.1165 -0.2605
 2825TIP3   OH229965   4.699   5.241   2.395 -0.1084 -1.1404 -0.2047
 2825TIP3    H129966   4.747   5.317   2.363  1.8749 -1.7218  1.2570
 2825TIP3    H229967   4.620   5.278   2.436  0.5525  0.0931 -0.0184
 2826TIP3   OH229968   1.059   0.914   1.040  0.4469 -0.0650 -0.0198
 2826TIP3    H129969   1.150   0.924   1.010  0.1018  0.9098 -0.7597
 2826TIP3    H229970   1.032   1.003   1.062 -0.6902 -0.2074 -0.8443
 2827TIP3   OH229971   1.637   1.122   3.894  0.3893  0.1723 -0.9675
 2827TIP3    H129972   1.655   1.029   3.905  1.3782  0.2588 -1.6934
 2827TIP3    H229973   1.678   1.164   3.970 -3.7845 -0.3247  1.7245
 2828TIP3   OH229974   6.007   0.614   0.512  0.2106  0.9057  0.6387
 2828TIP3    H129975   6.049   0.545   0.564  0.9107 -0.5029 -1.7215
 2828TIP3    H229976   5.933   0.642   0.565 -0.0455 -1.6036  1.7055
 2829TIP3   OH229977   4.317   3.637   6.040  0.3709 -0.4077  0.0765
 2829TIP3    H129978   4.339   3.722   6.003  2.3883 -0.3798  1.2669
 2829TIP3    H229979   4.241   3.653   6.095  1.8996  1.0628  1.8488
 2830TIP3   OH229980   2.178   3.129   5.271 -0.0515 -0.1398  0.6202
 2830TIP3    H129981   2.232   3.099   5.197  1.3363  1.9901  0.7339
 2830TIP3    H229982   2.188   3.224   5.272 -3.3332  0.2661  1.0764
 2831TIP3   OH229983   1.790   4.445  16.417 -0.1416 -0.3609  0.1834
 2831TIP3    H129984   1.759   4.475  16.502  1.5817  1.0057  0.3496
 2831TIP3    H229985   1.715   4.458  16.358 -0.6756  0.5693  1.0709
 2832TIP3   OH229986   6.632   1.860  14.933 -0.8164  0.4827 -0.0204
 2832TIP3    H129987   6.622   1.803  14.857  0.8610 -0.4362  0.4333
 2832TIP3    H229988   6.723   1.890  14.929 -0.6625  0.2892  1.7093
 2833TIP3   OH229989   5.061   4.074  11.904 -0.1542 -1.3516 -0.3318
 2833TIP3    H129990   5.029   4.164  11.897 -0.3841 -1.3986  0.1035
 2833TIP3    H229991   5.102   4.070  11.991 -0.5138 -1.7865 -0.1832
 2834TIP3   OH229992   3.358   4.811   4.542  0.1771 -0.4433 -0.4502
 2834TIP3    H129993   3.340   4.889   4.489 -0.9238 -0.7865 -0.5788
 2834TIP3    H229994   3.449   4.789   4.521 -0.2914 -0.6444 -2.2790
 2835TIP3   OH229995   5.698   3.079  11.311 -0.6655  0.1795 -0.3927
 2835TIP3    H129996   5.649   3.146  11.360 -2.1272 -1.5038  0.5237
 2835TIP3    H229997   5.773   3.059  11.367  1.3623  2.9801 -1.9325
 2836TIP3   OH229998   4.064   2.403  13.985 -0.1007 -0.2811  0.2814
 2836TIP3    H129999   4.036   2.313  14.002 -1.4373 -0.0440 -0.6702
 2836TIP3    H230000   4.054   2.447  14.070  0.0803 -0.8905  0.6237
 2837TIP3   OH230001   2.967   4.647  10.741  0.1655 -0.0283  0.4389
 2837TIP3    H130002   2.891   4.671  10.794  1.0672  3.1583  0.3556
 2837TIP3    H230003   3.035   4.626  10.805  0.7892  2.2963  0.5514
 2838TIP3   OH230004   2.751   2.159  10.655  0.1278 -0.1597  0.3849
 2838TIP3    H130005   2.745   2.064  10.657 -2.2171 -0.0476  1.5860
 2838TIP3    H230006   2.667   2.188  10.690  0.5570  2.3600 -0.5807
 2839TIP3   OH230007   3.178   5.868   4.870  0.3537 -0.5122 -0.2111
 2839TIP3    H130008   3.148   5.872   4.961  1.0127 -0.0289 -0.0107
 2839TIP3    H230009   3.207   5.957   4.851 -4.1907  0.6448 -2.4261
 2840TIP3   OH230010   4.391   4.526  17.035 -0.2019 -0.9745  0.5338
 2840TIP3    H130011   4.465   4.466  17.021  0.7293  0.0165  1.1695
 2840TIP3    H230012   4.348   4.493  17.114 -1.2242 -2.3167 -0.5563
 2841TIP3   OH230013   2.952   5.050   1.556  0.3693  0.2358  0.1020
 2841TIP3    H130014   2.934   4.959   1.578  2.3426 -0.0090  0.7630
 2841TIP3    H230015   3.004   5.083   1.629 -0.2996  1.8936 -0.1475
 2842TIP3   OH230016   4.248   5.058  13.603  0.2110 -0.1821 -0.0789
 2842TIP3    H130017   4.247   5.069  13.698  1.3653  2.0810 -0.3054
 2842TIP3    H230018   4.251   4.963  13.590  1.0945 -0.4917  2.1501
 2843TIP3   OH230019   0.584   3.946   5.303 -0.0961 -0.3779 -0.5670
 2843TIP3    H130020   0.496   3.909   5.312  0.2716 -1.3822 -0.9802
 2843TIP3    H230021   0.577   4.034   5.339 -1.2415 -0.4955 -0.4769
 2844TIP3   OH230022   3.441   4.912   2.937  0.8238  0.5193 -0.2337
 2844TIP3    H130023   3.390   4.888   3.015 -0.3203  1.1962 -0.7749
 2844TIP3    H230024   3.523   4.947   2.972  1.1219 -1.0047  0.6328
 2845TIP3   OH230025   6.738   2.319   5.630 -0.3425 -0.0703 -0.0475
 2845TIP3    H130026   6.781   2.236   5.650  1.1142  1.0558  1.6308
 2845TIP3    H230027   6.791   2.357   5.560 -0.1553  0.1014  0.1860
 2846TIP3   OH230028   1.681   5.122  15.752  0.6393 -0.0888 -0.3685
 2846TIP3    H130029   1.627   5.043  15.752 -0.0694  0.3868  0.0957
 2846TIP3    H230030   1.771   5.090  15.741  0.4395 -1.0149  0.6365
 2847TIP3   OH230031   3.757   2.848  14.648 -0.3444 -0.2967  0.2715
 2847TIP3    H130032   3.830   2.858  14.588  1.4778 -0.6875  2.3452
 2847TIP3    H230033   3.699   2.921  14.628  0.5892  0.0033 -1.4331
 2848TIP3   OH230034   5.359   2.652   2.756  0.2432  0.4005  0.6281
 2848TIP3    H130035   5.342   2.746   2.751 -3.9515 -0.1693  2.7660
 2848TIP3    H230036   5.361   2.623   2.664 -2.3790  1.9687  0.0263
 2849TIP3   OH230037   3.716   0.635   5.826 -0.7970 -0.2128 -0.1555
 2849TIP3    H130038   3.632   0.679   5.810 -1.2117 -0.6973  0.6375
 2849TIP3    H230039   3.727   0.577   5.751 -0.8918  0.2844 -0.5515
 2850TIP3   OH230040   1.473   2.689   4.982  0.4090  0.2528  0.1296
 2850TIP3    H130041   1.482   2.594   4.972 -0.1316  0.2789 -0.6749
 2850TIP3    H230042   1.380   2.705   4.972  0.5485  0.9191 -0.1012
 2851TIP3   OH230043   5.784   3.908  17.237  0.0054 -0.2913 -0.2195
 2851TIP3    H130044   5.843   3.982  17.225 -3.3380  2.2102 -1.7619
 2851TIP3    H230045   5.728   3.933  17.310 -0.6513 -1.6873 -0.2214
 2852TIP3   OH230046   4.269   5.442  10.719 -0.2721  0.1092  0.2613
 2852TIP3    H130047   4.348   5.388  10.723  0.2346  0.8321  0.0155
 2852TIP3    H230048   4.300   5.532  10.726 -0.7288  0.6284 -3.4084
 2853TIP3   OH230049   2.364   3.097  13.726 -0.6121  0.3840 -0.0027
 2853TIP3    H130050   2.300   3.027  13.736 -1.0768  0.6710 -0.9493
 2853TIP3    H230051   2.329   3.153  13.657  1.2153 -0.0997 -1.3730
 2854TIP3   OH230052   2.729   6.785   6.412 -0.6517  0.0250 -0.9616
 2854TIP3    H130053   2.707   6.840   6.488  0.3025 -0.3158 -0.4274
 2854TIP3    H230054   2.702   6.697   6.438  3.2256 -0.7870  0.5721
 2855TIP3   OH230055   6.778   0.434  11.994  0.0394 -0.2730 -0.3581
 2855TIP3    H130056   6.718   0.507  12.010 -0.7579 -0.9874 -0.0672
 2855TIP3    H230057   6.865   0.472  12.004 -0.3798  0.5226  0.3032
 2856TIP3   OH230058   0.435   1.366   5.556 -0.2316  0.3360 -0.3633
 2856TIP3    H130059   0.374   1.381   5.628  0.3259 -1.3026  0.4929
 2856TIP3    H230060   0.469   1.452   5.534 -2.1544  1.1549 -0.2332
 2857TIP3   OH230061   4.610   3.073  16.374  0.7875 -0.2796 -0.0668
 2857TIP3    H130062   4.627   3.005  16.440  0.4958  0.8551  1.2190
 2857TIP3    H230063   4.558   3.030  16.307  2.3250 -1.8553 -0.2937
 2858TIP3   OH230064   5.810   5.516   0.834  0.2961 -0.1819 -0.5905
 2858TIP3    H130065   5.884   5.547   0.782  0.3742 -2.1564 -1.7380
 2858TIP3    H230066   5.822   5.555   0.920  1.9114  0.6278 -1.1664
 2859TIP3   OH230067   2.319   3.932  14.805  0.0931  0.6414  0.3448
 2859TIP3    H130068   2.337   3.995  14.875 -1.4252 -1.3866  2.6734
 2859TIP3    H230069   2.404   3.895  14.784  0.7079  1.9873  0.3929
 2860TIP3   OH230070   2.537   3.064   2.523  0.6324  0.2195 -0.3685
 2860TIP3    H130071   2.566   3.137   2.577  0.9479  0.1764 -0.4762
 2860TIP3    H230072   2.536   2.989   2.583  2.2928 -0.1154 -0.7147
 2861TIP3   OH230073   1.277   3.432   0.317  0.8192 -0.0175  0.2371
 2861TIP3    H130074   1.209   3.479   0.366 -0.2249 -1.9201  0.6354
 2861TIP3    H230075   1.235   3.411   0.234  1.0347 -0.9340  0.3631
 2862TIP3   OH230076   4.708   6.154   3.197 -0.7467  0.2790 -0.3224
 2862TIP3    H130077   4.679   6.074   3.152 -0.9268 -0.8322  1.7392
 2862TIP3    H230078   4.642   6.168   3.265  0.5153  0.9364  0.7674
 2863TIP3   OH230079   3.295   2.767   5.753 -0.2545  0.5539 -0.2842
 2863TIP3    H130080   3.332   2.822   5.684 -0.9859  0.4889 -0.7348
 2863TIP3    H230081   3.325   2.808   5.835  2.6388 -0.7636 -0.6403
 2864TIP3   OH230082   3.176   3.651   1.252  0.0659  0.1060 -0.0777
 2864TIP3    H130083   3.125   3.591   1.198  1.0943  0.2266 -1.2112
 2864TIP3    H230084   3.255   3.667   1.201  1.5250 -0.5676  1.9242
 2865TIP3   OH230085   2.914   0.292  13.120 -0.0803 -0.5859 -0.0107
 2865TIP3    H130086   2.825   0.320  13.136  0.4967  1.6541 -0.5291
 2865TIP3    H230087   2.949   0.270  13.206 -0.5226  0.4484  0.4417
 2866TIP3   OH230088   1.488   6.499   0.748 -0.2109  0.1258 -0.0753
 2866TIP3    H130089   1.566   6.551   0.728  0.0209 -0.2417 -0.1269
 2866TIP3    H230090   1.421   6.533   0.688  0.3897 -0.7479 -1.2575
 2867TIP3   OH230091   2.789   0.782   4.756  0.3412 -0.2079  0.8520
 2867TIP3    H130092   2.862   0.724   4.777  0.5358 -0.2804 -0.0069
 2867TIP3    H230093   2.814   0.867   4.792  0.6295 -0.3556  0.9955
 2868TIP3   OH230094   4.706   1.548  15.977 -0.0298 -0.3929  0.0502
 2868TIP3    H130095   4.726   1.596  16.057  1.8772 -1.4518  0.2295
 2868TIP3    H230096   4.688   1.459  16.006 -3.2117  0.0570 -0.3164
 2869TIP3   OH230097   3.122   3.581  16.484 -0.4665 -0.2193  0.0268
 2869TIP3    H130098   3.191   3.578  16.550  0.3577 -0.2447 -0.8254
 2869TIP3    H230099   3.091   3.672  16.486  0.5962  0.1669 -0.5976
 2870TIP3   OH230100   0.617   6.193  11.198 -0.3114 -0.5718  0.2980
 2870TIP3    H130101   0.628   6.183  11.292  0.2013 -2.6250  0.0525
 2870TIP3    H230102   0.523   6.184  11.183 -0.3436 -0.6987  0.5689
 2871TIP3   OH230103   5.845   2.510  15.764  0.9785 -0.3156 -0.4959
 2871TIP3    H130104   5.754   2.513  15.735  0.8357 -3.5474 -0.5071
 2871TIP3    H230105   5.840   2.521  15.859  0.5764 -0.5416 -0.4885
 2872TIP3   OH230106   2.188   5.015   4.546 -0.3879  0.3714  0.1363
 2872TIP3    H130107   2.196   5.064   4.464 -1.0584  0.1464 -0.0736
 2872TIP3    H230108   2.109   4.962   4.534  0.6854 -1.2530  0.1150
 2873TIP3   OH230109   3.167   3.222  13.890  0.3497  0.3394  0.3613
 2873TIP3    H130110   3.126   3.146  13.933 -1.0743  0.5660 -0.5469
 2873TIP3    H230111   3.165   3.290  13.957  0.5498 -0.0783  0.7980
 2874TIP3   OH230112   4.279   2.555   5.786  0.3516 -0.5957 -0.1049
 2874TIP3    H130113   4.330   2.603   5.721  0.2204  1.6629  1.4214
 2874TIP3    H230114   4.341   2.534   5.855 -0.0448 -0.8787  0.1667
 2875TIP3   OH230115   3.905   6.037   5.423 -0.2858 -0.5132  0.2191
 2875TIP3    H130116   3.984   5.983   5.420  2.1970  2.9532  0.1594
 2875TIP3    H230117   3.912   6.085   5.506 -2.6710 -0.6494  0.5088
 2876TIP3   OH230118   5.761   2.394  17.062 -0.7335  0.6928 -0.2602
 2876TIP3    H130119   5.734   2.483  17.086  1.4084  1.2891  0.1122
 2876TIP3    H230120   5.833   2.408  17.000 -0.1094 -0.7674  0.1253
 2877TIP3   OH230121   4.447   6.105  16.257 -0.2123  0.1218  0.1311
 2877TIP3    H130122   4.373   6.155  16.222 -0.4937  0.6051  1.3909
 2877TIP3    H230123   4.521   6.129  16.202 -0.0983  2.7694  1.3620
 2878TIP3   OH230124   2.235   2.765  15.818  0.0165 -0.0311 -0.0407
 2878TIP3    H130125   2.257   2.858  15.820 -1.0441  0.2212  0.4461
 2878TIP3    H230126   2.171   2.754  15.888  0.5976 -1.2568  0.3084
 2879TIP3   OH230127   0.235   3.949   5.458 -0.3572  0.6104 -0.0285
 2879TIP3    H130128   0.151   3.992   5.444 -0.6363  0.3704  0.8935
 2879TIP3    H230129   0.287   4.014   5.506 -0.5717  0.1613  0.8234
 2880TIP3   OH230130   1.244   2.216  13.048 -0.0295 -0.0156  0.4096
 2880TIP3    H130131   1.324   2.192  13.094 -0.5651 -0.7382  0.9750
 2880TIP3    H230132   1.201   2.279  13.105 -0.1326 -0.0382  0.3574
 2881TIP3   OH230133   4.827   4.112   4.607  0.4281 -0.1019 -0.5719
 2881TIP3    H130134   4.898   4.162   4.647  0.3511  0.6094 -1.3334
 2881TIP3    H230135   4.766   4.178   4.573 -0.2791 -0.7069 -0.5020
 2882TIP3   OH230136   3.329   3.014  11.026 -0.0284 -0.6257  0.3273
 2882TIP3    H130137   3.293   2.955  10.960  0.0442  0.1579 -0.4126
 2882TIP3    H230138   3.355   2.956  11.098  1.4286 -1.6825 -0.9996
 2883TIP3   OH230139   1.776   6.382  14.040 -0.0990  0.7991 -0.2546
 2883TIP3    H130140   1.826   6.302  14.058  1.5199  2.3264  2.3668
 2883TIP3    H230141   1.688   6.351  14.021  0.9908 -1.7425 -1.4197
 2884TIP3   OH230142   3.121   6.349  11.174  0.5790  0.5690 -0.9638
 2884TIP3    H130143   3.045   6.309  11.131  1.1111  0.7184 -2.0749
 2884TIP3    H230144   3.129   6.435  11.132 -0.3485  1.7166  1.1619
 2885TIP3   OH230145   4.977   1.356   2.394  0.0636 -0.0308  0.3179
 2885TIP3    H130146   5.011   1.341   2.482 -1.5782 -1.7002  0.7040
 2885TIP3    H230147   4.922   1.434   2.403 -0.7495 -0.6632  0.9864
 2886TIP3   OH230148   4.406   5.326  11.042  0.0546  0.4841  0.3648
 2886TIP3    H130149   4.500   5.329  11.063  0.1893  0.9823 -0.3136
 2886TIP3    H230150   4.401   5.267  10.967 -0.0851  1.1284 -0.1270
 2887TIP3   OH230151   5.778   3.310   5.022 -0.4173 -0.1223  0.1026
 2887TIP3    H130152   5.832   3.381   5.057  1.5247 -1.4961 -0.0804
 2887TIP3    H230153   5.733   3.350   4.946 -0.0877  1.1707  0.5744
 2888TIP3   OH230154   2.994   5.691   6.624  0.0949 -0.7394  0.1469
 2888TIP3    H130155   3.019   5.650   6.707 -2.2772 -1.5731  0.4676
 2888TIP3    H230156   2.927   5.634   6.587  0.4402  0.1331 -1.8982
 2889TIP3   OH230157   0.981   2.976   4.601  0.6891  0.5053  0.3573
 2889TIP3    H130158   0.988   2.888   4.638  1.7676  0.0196 -0.9443
 2889TIP3    H230159   1.005   3.034   4.672 -2.0149 -0.1197  1.8336
 2890TIP3   OH230160   3.787   6.227   0.315 -0.4472  0.5652 -0.0083
 2890TIP3    H130161   3.799   6.265   0.228 -0.0399 -2.3093 -1.2998
 2890TIP3    H230162   3.760   6.136   0.297 -1.5574  0.2765  2.8761
 2891TIP3   OH230163   3.505   4.760  13.454 -0.2846  0.6368 -0.0684
 2891TIP3    H130164   3.555   4.680  13.473  0.3432  0.1882 -3.3255
 2891TIP3    H230165   3.415   4.730  13.442 -0.1789  0.5109 -0.5595
 2892TIP3   OH230166   6.574   6.186   3.179  0.8156  0.3941 -0.1424
 2892TIP3    H130167   6.536   6.229   3.255 -1.3282  0.3066 -1.1205
 2892TIP3    H230168   6.590   6.256   3.116 -0.4049  0.1212 -0.7964
 2893TIP3   OH230169   1.656   0.614  14.727 -0.0227 -0.8901 -0.3380
 2893TIP3    H130170   1.732   0.579  14.772 -0.6040 -2.9783 -0.9246
 2893TIP3    H230171   1.610   0.665  14.793 -0.4457 -3.2570  1.2389
 2894TIP3   OH230172   5.471   1.270  13.764 -0.2985 -0.3648 -0.4486
 2894TIP3    H130173   5.428   1.355  13.756  0.9922  0.4887  1.4045
 2894TIP3    H230174   5.445   1.238  13.850  1.8880 -0.2913  0.2736
 2895TIP3   OH230175   3.562   4.813   5.741 -0.5528 -0.2921 -0.1658
 2895TIP3    H130176   3.501   4.760   5.792  0.1050 -0.1078  0.8183
 2895TIP3    H230177   3.558   4.900   5.780  0.4251 -0.3022 -0.0191
 2896TIP3   OH230178   2.428   4.568  16.040 -0.0044  0.2404 -0.0701
 2896TIP3    H130179   2.454   4.650  15.999  1.7950  0.3894  1.3211
 2896TIP3    H230180   2.402   4.591  16.129  1.5273 -0.8078  0.6782
 2897TIP3   OH230181   2.873   0.452   2.709  0.0248  0.1344  0.0320
 2897TIP3    H130182   2.965   0.433   2.728  0.1751 -0.7028 -1.4123
 2897TIP3    H230183   2.826   0.378   2.747  0.1809 -0.6875 -1.3263
 2898TIP3   OH230184   0.885   2.673   0.731  0.6849 -0.0001  0.4610
 2898TIP3    H130185   0.976   2.704   0.731  1.3201 -1.5048 -3.6191
 2898TIP3    H230186   0.892   2.578   0.738 -0.7371  0.0115  2.4926
 2899TIP3   OH230187   0.088   4.003   3.543  0.0544  0.1978  0.0869
 2899TIP3    H130188   0.183   3.999   3.557  0.1557 -0.9372 -0.8582
 2899TIP3    H230189   0.057   3.917   3.570 -0.2145 -0.7532 -3.1376
 2900TIP3   OH230190   3.462   1.244   0.873  0.3582 -0.4838  0.6968
 2900TIP3    H130191   3.377   1.259   0.830  0.3965 -0.9654  0.4482
 2900TIP3    H230192   3.439   1.203   0.956  0.3511 -0.6481  0.6133
 2901TIP3   OH230193   5.781   4.863   4.939  0.3753  1.1425 -0.1539
 2901TIP3    H130194   5.871   4.831   4.930  0.1623  0.6617 -0.6335
 2901TIP3    H230195   5.790   4.950   4.978  0.9314  0.2371  1.8180
 2902TIP3   OH230196   0.676   4.130  14.316 -0.3583  0.3003  0.0925
 2902TIP3    H130197   0.675   4.176  14.400  0.7584  0.0992  0.2189
 2902TIP3    H230198   0.649   4.196  14.252 -1.3800  0.4101  0.6132
 2903TIP3   OH230199   2.266   0.998   2.457  0.1010  0.9104  0.3150
 2903TIP3    H130200   2.274   1.004   2.552 -2.3114 -1.7888  0.7684
 2903TIP3    H230201   2.176   1.025   2.439  0.1344  0.1454 -1.0623
 2904TIP3   OH230202   4.055   2.153  14.758 -0.3890  0.3120 -0.2210
 2904TIP3    H130203   4.030   2.152  14.665 -2.0337  0.0301  0.2115
 2904TIP3    H230204   4.111   2.230  14.767 -0.6321  0.6286 -1.3539
 2905TIP3   OH230205   0.445   5.403  16.629 -0.0658 -0.3525 -0.4282
 2905TIP3    H130206   0.386   5.445  16.566  1.0835  1.1746 -0.5204
 2905TIP3    H230207   0.405   5.317  16.646 -0.8952 -0.3971 -2.4892
 2906TIP3   OH230208   5.637   2.129   0.520 -0.6579  0.1613  0.0591
 2906TIP3    H130209   5.604   2.077   0.593  0.9320  1.5941  1.8438
 2906TIP3    H230210   5.642   2.067   0.447  0.2454 -1.9679  1.8565
 2907TIP3   OH230211   3.550   1.019  12.314  0.1681  0.1921  0.1505
 2907TIP3    H130212   3.471   1.038  12.366 -1.9115 -0.3047 -2.6918
 2907TIP3    H230213   3.577   1.104  12.280  1.8734  0.6076  2.3818
 2908TIP3   OH230214   6.513   3.588   2.862  1.1268 -0.0096 -0.1440
 2908TIP3    H130215   6.469   3.673   2.863 -0.2365 -0.7117  1.9000
 2908TIP3    H230216   6.528   3.570   2.769 -2.3397  0.5400 -0.8563
 2909TIP3   OH230217   2.227   5.647   3.174  0.6211  0.0473 -0.2253
 2909TIP3    H130218   2.150   5.613   3.219  0.9389 -0.5327 -0.1045
 2909TIP3    H230219   2.258   5.573   3.121  0.5700  0.5508 -0.9703
 2910TIP3   OH230220   2.474   5.448   3.160 -0.5734 -0.2560  0.2337
 2910TIP3    H130221   2.534   5.509   3.117 -0.2695 -0.1923  0.7421
 2910TIP3    H230222   2.516   5.362   3.150 -0.7370 -0.3090 -0.0096
 2911TIP3   OH230223   6.534   5.694   4.126  0.5991 -0.4338 -0.0625
 2911TIP3    H130224   6.582   5.620   4.089  0.4988  0.4152 -1.9543
 2911TIP3    H230225   6.452   5.656   4.158  1.4041 -1.4548  0.8095
 2912TIP3   OH230226   0.347   0.696   5.469  0.2534 -0.3371 -0.1288
 2912TIP3    H130227   0.288   0.708   5.543  1.7630 -0.3766  1.1163
 2912TIP3    H230228   0.303   0.631   5.413 -1.1205  0.0529  0.4850
 2913TIP3   OH230229   1.071   4.465   0.813  1.0758 -0.4430  0.0632
 2913TIP3    H130230   1.091   4.520   0.737 -0.5819 -0.9610 -0.7542
 2913TIP3    H230231   1.106   4.515   0.888  0.9800  0.9937 -0.8335
 2914TIP3   OH230232   1.491   1.270  15.807 -0.0057  0.0499  0.1718
 2914TIP3    H130233   1.584   1.265  15.826 -0.0054  0.3634  0.2651
 2914TIP3    H230234   1.483   1.337  15.740 -0.1828  0.1673  0.3075
 2915TIP3   OH230235   4.556   3.887  15.662  0.2758  0.3715 -0.0506
 2915TIP3    H130236   4.559   3.977  15.694  0.2208  0.0435  0.9004
 2915TIP3    H230237   4.502   3.891  15.583  0.7937  1.2710 -0.3648
 2916TIP3   OH230238   2.223   3.043   0.220 -0.0814 -0.8509  0.8728
 2916TIP3    H130239   2.149   3.075   0.168  0.4405  0.4437  0.9083
 2916TIP3    H230240   2.230   3.106   0.291  0.4837 -1.4951  1.3866
 2917TIP3   OH230241   5.711   3.542  12.675  0.0413  0.4848 -0.1015
 2917TIP3    H130242   5.737   3.623  12.720 -1.7930  1.6483 -1.0905
 2917TIP3    H230243   5.783   3.481  12.692  0.8772  1.9299  1.6944
 2918TIP3   OH230244   3.456   2.505   5.220 -0.2571 -0.1857 -0.0877
 2918TIP3    H130245   3.372   2.513   5.264  0.2593  0.6867  0.7619
 2918TIP3    H230246   3.446   2.555   5.140 -0.4229  0.2296  0.1931
 2919TIP3   OH230247   5.850   6.316  15.352  0.7929  0.5572 -0.6341
 2919TIP3    H130248   5.869   6.272  15.270  1.4872  0.9430 -0.6841
 2919TIP3    H230249   5.922   6.379  15.363  0.5208  0.7481  0.0894
 2920TIP3   OH230250   3.002   6.181  13.542 -0.0235  0.4694  0.0704
 2920TIP3    H130251   3.039   6.198  13.455  0.9255  3.0305  0.9227
 2920TIP3    H230252   2.944   6.256  13.558  0.1029  0.2043  1.8002
 2921TIP3   OH230253   1.704   3.495   2.310  0.0798  0.0057 -0.6021
 2921TIP3    H130254   1.793   3.478   2.342  0.5106  1.5934 -0.9004
 2921TIP3    H230255   1.709   3.478   2.216  0.6104  2.0445 -0.9667
 2922TIP3   OH230256   4.996   0.599  10.854  0.0165 -0.0750 -0.0519
 2922TIP3    H130257   4.968   0.513  10.886  1.4621 -1.1431 -1.6132
 2922TIP3    H230258   5.068   0.581  10.794  0.0725  2.2065 -0.7280
 2923TIP3   OH230259   5.174   1.700   4.533 -0.5332  0.1964 -0.2217
 2923TIP3    H130260   5.172   1.608   4.561 -0.8813 -0.1417 -1.3329
 2923TIP3    H230261   5.093   1.737   4.568 -1.0430 -0.2645 -0.8875
 2924TIP3   OH230262   0.492   5.810   4.706 -0.0010  0.8532  0.7653
 2924TIP3    H130263   0.561   5.760   4.662 -0.7133  0.0610  0.5319
 2924TIP3    H230264   0.530   5.896   4.722  1.0585  0.4046  0.6800
 2925TIP3   OH230265   3.948   5.633   6.259  0.0477  0.3390 -0.2457
 2925TIP3    H130266   3.880   5.612   6.323 -0.1597 -0.0101 -0.5789
 2925TIP3    H230267   4.004   5.696   6.304 -1.2345  1.6312 -0.4030
 2926TIP3   OH230268   5.288   1.011   1.309  0.1466 -0.0152 -0.5343
 2926TIP3    H130269   5.301   1.105   1.299 -2.1334  0.2829 -0.9687
 2926TIP3    H230270   5.228   1.003   1.384  1.9232 -1.2471  0.7948
 2927TIP3   OH230271   5.654   0.302   0.327  0.2481 -0.3188  0.3230
 2927TIP3    H130272   5.713   0.347   0.268  0.5756  1.8090  2.2157
 2927TIP3    H230273   5.711   0.249   0.383 -0.0752 -2.5066 -1.3380
 2928TIP3   OH230274   2.076   1.123   3.100 -0.0611 -0.2536  0.1964
 2928TIP3    H130275   2.164   1.149   3.125 -0.0188 -1.1948  1.0595
 2928TIP3    H230276   2.055   1.178   3.024  1.5669 -0.5648 -0.4986
 2929TIP3   OH230277   6.769   4.991   6.567  0.2772 -0.5297  0.0778
 2929TIP3    H130278   6.812   4.979   6.652  0.8899  0.4108 -0.0877
 2929TIP3    H230279   6.676   5.001   6.588  0.3555 -0.8874  0.5925
 2930TIP3   OH230280   4.245   3.603   0.476 -0.3343  0.0147  0.0634
 2930TIP3    H130281   4.265   3.691   0.508 -1.2683  0.0464  0.6000
 2930TIP3    H230282   4.300   3.546   0.529  0.0859  0.2614 -0.1070
 2931TIP3   OH230283   4.377   6.406   0.168  1.0879  0.1719 -0.8146
 2931TIP3    H130284   4.426   6.324   0.171  1.0390  0.1448 -0.7260
 2931TIP3    H230285   4.329   6.408   0.251  2.4456  1.1302 -0.0397
 2932TIP3   OH230286   2.100   1.989  12.673  0.2210 -0.5834  0.0276
 2932TIP3    H130287   2.096   2.028  12.585 -0.4429  0.9582  0.7280
 2932TIP3    H230288   2.016   2.012  12.713  0.7244 -0.8614  1.2512
 2933TIP3   OH230289   2.773   5.610  14.567 -0.1364  0.1880 -0.4292
 2933TIP3    H130290   2.839   5.629  14.501  0.7357  0.2785  0.4539
 2933TIP3    H230291   2.693   5.593  14.517  0.2185  1.4535 -1.4458
 2934TIP3   OH230292   4.588   5.544  16.937 -0.0064  0.0152 -0.5081
 2934TIP3    H130293   4.539   5.471  16.976  0.3960 -0.0658 -0.1348
 2934TIP3    H230294   4.527   5.585  16.877 -0.4715 -0.1969 -0.1906
 2935TIP3   OH230295   3.759   4.136   4.864 -0.0315 -0.2575  0.2565
 2935TIP3    H130296   3.802   4.057   4.894  0.6166 -0.1621 -0.4092
 2935TIP3    H230297   3.667   4.125   4.889  0.0627 -1.2051  0.1762
 2936TIP3   OH230298   5.474   3.315  12.324  0.0915 -0.3658  0.1491
 2936TIP3    H130299   5.401   3.257  12.349 -0.6226  0.2217 -0.5281
 2936TIP3    H230300   5.522   3.330  12.406 -0.7911 -0.4358  0.6901
 2937TIP3   OH230301   2.622   3.306  12.640  0.2367 -0.2117  0.6647
 2937TIP3    H130302   2.555   3.328  12.705  0.0864 -1.0774  0.8175
 2937TIP3    H230303   2.697   3.361  12.662 -0.3501  0.6144  0.6244
 2938TIP3   OH230304   2.325   6.435   1.038  0.7279 -0.2688  0.0342
 2938TIP3    H130305   2.282   6.404   0.958  0.5308  0.8736 -0.3113
 2938TIP3    H230306   2.386   6.503   1.008  0.2295  0.5746  0.9120
 2939TIP3   OH230307   0.197   3.191   2.473  0.1186 -0.0532 -0.9947
 2939TIP3    H130308   0.113   3.159   2.440  0.7828 -0.3390 -2.4574
 2939TIP3    H230309   0.185   3.199   2.567 -1.4044 -0.5328 -1.1418
 2940TIP3   OH230310   0.796   4.766   3.831  0.2843 -0.0260  0.3182
 2940TIP3    H130311   0.874   4.787   3.780 -1.2285 -0.9393 -2.4795
 2940TIP3    H230312   0.774   4.677   3.805 -1.4320  0.0535  1.4276
 2941TIP3   OH230313   3.297   5.000  10.526  0.2253  0.4058 -0.1826
 2941TIP3    H130314   3.321   4.947  10.449  1.3460 -1.1422  1.1977
 2941TIP3    H230315   3.377   5.049  10.546 -0.1650  1.0470 -0.2028
 2942TIP3   OH230316   0.003   5.314  14.212  0.0026 -0.1397  0.0404
 2942TIP3    H130317  -0.056   5.389  14.201  0.3948  0.2033  0.2423
 2942TIP3    H230318   0.089   5.353  14.221  0.3208 -0.6684 -0.7212
 2943TIP3   OH230319   2.811   0.959   4.095 -0.0678  0.5251 -0.0976
 2943TIP3    H130320   2.865   0.880   4.093 -0.5680  0.1891 -0.3580
 2943TIP3    H230321   2.778   0.968   4.006 -1.5353 -0.0358  0.3699
 2944TIP3   OH230322   1.850   6.402  15.913 -0.0428 -0.1954  0.9528
 2944TIP3    H130323   1.758   6.407  15.940 -0.5113 -1.1919 -0.4275
 2944TIP3    H230324   1.892   6.348  15.981 -0.5331  0.0405  1.4419
 2945TIP3   OH230325   4.502   3.926  13.789  0.2990  0.0557  0.2223
 2945TIP3    H130326   4.456   3.846  13.764  0.0006  0.1910  0.3256
 2945TIP3    H230327   4.458   3.995  13.739 -0.3237  0.3328  1.1201
 2946TIP3   OH230328   4.278   2.837  13.742 -0.1177  0.2934 -0.5372
 2946TIP3    H130329   4.284   2.741  13.745  1.4531  0.3355 -1.6162
 2946TIP3    H230330   4.297   2.859  13.650 -1.0818  1.6043 -0.4340
 2947TIP3   OH230331   1.035   4.752  11.925 -0.3985  0.3208 -0.0994
 2947TIP3    H130332   1.075   4.665  11.928  1.6355  1.2421  0.8744
 2947TIP3    H230333   1.036   4.775  11.832  1.5993  0.3991 -0.0890
 2948TIP3   OH230334   5.188   6.731  11.241 -0.2903 -0.0361  0.1001
 2948TIP3    H130335   5.161   6.674  11.169 -0.2855 -0.3264  0.3242
 2948TIP3    H230336   5.111   6.737  11.297  0.3086 -1.4605  1.1208
 2949TIP3   OH230337   2.198   5.360   5.959 -0.2408  0.4119  0.1616
 2949TIP3    H130338   2.191   5.375   6.053 -2.1303  2.0137 -0.1917
 2949TIP3    H230339   2.273   5.413   5.931  0.4090 -0.1783  0.7738
 2950TIP3   OH230340   0.335   0.322  16.793 -0.0836 -0.1450  0.3683
 2950TIP3    H130341   0.364   0.318  16.702 -1.1546  0.8207 -0.0259
 2950TIP3    H230342   0.403   0.372  16.838  0.7475 -1.1333  0.2295
 2951TIP3   OH230343   3.227   5.818  10.646 -0.0739 -0.4532  0.0565
 2951TIP3    H130344   3.189   5.901  10.617  0.5959  0.3456  1.3848
 2951TIP3    H230345   3.315   5.841  10.675 -0.5189 -1.2752  2.1963
 2952TIP3   OH230346   4.592   2.205   3.950  0.3109  0.3202  0.0713
 2952TIP3    H130347   4.591   2.288   3.903  2.5230  1.1036  1.3194
 2952TIP3    H230348   4.667   2.158   3.912 -0.4744 -0.8002 -0.1093
 2953TIP3   OH230349   0.420   1.832  16.231  0.6445 -0.2322 -0.3265
 2953TIP3    H130350   0.469   1.908  16.264  0.3287 -0.0294 -0.3263
 2953TIP3    H230351   0.466   1.757  16.269  0.9103 -0.0401 -0.2585
 2954TIP3   OH230352   2.823   2.802   5.751  0.2274  0.1258  0.4009
 2954TIP3    H130353   2.795   2.856   5.825  1.6350  1.5606 -0.0585
 2954TIP3    H230354   2.760   2.822   5.682  0.0699  0.3133  0.5967
 2955TIP3   OH230355   6.441   3.845   2.867  0.9444 -0.2387  0.7960
 2955TIP3    H130356   6.371   3.898   2.905 -0.9770 -2.7312  0.8583
 2955TIP3    H230357   6.423   3.845   2.773  2.5326  1.4090  0.4551
 2956TIP3   OH230358   5.952   3.581   4.373  0.1600 -0.2649  0.1539
 2956TIP3    H130359   5.917   3.543   4.454  0.3901 -0.9948 -0.0766
 2956TIP3    H230360   5.907   3.664   4.363  0.8487  0.3071  1.5658
 2957TIP3   OH230361   2.968   3.036   3.852  0.1757  0.0462 -0.2295
 2957TIP3    H130362   2.932   3.067   3.935  1.1623  2.1799 -0.5672
 2957TIP3    H230363   2.931   3.095   3.787  0.9740 -0.3833 -1.0851
 2958TIP3   OH230364   0.256   1.871   2.199  0.0735 -0.6993  0.4197
 2958TIP3    H130365   0.199   1.794   2.209 -1.5732  0.4903  0.3488
 2958TIP3    H230366   0.251   1.892   2.106  1.6275 -1.3211  0.1791
 2959TIP3   OH230367   5.181   4.495  14.227  0.2961 -0.3676  0.6578
 2959TIP3    H130368   5.119   4.510  14.299  1.0040 -1.3521  1.5058
 2959TIP3    H230369   5.259   4.460  14.271  0.6843 -1.1092 -0.6152
 2960TIP3   OH230370   5.080   4.422   5.056 -0.1060  0.2125 -0.1298
 2960TIP3    H130371   5.022   4.436   4.980 -1.4892 -0.6869  0.7393
 2960TIP3    H230372   5.064   4.331   5.081 -0.8569  0.9751  2.2217
 2961TIP3   OH230373   1.967   0.286   3.584  0.2859  0.3642 -0.6025
 2961TIP3    H130374   1.877   0.290   3.551 -0.3243 -0.1359  0.9562
 2961TIP3    H230375   1.957   0.278   3.678  1.9729 -0.1255 -0.4575
 2962TIP3   OH230376   5.780   3.530  11.664 -0.0015  0.3642  0.3928
 2962TIP3    H130377   5.716   3.532  11.734 -0.3427  1.7230  0.0676
 2962TIP3    H230378   5.838   3.604  11.682  1.8301 -1.1809  0.9959
 2963TIP3   OH230379   3.509   5.128   3.190 -0.2421 -0.3142  0.1684
 2963TIP3    H130380   3.524   5.189   3.117  0.2694  0.1053  0.6225
 2963TIP3    H230381   3.569   5.055   3.172 -0.2486 -0.2975  0.0759
 2964TIP3   OH230382   6.157   2.061   4.354 -0.1078 -0.2836  0.6702
 2964TIP3    H130383   6.217   1.991   4.382  1.9315  1.2664  0.2740
 2964TIP3    H230384   6.136   2.107   4.435  1.8781  1.1775  0.3867
 2965TIP3   OH230385   4.418   4.369   2.352  0.1920 -0.6710 -0.2069
 2965TIP3    H130386   4.438   4.432   2.421 -1.8545  0.0997 -0.2643
 2965TIP3    H230387   4.432   4.284   2.393  2.4451 -0.1941  0.0437
 2966TIP3   OH230388   2.203   3.813   5.837 -0.5804 -0.1896  0.4263
 2966TIP3    H130389   2.225   3.819   5.929 -0.7100 -0.2938  0.4653
 2966TIP3    H230390   2.117   3.855   5.830 -1.4488 -1.9106  0.6773
 2967TIP3   OH230391   5.070   6.168  15.365 -0.0849 -0.3069  0.1023
 2967TIP3    H130392   5.163   6.189  15.378 -0.1866  0.2332 -0.0279
 2967TIP3    H230393   5.065   6.140  15.273  0.1202 -1.2999  0.3871
 2968TIP3   OH230394   2.585   1.191  11.872  0.0581  0.1084  0.5237
 2968TIP3    H130395   2.570   1.114  11.817 -0.2049  0.0947  0.6119
 2968TIP3    H230396   2.674   1.180  11.904  0.8256  0.9745 -1.2420
 2969TIP3   OH230397   0.541   5.109  12.254  0.0078  0.5158  0.4633
 2969TIP3    H130398   0.523   5.016  12.240 -1.4495  0.7880  0.5408
 2969TIP3    H230399   0.489   5.133  12.330 -2.1937  2.1565 -1.5028
 2970TIP3   OH230400   6.252   0.952  13.454 -0.5181 -0.2154  0.7632
 2970TIP3    H130401   6.244   1.013  13.380 -0.5452  2.7252  3.1014
 2970TIP3    H230402   6.334   0.905  13.437  0.5439  1.8884 -0.0952
 2971TIP3   OH230403   1.082   2.196  14.479 -0.0468  0.3099  0.3004
 2971TIP3    H130404   1.037   2.140  14.416  0.2384 -1.0209  1.2552
 2971TIP3    H230405   1.174   2.191  14.455 -0.0674  0.7105  0.1319
 2972TIP3   OH230406   4.291   2.452  11.502 -0.4192 -0.0595  0.2533
 2972TIP3    H130407   4.251   2.534  11.475 -1.6247 -0.1757  1.6381
 2972TIP3    H230408   4.235   2.384  11.463 -0.2610 -0.2223  0.3044
 2973TIP3   OH230409   4.682   6.069   6.036  0.3247  0.2038 -0.7198
 2973TIP3    H130410   4.680   6.069   5.940  0.1989 -0.0442 -0.7163
 2973TIP3    H230411   4.591   6.056   6.062  0.4365 -0.2605 -0.5636
 2974TIP3   OH230412   5.444   5.144  16.968 -0.2546  0.6337  0.0170
 2974TIP3    H130413   5.508   5.171  16.902 -1.2501  0.9667 -0.8157
 2974TIP3    H230414   5.390   5.222  16.983 -1.3250 -0.0401 -0.2849
 2975TIP3   OH230415   2.863   3.954  10.624  0.0777 -0.0953  0.6269
 2975TIP3    H130416   2.892   4.039  10.659  1.1993 -0.1210 -0.2084
 2975TIP3    H230417   2.780   3.973  10.581  0.0892  0.4949  0.8570
 2976TIP3   OH230418   1.613   6.682  13.725  0.1607 -0.0311  0.0506
 2976TIP3    H130419   1.613   6.775  13.745  0.6208  0.3997 -1.8977
 2976TIP3    H230420   1.526   6.652  13.750 -0.0068  0.9224  0.6190
 2977TIP3   OH230421   3.804   1.321  11.549 -0.1346 -0.2606 -0.0685
 2977TIP3    H130422   3.828   1.408  11.518 -1.0811  0.5729  1.4360
 2977TIP3    H230423   3.885   1.270  11.544  0.7084  1.0372  0.1107
 2978TIP3   OH230424   6.429   4.269  16.410  0.3539 -0.4507 -0.0566
 2978TIP3    H130425   6.520   4.301  16.407  0.5611 -1.0588 -0.2237
 2978TIP3    H230426   6.389   4.320  16.481  1.0882 -0.8626  0.6670
 2979TIP3   OH230427   5.770   6.623  16.806 -0.6627  0.2002  0.0996
 2979TIP3    H130428   5.694   6.569  16.781 -1.0536  1.3813 -1.3674
 2979TIP3    H230429   5.733   6.690  16.863 -0.8123  0.9988 -0.9151
 2980TIP3   OH230430   5.480   5.412  16.329  0.2511  0.2498 -0.2789
 2980TIP3    H130431   5.499   5.336  16.275 -0.5215  2.5426 -3.9512
 2980TIP3    H230432   5.399   5.390  16.374  0.2514 -1.2349 -0.9827
 2981TIP3   OH230433   3.371   2.518   5.642 -0.2481  0.0278  0.3148
 2981TIP3    H130434   3.313   2.569   5.699  0.2307 -1.7203  2.4520
 2981TIP3    H230435   3.312   2.469   5.585 -0.7761  0.8658  0.1330
 2982TIP3   OH230436   1.405   4.341   1.856  0.8987 -0.2033  0.2968
 2982TIP3    H130437   1.359   4.292   1.787 -0.4289 -0.5679  1.4157
 2982TIP3    H230438   1.408   4.431   1.824  0.6365 -0.4479 -0.4217
 2983TIP3   OH230439   1.143   6.462  17.226 -0.0702  0.3640 -0.4843
 2983TIP3    H130440   1.049   6.475  17.216 -0.0568 -0.2221 -1.4286
 2983TIP3    H230441   1.175   6.447  17.137  1.0628  1.4583 -0.2688
 2984TIP3   OH230442   0.123   3.780   4.132 -0.3354 -0.1020  0.6342
 2984TIP3    H130443   0.163   3.853   4.084  1.7420 -1.2182  0.6150
 2984TIP3    H230444   0.137   3.802   4.224 -1.7677  0.6301  0.6925
 2985TIP3   OH230445   6.716   4.643  15.887  0.0906 -0.0739 -0.7608
 2985TIP3    H130446   6.758   4.666  15.970  0.5764 -0.7509 -0.8172
 2985TIP3    H230447   6.759   4.698  15.822 -0.0346  0.1910 -0.6206
 2986TIP3   OH230448   4.490   4.413  11.773 -0.0270  0.3579 -0.0387
 2986TIP3    H130449   4.539   4.495  11.777 -0.1450  0.4304 -0.0757
 2986TIP3    H230450   4.400   4.438  11.789 -0.2278  0.3963 -1.2126
 2987TIP3   OH230451   5.799   4.820   4.282 -0.1661  0.2746  0.5397
 2987TIP3    H130452   5.882   4.835   4.326 -0.0184  0.1976  0.2926
 2987TIP3    H230453   5.817   4.840   4.190 -1.0435  2.6154  0.8396
 2988TIP3   OH230454   5.089   3.702   0.743  0.5526  0.2256  0.1083
 2988TIP3    H130455   5.151   3.639   0.706  1.3359 -0.5371  2.6803
 2988TIP3    H230456   5.138   3.749   0.810 -1.0181  1.1669  0.6271
 2989TIP3   OH230457   2.545   5.288   3.612  0.3807  0.0239 -0.3092
 2989TIP3    H130458   2.563   5.379   3.585  1.9445 -0.1031  0.2592
 2989TIP3    H230459   2.529   5.242   3.530  0.9109  0.5388 -0.7102
 2990TIP3   OH230460   6.805   2.371   1.775 -0.3753 -0.3706 -0.1689
 2990TIP3    H130461   6.879   2.431   1.769 -1.3596  0.8302 -0.5653
 2990TIP3    H230462   6.790   2.362   1.869 -0.0099 -0.2726 -0.0980
 2991TIP3   OH230463   5.596   3.443  10.849  0.0806  0.2482 -0.4792
 2991TIP3    H130464   5.670   3.492  10.884  1.0176 -1.5000  0.0367
 2991TIP3    H230465   5.522   3.504  10.854  1.3123  1.7494 -0.2975
 2992TIP3   OH230466   1.376   0.978   0.500  0.1216  0.4785 -0.0741
 2992TIP3    H130467   1.307   0.984   0.434 -0.2968  0.2703  0.3446
 2992TIP3    H230468   1.335   1.007   0.581  0.2682 -0.5502  0.3691
 2993TIP3   OH230469   0.091   0.126   5.633  0.2720 -0.1014  0.2738
 2993TIP3    H130470   0.032   0.140   5.707 -2.7917 -1.0990 -1.8649
 2993TIP3    H230471   0.105   0.213   5.596  0.5329  0.1958  1.0577
 2994TIP3   OH230472   6.639   3.316   4.438  0.4449  0.2615 -0.2767
 2994TIP3    H130473   6.665   3.238   4.488  0.7944  0.6861  0.2032
 2994TIP3    H230474   6.543   3.315   4.443  0.4083 -0.6331 -1.0322
 2995TIP3   OH230475   1.480   4.365   0.910 -0.3041  0.5782 -0.1435
 2995TIP3    H130476   1.409   4.309   0.880  0.1534  0.1851 -0.4994
 2995TIP3    H230477   1.502   4.333   0.997 -0.7040  0.8404  0.0578
 2996TIP3   OH230478   4.388   3.577   5.520  0.5875 -0.3996 -0.1809
 2996TIP3    H130479   4.453   3.603   5.584 -0.0627  1.3747 -0.1938
 2996TIP3    H230480   4.337   3.508   5.563  0.0874  0.8427  1.2549
 2997TIP3   OH230481   5.467   0.090   3.829  0.0973  0.1566 -0.1984
 2997TIP3    H130482   5.531   0.025   3.858  0.7337  1.6630  1.9041
 2997TIP3    H230483   5.510   0.138   3.759  1.1115  0.8790  0.9152
 2998TIP3   OH230484   4.881   4.825  14.043 -0.0385 -0.3286 -0.8338
 2998TIP3    H130485   4.850   4.781  14.122 -0.2750  0.5769 -0.4061
 2998TIP3    H230486   4.957   4.775  14.015  0.9113  0.1686  0.7867
 2999TIP3   OH230487   3.280   5.693   2.991  0.3185  0.4220  0.3327
 2999TIP3    H130488   3.333   5.773   2.985  0.9702 -0.0579 -0.4883
 2999TIP3    H230489   3.280   5.671   3.084  0.1920  1.3351  0.5545
 3000TIP3   OH230490   0.469   2.232   6.348  0.2310 -0.1546  0.0587
 3000TIP3    H130491   0.423   2.316   6.358 -0.0060 -0.2180 -0.4732
 3000TIP3    H230492   0.561   2.253   6.364  0.0489  0.0084  0.9638
 3001TIP3   OH230493   4.886   0.114   0.440 -0.0019  0.8334  0.4011
 3001TIP3    H130494   4.955   0.073   0.493 -0.9641 -0.5886  0.5883
 3001TIP3    H230495   4.862   0.192   0.489  0.4499  0.5394  1.1037
 3002TIP3   OH230496   3.204   1.303  12.648 -0.0090 -0.1177  0.3819
 3002TIP3    H130497   3.207   1.318  12.743 -0.2660  0.2610  0.3315
 3002TIP3    H230498   3.144   1.229  12.638 -0.9319  0.6165  0.4294
 3003TIP3   OH230499   4.260   2.215   5.678 -0.1118 -0.5616  0.2909
 3003TIP3    H130500   4.181   2.267   5.668 -0.4349 -0.9176  0.9727
 3003TIP3    H230501   4.331   2.274   5.655 -0.5809 -0.2849 -0.4684
 3004TIP3   OH230502   3.461   6.132   2.031  0.4320  0.5220 -0.0310
 3004TIP3    H130503   3.456   6.216   2.078 -1.0943 -0.9141  2.5045
 3004TIP3    H230504   3.524   6.080   2.080  1.5875  0.2395 -1.7629
 3005TIP3   OH230505   5.662   4.471   5.603  0.7709 -0.4411 -0.2357
 3005TIP3    H130506   5.743   4.444   5.560  0.6999  0.0313 -0.6776
 3005TIP3    H230507   5.596   4.471   5.533  0.5084 -0.3099  0.0101
 3006TIP3   OH230508   4.714   1.479  13.292 -0.0378 -0.1744  1.0773
 3006TIP3    H130509   4.622   1.484  13.266  0.7615 -0.8160 -1.9950
 3006TIP3    H230510   4.755   1.552  13.246  1.6365 -2.0451 -0.4447
 3007TIP3   OH230511   5.820   2.866   3.295 -0.0073 -0.1331 -0.3185
 3007TIP3    H130512   5.817   2.934   3.362 -2.0275  0.3472 -0.8528
 3007TIP3    H230513   5.748   2.807   3.316  0.6104 -1.1190 -0.8982
 3008TIP3   OH230514   3.970   0.907  13.970  0.2745  0.1293  0.3946
 3008TIP3    H130515   4.000   0.940  14.054 -1.2744  0.0732  0.9892
 3008TIP3    H230516   3.962   0.812  13.983 -0.9888  0.2489  0.5137
 3009TIP3   OH230517   2.083   3.192   4.449 -0.6459 -0.1442  0.1681
 3009TIP3    H130518   2.064   3.216   4.358  0.2895 -0.1709 -0.0385
 3009TIP3    H230519   2.082   3.096   4.449  1.1341 -0.1798 -0.2120
 3010TIP3   OH230520   6.348   2.908   4.602  0.1384  0.1651  0.3516
 3010TIP3    H130521   6.330   2.824   4.645  1.0192  0.8480  2.0973
 3010TIP3    H230522   6.270   2.961   4.619  0.0355  0.0604  0.1976
 3011TIP3   OH230523   4.235   6.577  16.824 -0.0923  0.3845 -0.1366
 3011TIP3    H130524   4.233   6.498  16.878  0.7987  1.3258  1.3070
 3011TIP3    H230525   4.194   6.551  16.742 -0.2997 -1.4310  0.5215
 3012TIP3   OH230526   1.575   3.499   0.312 -0.4394  0.4417 -0.2645
 3012TIP3    H130527   1.609   3.545   0.388 -1.0037 -0.2279  0.4006
 3012TIP3    H230528   1.481   3.513   0.315 -0.6930 -1.3164  0.3308
 3013TIP3   OH230529   6.795   5.105  14.385  0.4405 -0.0827 -0.6338
 3013TIP3    H130530   6.797   5.173  14.317  0.2554  0.9866  0.4011
 3013TIP3    H230531   6.778   5.154  14.466 -1.9425 -1.5913 -0.1694
 3014TIP3   OH230532   2.254   0.571  12.064  0.0525  0.1828 -0.2368
 3014TIP3    H130533   2.305   0.621  12.129  1.9044  0.8916 -2.1829
 3014TIP3    H230534   2.312   0.499  12.039 -0.2861  0.4270 -1.7572
 3015TIP3   OH230535   3.432   1.190   5.934  0.3173 -0.0716 -0.6115
 3015TIP3    H130536   3.382   1.110   5.922  0.6225 -0.3225 -0.2414
 3015TIP3    H230537   3.366   1.260   5.935 -0.2010 -0.5409  1.3945
 3016TIP3   OH230538   4.043   6.097  16.423  0.2576 -0.2505 -0.6670
 3016TIP3    H130539   4.050   6.115  16.329 -0.2038  0.1238 -0.6240
 3016TIP3    H230540   4.065   6.004  16.430  1.5770  0.0197 -0.9916
 3017TIP3   OH230541   4.903   4.893  13.653  0.8366 -0.5914 -0.5599
 3017TIP3    H130542   4.850   4.854  13.722  0.6878 -0.9609 -0.8844
 3017TIP3    H230543   4.941   4.819  13.606 -1.0561 -0.4433 -2.4570
 3018TIP3   OH230544   2.514   0.300  13.721 -0.2387  0.4125 -0.3110
 3018TIP3    H130545   2.500   0.215  13.680 -1.1190  0.3884  0.0311
 3018TIP3    H230546   2.427   0.338  13.728 -0.0121  0.7620  0.7840
 3019TIP3   OH230547   6.311   1.669   0.847  0.3247 -0.2297  0.3518
 3019TIP3    H130548   6.303   1.709   0.934 -0.1507  1.0138 -0.2573
 3019TIP3    H230549   6.401   1.638   0.843  0.2551 -0.6023  1.4142
 3020TIP3   OH230550   5.708   5.321   4.488 -0.0324  0.4107 -0.4751
 3020TIP3    H130551   5.730   5.235   4.523  0.4068  0.6925 -0.0545
 3020TIP3    H230552   5.767   5.332   4.413 -0.0803  0.3503 -0.5216
 3021TIP3   OH230553   2.466   0.506   0.815 -0.0544 -0.4142 -0.5187
 3021TIP3    H130554   2.402   0.458   0.867  0.0349  0.8485  0.7659
 3021TIP3    H230555   2.518   0.555   0.879  0.0117  1.2166 -1.7979
 3022TIP3   OH230556   3.698   1.925   3.661 -0.1394 -0.4099  0.0583
 3022TIP3    H130557   3.615   1.876   3.659 -0.3307 -0.3055  3.1143
 3022TIP3    H230558   3.762   1.862   3.693  0.4733  0.1874  0.0147
 3023TIP3   OH230559   4.162   4.729   6.415  0.1987  0.1098 -0.4422
 3023TIP3    H130560   4.253   4.703   6.401  0.5470  0.8505  0.4056
 3023TIP3    H230561   4.163   4.824   6.403 -0.2847  0.2314  0.5018
 3024TIP3   OH230562   0.659   6.665   6.403  0.1289 -0.2301 -0.0734
 3024TIP3    H130563   0.743   6.709   6.386  0.5286 -0.4465  1.3308
 3024TIP3    H230564   0.637   6.691   6.492 -0.6086 -1.3181  0.0552
 3025TIP3   OH230565   2.148   2.099  11.557 -0.4911  0.2406  0.1434
 3025TIP3    H130566   2.122   2.018  11.513 -1.2157  0.9904 -0.8277
 3025TIP3    H230567   2.225   2.129  11.508 -0.6723  0.5219  0.0260
 3026TIP3   OH230568   4.895   2.624  15.948  0.0018 -0.0210 -0.1656
 3026TIP3    H130569   4.981   2.663  15.930 -0.6016  1.6167  0.3749
 3026TIP3    H230570   4.912   2.557  16.015  1.4176 -2.3811 -2.8028
 3027TIP3   OH230571   2.364   6.606   5.680 -0.0492 -0.2455 -0.1027
 3027TIP3    H130572   2.350   6.687   5.728  0.3556  0.2762 -0.8673
 3027TIP3    H230573   2.277   6.566   5.675 -0.3373  0.3936 -0.1799
 3028TIP3   OH230574   4.289   5.044  13.232  0.1120  0.2185 -0.0279
 3028TIP3    H130575   4.292   4.955  13.199 -1.2085  0.3318 -0.4953
 3028TIP3    H230576   4.196   5.062  13.243  0.4683  0.7923  2.1242
 3029TIP3   OH230577   5.335   2.235  14.887 -0.0703 -0.1067  0.5960
 3029TIP3    H130578   5.373   2.150  14.909  0.2893 -0.2215 -0.4468
 3029TIP3    H230579   5.381   2.262  14.807 -0.4650  0.8796  0.6967
 3030TIP3   OH230580   1.653   4.644  14.115  0.2908  0.1483  0.3568
 3030TIP3    H130581   1.736   4.653  14.163  0.1025 -0.8953  0.9058
 3030TIP3    H230582   1.669   4.685  14.030  0.0221  3.8512  1.9977
 3031TIP3   OH230583   4.107   5.340  17.277  0.3240 -0.0178 -0.1444
 3031TIP3    H130584   4.086   5.361  17.368 -0.5023 -1.6762  0.0550
 3031TIP3    H230585   4.083   5.419  17.228 -2.0527 -0.2070  0.6850
 3032TIP3   OH230586   2.855   2.741   5.266 -0.3908  0.4750  0.4117
 3032TIP3    H130587   2.794   2.667   5.268  1.0342 -0.7106  2.9817
 3032TIP3    H230588   2.934   2.705   5.224  1.2897 -0.3479  4.0963
 3033TIP3   OH230589   4.880   5.923  17.212  0.3584 -0.0584 -0.0054
 3033TIP3    H130590   4.818   5.905  17.141  0.4015 -2.0213  0.4199
 3033TIP3    H230591   4.959   5.955  17.167  0.0685 -0.4160 -0.7823
 3034TIP3   OH230592   5.838   2.564   0.185  0.2321  0.4356 -0.2099
 3034TIP3    H130593   5.781   2.487   0.180  0.4322  0.2480  0.3969
 3034TIP3    H230594   5.926   2.529   0.197  0.3392  0.7530 -0.0516
 3035TIP3   OH230595   4.173   6.700  13.332 -0.5814 -0.5390 -0.3447
 3035TIP3    H130596   4.267   6.691  13.344  0.1123  0.7813 -3.9493
 3035TIP3    H230597   4.134   6.643  13.398  2.7271 -1.4147  0.9484
 3036TIP3   OH230598   0.408   2.954   4.698  0.3548  0.2320 -0.0413
 3036TIP3    H130599   0.432   2.976   4.608  2.2620  0.9382  0.5956
 3036TIP3    H230600   0.421   2.859   4.704  0.8894  0.2840 -0.3376
 3037TIP3   OH230601   2.149   6.496  12.818 -0.0161 -0.3925 -0.7884
 3037TIP3    H130602   2.062   6.465  12.845  0.3285 -0.1026  0.6780
 3037TIP3    H230603   2.210   6.439  12.863  0.5746  0.0320 -1.0519
 3038TIP3   OH230604   5.508   6.168  15.076 -0.0132  0.8040 -0.5641
 3038TIP3    H130605   5.584   6.163  15.018 -0.4746 -0.5320 -1.0790
 3038TIP3    H230606   5.544   6.201  15.159  0.9264  1.2591 -1.1370
 3039TIP3   OH230607   5.007   1.111   5.102 -0.1724 -0.3701  0.2674
 3039TIP3    H130608   4.946   1.140   5.034 -0.8070 -0.4707  0.7831
 3039TIP3    H230609   5.079   1.071   5.054 -0.7685 -0.7404 -0.3398
 3040TIP3   OH230610   4.872   1.061   0.920  0.4376 -0.2811 -0.2684
 3040TIP3    H130611   4.799   1.096   0.972  0.9746  0.1055  0.2169
 3040TIP3    H230612   4.949   1.109   0.950  0.7558 -0.0566 -1.4239
 3041TIP3   OH230613   4.659   2.594   2.121 -0.4439  0.2886 -0.4876
 3041TIP3    H130614   4.706   2.546   2.054  0.6523  1.4690 -0.5665
 3041TIP3    H230615   4.721   2.603   2.193 -0.8836  0.9569 -0.1831
 3042TIP3   OH230616   6.330   4.767   1.170  0.5041  0.0674  0.0155
 3042TIP3    H130617   6.403   4.732   1.222  0.3427  0.4821  0.5222
 3042TIP3    H230618   6.354   4.858   1.155  1.0315 -0.3079 -1.4951
 3043TIP3   OH230619   5.687   5.992   5.066  0.3841  0.3975  0.2849
 3043TIP3    H130620   5.607   6.019   5.112 -0.6868 -1.0335 -0.6798
 3043TIP3    H230621   5.746   5.964   5.135  0.2327  1.8896  1.0429
 3044TIP3   OH230622   2.582   0.015   5.832  0.1089 -0.0383 -0.0739
 3044TIP3    H130623   2.595  -0.034   5.751  0.3409  0.7210 -0.5094
 3044TIP3    H230624   2.491   0.045   5.827  1.0417  2.7374 -1.6259
 3045TIP3   OH230625   1.324   2.981   0.000  0.0642  0.0938 -0.5206
 3045TIP3    H130626   1.237   2.961   0.034  0.1864  0.9275  0.3191
 3045TIP3    H230627   1.308   3.031  -0.080 -0.2305  0.1659 -0.4164
 3046TIP3   OH230628   2.971   1.072  14.489 -0.6091  0.4945 -0.0359
 3046TIP3    H130629   2.918   1.130  14.435  0.4962  2.0446  0.5063
 3046TIP3    H230630   2.968   1.111  14.576 -0.2840 -0.5664  0.4599
 3047TIP3   OH230631   3.361   1.748   2.486  0.2278  0.0719  0.2449
 3047TIP3    H130632   3.305   1.824   2.470 -0.5200 -0.2879  1.1320
 3047TIP3    H230633   3.449   1.779   2.466 -0.1180  1.0737  0.2446
 3048TIP3   OH230634   4.737   3.644   2.051 -0.0196  0.0502 -0.2476
 3048TIP3    H130635   4.682   3.571   2.021 -0.5961 -0.2501  1.4681
 3048TIP3    H230636   4.751   3.698   1.973 -0.1047 -1.5684 -1.3944
 3049TIP3   OH230637   3.647   6.113  16.246  0.3983 -0.4825 -0.0473
 3049TIP3    H130638   3.671   6.038  16.301  4.0380  0.0393 -0.8340
 3049TIP3    H230639   3.644   6.077  16.157 -0.9488 -0.3294 -0.0734
 3050TIP3   OH230640   4.643   2.254  15.620 -0.3631 -0.0104 -0.1163
 3050TIP3    H130641   4.616   2.237  15.529  0.6838 -0.7750 -0.2950
 3050TIP3    H230642   4.734   2.285  15.613 -0.4158  0.3332  0.6411
 3051TIP3   OH230643   0.114   5.125  16.996  0.2480 -0.3140 -1.1632
 3051TIP3    H130644   0.078   5.198  17.044 -0.6927 -0.7017 -1.2735
 3051TIP3    H230645   0.186   5.093  17.051 -0.8147 -0.7619 -0.0156
 3052TIP3   OH230646   2.605   5.124  14.873 -0.1559 -0.3281 -0.2079
 3052TIP3    H130647   2.648   5.186  14.814 -1.3586  0.5485 -0.1662
 3052TIP3    H230648   2.617   5.163  14.960  2.3580 -2.0303  0.2824
 3053TIP3   OH230649   4.624   6.191   0.960 -0.3430 -0.2808 -0.4068
 3053TIP3    H130650   4.719   6.192   0.975 -0.4895 -1.6350  0.7472
 3053TIP3    H230651   4.614   6.172   0.867  0.5350  1.6336 -0.9062
 3054TIP3   OH230652   5.533   2.597  13.590 -0.1685  0.4917  0.2175
 3054TIP3    H130653   5.509   2.511  13.554  1.1743 -0.8569  2.3885
 3054TIP3    H230654   5.456   2.624  13.640 -0.7335  0.7179 -0.7764
 3055TIP3   OH230655   1.224   2.425  12.159  0.5169 -0.0729  0.1285
 3055TIP3    H130656   1.289   2.434  12.090 -0.4899  1.5580 -0.6348
 3055TIP3    H230657   1.216   2.330  12.172  0.4616 -0.4117 -2.2099
 3056TIP3   OH230658   1.460   6.556   1.212 -0.0848  0.2992 -0.0390
 3056TIP3    H130659   1.502   6.597   1.136 -0.0690  0.8326  0.2537
 3056TIP3    H230660   1.511   6.477   1.227  2.4053  2.1950  1.8392
 3057TIP3   OH230661   1.736   4.753   1.007  0.4175  0.1013  0.0678
 3057TIP3    H130662   1.819   4.801   1.004 -0.4590  1.6769  0.4124
 3057TIP3    H230663   1.726   4.726   1.098 -0.0760  1.0753  0.3123
 3058TIP3   OH230664   1.695   3.120   5.502  0.4429  0.1909 -0.2297
 3058TIP3    H130665   1.698   3.175   5.580  0.3399  0.1771 -0.2169
 3058TIP3    H230666   1.604   3.093   5.494  0.4978  0.0043 -0.2232
 3059TIP3   OH230667   2.810   3.711  13.077 -0.1177  0.0716 -0.1105
 3059TIP3    H130668   2.827   3.685  13.167 -1.4563  1.2025  0.5041
 3059TIP3    H230669   2.816   3.807  13.078  1.5321  0.0056 -1.5978
 3060TIP3   OH230670   0.287   3.175  14.669 -0.1344  0.1177 -0.3563
 3060TIP3    H130671   0.240   3.157  14.588  1.0280 -1.2206 -0.7500
 3060TIP3    H230672   0.379   3.181  14.643  0.0177  1.8699  0.5312
 3061TIP3   OH230673   0.850   1.005   4.201 -0.3316 -0.5696  0.0982
 3061TIP3    H130674   0.932   1.035   4.161 -0.3627 -0.5852  0.0226
 3061TIP3    H230675   0.782   1.052   4.154 -0.2549  1.4121  1.9005
 3062TIP3   OH230676   0.413   3.560   0.646 -0.0916  0.1368 -0.1219
 3062TIP3    H130677   0.507   3.577   0.648  0.0489 -0.5178 -1.0189
 3062TIP3    H230678   0.398   3.502   0.720  0.1431  0.5890  0.2818
 3063TIP3   OH230679   1.590   3.288  13.759  1.0044 -0.8216 -0.2980
 3063TIP3    H130680   1.520   3.300  13.823  0.9731 -0.2481 -0.4333
 3063TIP3    H230681   1.564   3.212  13.708 -0.4354  0.4594 -1.5249
 3064TIP3   OH230682   3.381   3.189  16.115 -0.4045  0.2569  0.1141
 3064TIP3    H130683   3.465   3.224  16.084 -0.7384  1.6518  0.7118
 3064TIP3    H230684   3.334   3.166  16.035  0.3453 -0.0463 -0.2457
 3065TIP3   OH230685   0.366   3.194  12.272  0.0798 -0.8534 -0.2331
 3065TIP3    H130686   0.344   3.243  12.193 -0.1324 -2.6355 -1.3109
 3065TIP3    H230687   0.454   3.222  12.294 -0.1261  0.1768 -0.6993
 3066TIP3   OH230688   4.099   4.152  17.109 -0.2618 -0.0036 -0.4348
 3066TIP3    H130689   4.072   4.238  17.077 -1.1350 -0.3376 -0.6172
 3066TIP3    H230690   4.134   4.169  17.197 -0.1989  0.5678 -0.5698
 3067TIP3   OH230691   0.028   0.231  16.619 -0.9267  0.0783  0.0117
 3067TIP3    H130692   0.003   0.199  16.706  0.1178  1.3134  0.7919
 3067TIP3    H230693   0.116   0.265  16.631 -1.5021  2.0108 -1.0882
 3068TIP3   OH230694   5.037   1.200   0.257 -0.1653 -0.0964  0.2026
 3068TIP3    H130695   5.033   1.109   0.286 -1.4565  0.0758  0.6014
 3068TIP3    H230696   5.108   1.239   0.308 -0.1515 -0.6766  0.6246
 3069TIP3   OH230697   0.152   5.254   4.212  0.3747  0.2571  0.4041
 3069TIP3    H130698   0.232   5.251   4.265 -0.3012 -0.9304  1.3852
 3069TIP3    H230699   0.092   5.309   4.262  0.7230  1.5460 -0.5658
 3070TIP3   OH230700   5.332   0.389   4.405  0.1547 -0.5272 -0.7649
 3070TIP3    H130701   5.331   0.358   4.315  1.7843 -0.4114 -0.8293
 3070TIP3    H230702   5.245   0.429   4.417 -1.0079 -2.7606 -1.4715
 3071TIP3   OH230703   5.961   6.766   5.272 -0.3400 -0.2259  0.0026
 3071TIP3    H130704   5.874   6.793   5.244  0.4106  1.7474 -0.5387
 3071TIP3    H230705   6.020   6.806   5.209  0.9613 -1.6011  0.3255
 3072TIP3   OH230706   5.135   6.404  16.768 -0.3015 -0.0518 -0.2113
 3072TIP3    H130707   5.078   6.456  16.711 -1.2938 -0.5942  0.2544
 3072TIP3    H230708   5.213   6.387  16.716 -0.5800  0.6847 -0.8819
 3073TIP3   OH230709   2.307   2.916   1.806 -0.0581 -0.5449  0.1057
 3073TIP3    H130710   2.296   2.856   1.733 -2.7476 -1.0389  0.8756
 3073TIP3    H230711   2.339   2.997   1.766 -0.0714 -1.2948 -1.4307
 3074TIP3   OH230712   1.332   6.624  14.879  0.6216 -0.3075 -0.5005
 3074TIP3    H130713   1.316   6.714  14.908 -0.9323 -0.4116 -1.0204
 3074TIP3    H230714   1.248   6.579  14.891  1.6816 -2.0118  0.8553
 3075TIP3   OH230715   6.325   0.389  15.772 -0.4179  0.3717 -0.0259
 3075TIP3    H130716   6.402   0.403  15.717 -1.1947  0.9577 -0.9652
 3075TIP3    H230717   6.360   0.343  15.849  0.6097 -0.8163 -1.1692
 3076TIP3   OH230718   5.992   3.521   0.427 -0.1594 -0.2362  0.0155
 3076TIP3    H130719   6.026   3.470   0.501 -0.8025  0.5469  0.8633
 3076TIP3    H230720   6.070   3.558   0.385  0.2934 -1.5801 -0.3880
 3077TIP3   OH230721   3.897   3.474  15.673  0.0484  0.1338  0.4705
 3077TIP3    H130722   3.865   3.386  15.689  0.2466  0.0453  0.3838
 3077TIP3    H230723   3.988   3.462  15.645  0.7029  0.4931  2.3914
 3078TIP3   OH230724   1.678   3.630   0.531  0.2710  0.2193 -0.3028
 3078TIP3    H130725   1.738   3.605   0.601 -0.1288 -0.1658 -0.0989
 3078TIP3    H230726   1.659   3.722   0.547 -0.1280  0.0253  0.3162
 3079TIP3   OH230727   4.679   5.555  12.074 -0.4334 -0.3687 -0.3587
 3079TIP3    H130728   4.632   5.622  12.023  1.8291  1.2045 -0.4569
 3079TIP3    H230729   4.683   5.591  12.163  0.8683 -0.3191 -0.4307
 3080TIP3   OH230730   1.332   4.303   4.985  0.2264 -0.1086 -0.8495
 3080TIP3    H130731   1.289   4.221   4.962  1.6078 -1.9706  2.7956
 3080TIP3    H230732   1.424   4.288   4.964  0.1321  1.4689 -2.5064
 3081TIP3   OH230733   5.644   5.712   0.168 -0.0268 -0.6392 -0.0801
 3081TIP3    H130734   5.620   5.624   0.198 -0.0469 -1.4730 -2.4731
 3081TIP3    H230735   5.739   5.709   0.158  0.0246 -0.2405  0.2693
 3082TIP3   OH230736   0.483   6.437   3.945 -0.2033  0.2723 -0.4757
 3082TIP3    H130737   0.504   6.517   3.897 -1.4797 -0.1231 -1.7763
 3082TIP3    H230738   0.558   6.421   4.002  0.4644  1.8772 -0.8953
 3083TIP3   OH230739   5.627   5.781   4.104 -0.3007  0.1652  0.1445
 3083TIP3    H130740   5.602   5.795   4.195 -0.3495 -2.3691  0.5507
 3083TIP3    H230741   5.653   5.868   4.073 -0.2365  1.0528  2.5689
 3084TIP3   OH230742   5.624   2.750   0.100 -0.5355 -0.3912  0.1697
 3084TIP3    H130743   5.661   2.838   0.106 -2.0732  0.2232  1.1013
 3084TIP3    H230744   5.680   2.696   0.155  0.5954 -0.0598 -0.6524
 3085TIP3   OH230745   3.855   2.782   4.626  0.1987  0.1861  0.7891
 3085TIP3    H130746   3.876   2.700   4.670 -2.5649  0.2642  2.3890
 3085TIP3    H230747   3.826   2.840   4.696 -2.8799  0.7976 -0.8919
 3086TIP3   OH230748   2.887   3.242   2.306  0.5475 -0.2658 -0.2783
 3086TIP3    H130749   2.869   3.195   2.225 -1.8323 -0.1920  0.1598
 3086TIP3    H230750   2.962   3.298   2.285  1.1795 -1.6529 -1.8289
 3087TIP3   OH230751   4.967   3.380   5.760 -0.3573 -0.6955  0.5686
 3087TIP3    H130752   4.953   3.409   5.850  1.0932  0.7983  0.3273
 3087TIP3    H230753   5.030   3.308   5.767  0.1767 -0.2119  0.6939
 3088TIP3   OH230754   2.303   0.755  11.258  0.3641 -0.3986 -0.3607
 3088TIP3    H130755   2.352   0.823  11.212  1.5613  0.7835  2.5173
 3088TIP3    H230756   2.341   0.673  11.228  1.7373  0.3736 -0.7477
 3089TIP3   OH230757   2.712   1.989   1.073  0.4971  0.2167  0.1044
 3089TIP3    H130758   2.748   1.950   1.152 -0.1058  0.5215  0.5350
 3089TIP3    H230759   2.770   1.960   1.003  0.1994 -1.2204  0.4493
 3090TIP3   OH230760   4.253   3.416   5.899  0.1344  0.2087 -0.4048
 3090TIP3    H130761   4.288   3.499   5.932  0.8339 -0.7968  1.5032
 3090TIP3    H230762   4.159   3.429   5.896  0.3268  1.4587 -1.2494
 3091TIP3   OH230763   5.901   0.029  13.541  0.0146  0.5261 -0.0878
 3091TIP3    H130764   5.881  -0.009  13.626 -0.6914 -0.5929 -0.7292
 3091TIP3    H230765   5.879   0.121  13.550 -2.9124 -0.1287  0.0896
 3092TIP3   OH230766   5.136   2.238  17.200  0.4889  0.2591  0.6858
 3092TIP3    H130767   5.119   2.162  17.256  0.9871 -0.2030  0.2171
 3092TIP3    H230768   5.051   2.260  17.163  0.7330 -1.5254 -0.9917
 3093TIP3   OH230769   2.942   0.056  12.240 -0.7753  0.1292 -0.0353
 3093TIP3    H130770   2.879   0.026  12.174 -0.9852 -0.0560  0.2488
 3093TIP3    H230771   2.980   0.135  12.203 -1.2127  0.2707 -0.1844
 3094TIP3   OH230772   1.357   0.242   4.027 -0.2987  0.4822 -0.3176
 3094TIP3    H130773   1.322   0.190   4.099  0.1997  0.5706 -0.0086
 3094TIP3    H230774   1.328   0.332   4.045 -0.1548  0.5079 -0.2163
 3095TIP3   OH230775   2.524   4.862  12.431 -0.4323  0.1978 -0.1356
 3095TIP3    H130776   2.596   4.923  12.420  0.8109 -1.0008  1.1089
 3095TIP3    H230777   2.460   4.908  12.485  1.3790 -0.2775  2.4758
 3096TIP3   OH230778   3.210   5.197   1.482 -0.2894 -0.0979 -0.2956
 3096TIP3    H130779   3.216   5.194   1.577 -2.4461 -2.3828 -0.1825
 3096TIP3    H230780   3.125   5.237   1.465 -0.4540 -0.8332 -1.2394
 3097TIP3   OH230781   4.238   2.930   1.082 -0.6356  0.3384  0.2853
 3097TIP3    H130782   4.201   2.931   0.993  0.3459  1.0824 -0.1291
 3097TIP3    H230783   4.322   2.886   1.072 -0.5920  0.2796  0.8887
 3098TIP3   OH230784   3.803   3.040  10.520  0.1406 -0.0108  0.1932
 3098TIP3    H130785   3.763   3.027  10.606 -2.0997  2.8960 -0.3236
 3098TIP3    H230786   3.799   2.953  10.479 -1.7766 -0.7307  1.8021
 3099TIP3   OH230787   0.915   2.276  14.155  0.0221 -0.7612  0.1848
 3099TIP3    H130788   0.824   2.296  14.130  0.3538 -1.3349 -1.5237
 3099TIP3    H230789   0.915   2.182  14.173  0.1359 -0.6342  0.8720
 3100TIP3   OH230790   3.084   0.174   2.107  0.3245 -0.1748 -0.3287
 3100TIP3    H130791   3.105   0.256   2.153  0.9085 -0.5992  0.1778
 3100TIP3    H230792   3.116   0.105   2.166 -1.0661 -0.7956 -0.2869
 3101TIP3   OH230793   2.614   3.351   0.804 -0.1715 -0.0695 -0.1318
 3101TIP3    H130794   2.527   3.312   0.790  0.2130 -1.3084  0.7912
 3101TIP3    H230795   2.607   3.439   0.769 -2.1389  0.1979  0.8710
 3102TIP3   OH230796   1.011   2.481   1.274  0.1267  0.6906 -0.2259
 3102TIP3    H130797   0.971   2.428   1.344  2.0754 -0.2775  0.2147
 3102TIP3    H230798   1.052   2.555   1.320 -0.6191  1.3298 -0.5953
 3103TIP3   OH230799   1.330   0.028   4.231  0.7765 -0.4291  0.9558
 3103TIP3    H130800   1.299  -0.062   4.245 -0.7364 -0.2225 -0.8189
 3103TIP3    H230801   1.307   0.073   4.312 -1.0659 -0.9936  0.7868
 3104TIP3   OH230802   1.163   6.240  11.642  0.0250  0.3537  0.4540
 3104TIP3    H130803   1.099   6.216  11.575 -2.1451 -0.6532  2.8298
 3104TIP3    H230804   1.164   6.336  11.641  0.2112  0.3494 -1.1568
 3105TIP3   OH230805   3.437   0.845   2.762 -0.0929 -0.2009  0.2330
 3105TIP3    H130806   3.344   0.837   2.779 -0.6329  0.5887 -2.0475
 3105TIP3    H230807   3.457   0.937   2.780  0.4725 -0.6004  1.6844
 3106TIP3   OH230808   0.131   1.842  14.188 -0.3406  0.8421 -0.5197
 3106TIP3    H130809   0.223   1.828  14.210  0.2316  2.8998 -1.5163
 3106TIP3    H230810   0.093   1.754  14.186  1.5501 -0.0056  0.0771
 3107TIP3   OH230811   5.147   3.892   5.498  0.6252 -0.0278 -0.1929
 3107TIP3    H130812   5.190   3.865   5.579  0.6280  1.4837  0.3351
 3107TIP3    H230813   5.190   3.974   5.475 -0.6670  0.5206 -0.7007
 3108TIP3   OH230814   4.612   0.099  16.438  0.0644 -0.0686  0.6201
 3108TIP3    H130815   4.617   0.132  16.349 -0.6368  0.0046  0.6078
 3108TIP3    H230816   4.647   0.169  16.492  1.9184 -0.7065  0.2684
 3109TIP3   OH230817   3.084   1.912  17.121 -0.5522  0.5677 -0.4440
 3109TIP3    H130818   3.025   1.836  17.128 -0.5302  0.6935  1.5164
 3109TIP3    H230819   3.037   1.982  17.167  0.5217  1.0410 -0.0551
 3110TIP3   OH230820   6.019   4.921   2.612 -0.5769  0.1932 -0.0797
 3110TIP3    H130821   5.984   4.873   2.686  0.9135 -0.5414  0.1534
 3110TIP3    H230822   6.107   4.885   2.598 -0.9020  0.1579 -2.3211
 3111TIP3   OH230823   0.183   1.935  15.188 -0.1408 -0.1975  0.1746
 3111TIP3    H130824   0.104   1.886  15.211 -0.8480  1.6868  1.9008
 3111TIP3    H230825   0.168   1.965  15.099 -0.6227 -1.3288 -0.1228
 3112TIP3   OH230826   6.685   5.728   5.840  0.0304  0.7961  0.6426
 3112TIP3    H130827   6.647   5.685   5.918  0.6429  1.0914  1.1080
 3112TIP3    H230828   6.644   5.683   5.766 -2.0642  1.8480  1.1271
 3113TIP3   OH230829   6.777   4.298  12.174  0.7935 -0.3335  0.1549
 3113TIP3    H130830   6.770   4.306  12.079  1.0298 -1.3146  0.0561
 3113TIP3    H230831   6.813   4.211  12.189  1.2061 -0.0099  1.1276
 3114TIP3   OH230832   1.855   3.205  11.558 -0.0730 -0.1498 -0.2338
 3114TIP3    H130833   1.763   3.188  11.542 -0.2688 -1.8538  2.4309
 3114TIP3    H230834   1.901   3.150  11.495 -0.8560 -1.8024  0.6160
 3115TIP3   OH230835   6.322   2.931  16.242  0.6723 -0.3870  0.4315
 3115TIP3    H130836   6.286   2.978  16.317  1.8209  0.4000  0.5070
 3115TIP3    H230837   6.364   2.853  16.281 -1.4182 -1.6080  0.2872
 3116TIP3   OH230838   6.363   2.988  11.448  0.1306 -0.6585 -0.3873
 3116TIP3    H130839   6.416   3.040  11.508 -2.1365  0.1834  0.9193
 3116TIP3    H230840   6.293   3.047  11.420 -0.9316 -2.1771 -0.9786
 3117TIP3   OH230841   5.678   0.407  14.729 -0.3345 -0.6787 -0.4134
 3117TIP3    H130842   5.753   0.431  14.783  0.7107  0.8203 -2.4965
 3117TIP3    H230843   5.668   0.312  14.743  0.0660 -0.3960  2.1456
 3118TIP3   OH230844   2.378   4.665   1.279  0.0161  0.4283 -0.2122
 3118TIP3    H130845   2.338   4.633   1.360 -0.1953 -1.4714 -1.0453
 3118TIP3    H230846   2.341   4.609   1.210  0.8801  1.4288 -1.5115
 3119TIP3   OH230847   2.647   4.644  14.518 -0.3398 -0.2477 -0.5422
 3119TIP3    H130848   2.592   4.579  14.474  0.1396 -0.4554 -0.8335
 3119TIP3    H230849   2.629   4.726  14.472  0.2245 -0.4820 -1.1740
 3120TIP3   OH230850   3.447   0.232   3.854 -0.3302 -0.0668  0.2814
 3120TIP3    H130851   3.478   0.301   3.794 -0.1650 -0.3269  0.0651
 3120TIP3    H230852   3.523   0.212   3.908  0.0359 -1.0584 -0.5810
 3121TIP3   OH230853   2.991   5.004   3.276 -0.6009 -0.0984 -0.8888
 3121TIP3    H130854   3.071   4.975   3.318 -0.9214 -0.9047 -0.8133
 3121TIP3    H230855   2.934   5.031   3.348 -0.5095  0.1885 -0.9228
 3122TIP3   OH230856   0.935   0.593  12.877 -0.2284 -0.3306 -0.1185
 3122TIP3    H130857   0.983   0.672  12.900  1.2305 -0.5311 -2.3701
 3122TIP3    H230858   0.856   0.624  12.833  0.0812 -0.1016 -0.5134
 3123TIP3   OH230859   3.775   2.635  16.191  0.3658 -0.2136  0.2427
 3123TIP3    H130860   3.785   2.683  16.274  1.3465 -0.2455  0.1475
 3123TIP3    H230861   3.730   2.555  16.215 -0.0551  0.1357  0.6221
 3124TIP3   OH230862   2.863   2.224  16.770  0.2354  0.3611  0.3093
 3124TIP3    H130863   2.859   2.317  16.792 -0.2609  0.5707 -0.6305
 3124TIP3    H230864   2.951   2.196  16.796  1.3786  1.7526 -1.9260
 3125TIP3   OH230865   5.939   6.089  13.994 -0.1430  0.2236 -0.3351
 3125TIP3    H130866   6.025   6.126  13.977  0.1949 -0.4218 -0.0625
 3125TIP3    H230867   5.955   5.994  13.999 -0.9190  0.0770 -0.6141
 3126TIP3   OH230868   5.333   1.760  17.245  0.6810 -0.0582 -0.4191
 3126TIP3    H130869   5.330   1.709  17.164  0.5337 -0.6672 -0.0400
 3126TIP3    H230870   5.347   1.850  17.217  0.0752 -0.1873 -1.1507
 3127TIP3   OH230871   0.273   0.331  15.726  0.4369 -0.2266 -0.1889
 3127TIP3    H130872   0.226   0.372  15.654 -1.3755  0.7862  1.5096
 3127TIP3    H230873   0.346   0.285  15.685  1.0463  2.5989 -2.3893
 3128TIP3   OH230874   0.205   1.083   3.115  0.4924  0.0862  0.0809
 3128TIP3    H130875   0.201   1.142   3.039 -0.6060  0.6763  0.5911
 3128TIP3    H230876   0.292   1.098   3.152  1.1690 -0.4588 -1.2626
 3129TIP3   OH230877   0.474   1.495  16.851  0.5528  0.3897  0.6356
 3129TIP3    H130878   0.531   1.561  16.813 -0.1743  0.9184  0.4587
 3129TIP3    H230879   0.458   1.433  16.780 -0.3535  1.0801  0.2223
 3130TIP3   OH230880   5.373   4.074   2.700 -0.1447  0.2039  0.2263
 3130TIP3    H130881   5.392   4.168   2.707  1.5594 -0.0343 -1.0064
 3130TIP3    H230882   5.282   4.071   2.669  0.1015  1.4693 -0.6723
 3131TIP3   OH230883   1.638   2.338   3.793 -0.3359  0.1324 -1.0883
 3131TIP3    H130884   1.693   2.349   3.870 -1.1955 -1.7155 -0.1903
 3131TIP3    H230885   1.550   2.360   3.822 -0.7564 -1.1439 -1.3940
 3132TIP3   OH230886   3.363   3.535  17.221 -0.0946  0.3271  0.3584
 3132TIP3    H130887   3.362   3.566  17.311 -0.7772  2.4287 -0.3286
 3132TIP3    H230888   3.271   3.529  17.197  0.0926  1.3454 -0.6804
 3133TIP3   OH230889   2.656   3.985  15.184  0.0520 -0.2723 -0.5041
 3133TIP3    H130890   2.668   3.917  15.250  0.3463  1.2410  1.0380
 3133TIP3    H230891   2.743   3.996  15.146  0.3569  0.3715  0.3759
 3134TIP3   OH230892   5.642   2.009  15.896 -0.2855 -0.2900  0.2640
 3134TIP3    H130893   5.631   2.097  15.860  0.3620 -0.3831 -0.1832
 3134TIP3    H230894   5.685   2.023  15.980 -0.3059 -0.1693  0.2538
 3135TIP3   OH230895   5.126   6.264   0.343  0.0202  0.0687  0.3859
 3135TIP3    H130896   5.119   6.205   0.418  0.8870  0.5431  0.8494
 3135TIP3    H230897   5.184   6.218   0.282  0.2247  0.1827  0.4944
 3136TIP3   OH230898   3.282   4.419  16.802 -0.3724 -0.5389 -0.1485
 3136TIP3    H130899   3.263   4.471  16.724 -1.8458  2.1176  1.8882
 3136TIP3    H230900   3.246   4.470  16.875  3.5649 -1.4697  2.6435
 3137TIP3   OH230901   0.498   6.582   0.704 -0.2741  0.0662  0.0778
 3137TIP3    H130902   0.466   6.601   0.616  0.4513  0.4096 -0.1217
 3137TIP3    H230903   0.593   6.577   0.694 -0.1936  0.0406  0.8295
 3138TIP3   OH230904   3.951   2.865  12.431 -0.7191 -0.2422 -0.5815
 3138TIP3    H130905   3.887   2.900  12.493 -0.4055  1.1085 -1.0066
 3138TIP3    H230906   3.905   2.793  12.387 -1.1358 -0.8373  0.7951
 3139TIP3   OH230907   5.050   0.940   6.139  0.1697  0.5908  0.3794
 3139TIP3    H130908   5.023   0.984   6.219 -0.1013  0.4379  0.3714
 3139TIP3    H230909   5.131   0.984   6.114  0.2775  0.6128  0.7585
 3140TIP3   OH230910   3.420   4.954   1.413 -0.3260 -0.3499  0.1475
 3140TIP3    H130911   3.363   4.878   1.399  0.7561 -1.1119 -0.2055
 3140TIP3    H230912   3.363   5.020   1.451 -1.3214 -1.2963  0.3300
 3141TIP3   OH230913   1.263   1.650   3.833 -0.2723 -0.5716 -0.2155
 3141TIP3    H130914   1.279   1.651   3.928 -0.1998 -0.6363 -0.2262
 3141TIP3    H230915   1.175   1.615   3.824 -0.5152  0.0209 -0.1413
 3142TIP3   OH230916   4.854   0.860   3.592 -0.3969  0.3008 -0.6596
 3142TIP3    H130917   4.881   0.796   3.658 -1.6125  0.7022  0.2607
 3142TIP3    H230918   4.933   0.909   3.572  0.2560 -0.6310 -0.4066
 3143TIP3   OH230919   6.462   6.381   1.685 -0.2253 -0.1955  0.0444
 3143TIP3    H130920   6.496   6.443   1.749  0.4222  0.0237 -0.5115
 3143TIP3    H230921   6.433   6.435   1.611  1.7693 -0.6437 -1.0951
 3144TIP3   OH230922   1.627   3.245   2.992 -0.2154  0.3455 -0.3151
 3144TIP3    H130923   1.570   3.254   2.915 -1.2826 -0.2916  0.3833
 3144TIP3    H230924   1.713   3.273   2.961 -0.6418  0.1681 -1.7250
 3145TIP3   OH230925   5.697   1.568   2.609 -0.2857 -0.4343  0.1307
 3145TIP3    H130926   5.628   1.504   2.592  1.5105 -2.5959  0.7029
 3145TIP3    H230927   5.767   1.517   2.649  1.4204  1.8117  0.0880
 3146TIP3   OH230928   3.542   5.429   4.088 -0.0600  0.2156  0.2776
 3146TIP3    H130929   3.522   5.424   3.994 -1.0943  0.3161  0.4913
 3146TIP3    H230930   3.632   5.461   4.092 -0.4333  1.3743 -0.6452
 3147TIP3   OH230931   5.242   3.981  16.057 -0.0010 -0.1100  0.0235
 3147TIP3    H130932   5.169   3.989  15.995 -0.7027 -0.1862  0.8289
 3147TIP3    H230933   5.206   4.011  16.140  0.6748 -0.8796  0.5975
 3148TIP3   OH230934   2.452   1.800   1.331  0.0499  0.4887 -0.8905
 3148TIP3    H130935   2.525   1.769   1.385 -0.0243  0.0719 -1.0302
 3148TIP3    H230936   2.422   1.880   1.375 -0.7251 -0.4382  0.2946
 3149TIP3   OH230937   6.284   4.984  12.789  0.4483 -0.6363  0.4306
 3149TIP3    H130938   6.301   4.959  12.698  3.0579  1.2738  0.3334
 3149TIP3    H230939   6.280   4.902  12.837  1.3661 -1.5755 -1.0615
 3150TIP3   OH230940   2.678   5.949   3.026  0.6208 -0.5439  0.2072
 3150TIP3    H130941   2.716   5.924   3.110 -1.0229  0.5139  1.2944
 3150TIP3    H230942   2.589   5.914   3.028 -0.0832  1.1368 -0.2608
 3151TIP3   OH230943   1.602   3.621  14.977 -0.3244 -0.5619  0.2116
 3151TIP3    H130944   1.584   3.621  14.883 -2.4397 -2.7559  0.5509
 3151TIP3    H230945   1.656   3.543  14.992  0.2260 -0.0787  0.7842
 3152TIP3   OH230946   0.332   3.972   4.706  0.8993 -0.9993 -0.0437
 3152TIP3    H130947   0.309   3.901   4.645  1.3509 -0.1583 -1.2096
 3152TIP3    H230948   0.420   3.949   4.736  0.5210 -1.6220  0.5991
 3153TIP3   OH230949   1.130   4.169   3.769 -0.5338  0.1293  0.6944
 3153TIP3    H130950   1.143   4.226   3.693  1.7768 -1.7496 -0.4189
 3153TIP3    H230951   1.206   4.186   3.825 -0.5017 -0.8813  0.9729
 3154TIP3   OH230952   4.348   1.195   3.314 -0.3598 -0.2656 -0.6945
 3154TIP3    H130953   4.351   1.153   3.400  0.0854  0.8074 -0.1759
 3154TIP3    H230954   4.300   1.133   3.259 -1.1057 -0.7424  0.4584
 3155TIP3   OH230955   0.768   5.973   1.526  0.2662  0.5633  0.5359
 3155TIP3    H130956   0.675   5.950   1.523 -0.1267  2.2173 -0.4917
 3155TIP3    H230957   0.802   5.947   1.440  0.5379  0.8417  0.5591
 3156TIP3   OH230958   2.456   3.507  12.762  0.4098  0.3682  0.3252
 3156TIP3    H130959   2.388   3.572  12.746  0.6613  0.5268 -0.0934
 3156TIP3    H230960   2.489   3.528  12.850  1.4039  1.6285 -0.3339
 3157TIP3   OH230961   3.349   0.254  12.341  0.1757 -0.5070 -0.5087
 3157TIP3    H130962   3.398   0.337  12.332  1.5539 -1.1150  1.0643
 3157TIP3    H230963   3.316   0.256  12.430  1.6118 -2.3650  0.0979
 3158TIP3   OH230964   3.349   5.036   5.885  0.2544  0.0198 -0.1069
 3158TIP3    H130965   3.313   5.046   5.973  0.6701  1.1874 -0.0658
 3158TIP3    H230966   3.443   5.051   5.895  0.1209  1.6035 -0.9668
 3159TIP3   OH230967   0.643   6.390  14.908 -0.0864 -0.3645 -0.5188
 3159TIP3    H130968   0.634   6.391  14.813  1.1956  1.9425 -0.6483
 3159TIP3    H230969   0.712   6.326  14.925  0.1499 -0.2969 -1.2031
 3160TIP3   OH230970   1.049   5.781  12.263 -0.1444 -0.0065  0.1219
 3160TIP3    H130971   1.100   5.798  12.183 -2.1619 -0.7835 -1.3560
 3160TIP3    H230972   1.087   5.840  12.327  1.3671  0.8263 -1.4804
 3161TIP3   OH230973   4.203   2.741   4.045  0.4427  0.5646  0.3990
 3161TIP3    H130974   4.297   2.752   4.060  0.4437  0.6066  0.3617
 3161TIP3    H230975   4.179   2.664   4.097  0.8898 -0.6598 -1.1647
 3162TIP3   OH230976   1.178   3.671  16.823 -0.1073 -0.1207  0.2952
 3162TIP3    H130977   1.118   3.737  16.858 -1.1341 -0.2019 -1.2622
 3162TIP3    H230978   1.227   3.717  16.755  1.1941 -0.2169  1.1617
 3163TIP3   OH230979   6.487   3.451  15.083  0.0685  0.0311 -0.2723
 3163TIP3    H130980   6.514   3.479  15.171  2.6452  0.1254 -1.0505
 3163TIP3    H230981   6.414   3.508  15.061  0.1803  0.8317  1.3369
 3164TIP3   OH230982   5.013   4.170  13.862 -0.1048 -0.1704  0.0176
 3164TIP3    H130983   5.066   4.201  13.788  0.3044 -0.2400  0.2750
 3164TIP3    H230984   4.931   4.142  13.823 -0.7767  1.9432 -0.1479
 3165TIP3   OH230985   5.087   3.131   1.904  0.1207 -0.1478  0.3949
 3165TIP3    H130986   5.171   3.103   1.940 -0.1251 -0.3197  0.8402
 3165TIP3    H230987   5.021   3.091   1.962 -0.2155  2.2120  1.6646
 3166TIP3   OH230988   3.412   0.720   5.443  0.1674 -0.1929  0.2807
 3166TIP3    H130989   3.445   0.792   5.497  0.1119 -0.2246  0.3565
 3166TIP3    H230990   3.363   0.664   5.504  1.5549 -1.1500  0.5405
 3167TIP3   OH230991   0.777   0.424   3.461 -0.1922  0.2341  0.0108
 3167TIP3    H130992   0.710   0.420   3.393 -0.1856  0.2968  0.0009
 3167TIP3    H230993   0.732   0.459   3.538  0.2105  1.7978 -0.4504
 3168TIP3   OH230994   0.330   3.272  11.479  0.1012  0.1268  0.1651
 3168TIP3    H130995   0.322   3.292  11.386  0.4939 -0.6323 -0.0371
 3168TIP3    H230996   0.421   3.244  11.490 -0.1025 -0.3430  0.6673
 3169TIP3   OH230997   0.872   1.297  15.950  0.4134 -0.4209 -0.2268
 3169TIP3    H130998   0.781   1.267  15.958  0.6353 -1.2106 -0.5675
 3169TIP3    H230999   0.921   1.218  15.927  0.9848  0.2585 -1.3691
 3170TIP3   OH231000   4.683   1.399   2.590 -0.2661  0.1672  0.5418
 3170TIP3    H131001   4.760   1.452   2.572 -0.7370  1.0145  1.0027
 3170TIP3    H231002   4.626   1.456   2.641 -1.5345 -0.1811 -0.4577
 3171TIP3   OH231003   4.959   2.153   3.704  0.3155  0.0097  0.1815
 3171TIP3    H131004   5.028   2.196   3.754  2.1053 -1.2904 -1.1254
 3171TIP3    H231005   4.956   2.201   3.621  1.3523 -1.4583 -0.7254
 3172TIP3   OH231006   0.278   2.935   2.011 -0.3818 -0.2584  0.0236
 3172TIP3    H131007   0.220   2.875   2.058 -1.4473  1.8952  1.5342
 3172TIP3    H231008   0.329   2.978   2.079  0.9652 -0.0636 -1.0948
 3173TIP3   OH231009   2.895   2.324   5.696 -0.2630  0.5125 -0.3682
 3173TIP3    H131010   2.809   2.347   5.661 -0.6903 -0.4543  0.0286
 3173TIP3    H231011   2.918   2.243   5.649 -0.5341 -0.4124  1.0664
 3174TIP3   OH231012   0.438   2.459   0.001 -0.0296 -0.0202  0.6340
 3174TIP3    H131013   0.444   2.481   0.094  2.1471  3.0008 -0.1523
 3174TIP3    H231014   0.344   2.457  -0.018 -0.4435  1.5241  2.4029
 3175TIP3   OH231015   2.861   6.008   3.850  0.3618  0.1237 -0.6746
 3175TIP3    H131016   2.869   5.972   3.938 -0.5123  1.9488  0.1830
 3175TIP3    H231017   2.809   5.944   3.802  2.4315 -1.7969 -0.4310
 3176TIP3   OH231018   6.440   4.458   2.979  0.9535 -0.1829  0.0218
 3176TIP3    H131019   6.477   4.528   3.032  2.0171 -0.2023 -0.6854
 3176TIP3    H231020   6.356   4.492   2.949  1.7136  0.9982 -0.7765
 3177TIP3   OH231021   5.880   3.493   0.140  1.0198 -0.4269  0.1031
 3177TIP3    H131022   5.926   3.574   0.162  2.1584 -1.2502  0.7894
 3177TIP3    H231023   5.857   3.503   0.048  1.2191  0.6464  0.1591
 3178TIP3   OH231024   6.359   6.775  12.018  0.0841  0.0806  0.0716
 3178TIP3    H131025   6.364   6.801  12.111  3.4192 -2.8182  0.8330
 3178TIP3    H231026   6.310   6.693  12.019 -0.9935  0.7094 -0.9191
 3179TIP3   OH231027   1.634   2.488  12.242 -0.1629  0.2573  0.3322
 3179TIP3    H131028   1.635   2.562  12.303  0.3199 -0.2681  0.9715
 3179TIP3    H231029   1.622   2.528  12.156 -1.8994  0.9359  0.8584
 3180TIP3   OH231030   4.772   5.515  15.593 -0.8001 -0.2887 -0.0407
 3180TIP3    H131031   4.779   5.481  15.504 -1.4943 -2.2724  0.6320
 3180TIP3    H231032   4.798   5.607  15.586  0.4693 -0.7640 -2.0443
 3181TIP3   OH231033   1.183   6.485   6.536  0.3177  0.0021  0.2293
 3181TIP3    H131034   1.115   6.551   6.526  0.7435  0.4316  0.1773
 3181TIP3    H231035   1.266   6.533   6.531  0.6430 -0.6085 -0.4166
 3182TIP3   OH231036   5.438   1.981  11.244 -0.0576 -0.4763  0.1862
 3182TIP3    H131037   5.350   1.953  11.220 -0.7391 -1.1179  3.1824
 3182TIP3    H231038   5.489   1.900  11.248 -0.2173 -0.5192  1.7759
 3183TIP3   OH231039   3.091   0.539   1.461 -0.4925 -0.4976 -0.2543
 3183TIP3    H131040   3.016   0.562   1.406 -0.4932 -1.3855 -0.6390
 3183TIP3    H231041   3.164   0.529   1.399 -0.3898 -1.0492 -0.0534
 3184TIP3   OH231042   5.348   4.319  16.312 -0.2587 -0.0138 -0.6937
 3184TIP3    H131043   5.430   4.288  16.349 -0.3491  1.2703  0.6207
 3184TIP3    H231044   5.367   4.335  16.219  0.5149 -1.2714 -0.7677
 3185TIP3   OH231045   5.589   3.632   5.476  0.0850  0.3832 -0.7834
 3185TIP3    H131046   5.532   3.566   5.435  0.8504 -0.2520 -0.8298
 3185TIP3    H231047   5.644   3.664   5.405  0.0181  0.7505 -0.6687
 3186TIP3   OH231048   6.684   5.505   4.851 -0.0919  0.4645 -0.0893
 3186TIP3    H131049   6.733   5.529   4.772 -0.1428 -2.7596 -1.1429
 3186TIP3    H231050   6.594   5.531   4.832 -0.2387 -0.9697 -1.3955
 3187TIP3   OH231051   2.203   3.639   1.617  0.8536 -0.3042  0.4273
 3187TIP3    H131052   2.253   3.616   1.539  0.5530 -2.2479  0.7978
 3187TIP3    H231053   2.167   3.556   1.648 -2.7293  1.0360  0.0901
 3188TIP3   OH231054   0.574   2.459  15.148  0.4628 -0.1904 -0.0394
 3188TIP3    H131055   0.632   2.535  15.147  0.3531 -0.1062 -0.1675
 3188TIP3    H231056   0.486   2.497  15.144  0.3121 -0.2252  2.3783
 3189TIP3   OH231057   3.891   4.627  12.491 -0.2759  0.0509  0.0324
 3189TIP3    H131058   3.951   4.700  12.474 -0.7659  0.5434  0.3924
 3189TIP3    H231059   3.864   4.640  12.582  0.5337 -1.2472  0.4601
 3190TIP3   OH231060   5.266   6.360   1.228 -0.3328 -1.1380  0.1185
 3190TIP3    H131061   5.249   6.266   1.233 -0.1596 -1.1254  1.0636
 3190TIP3    H231062   5.270   6.388   1.319  0.5635 -0.3824 -0.1460
 3191TIP3   OH231063   4.499   1.005  15.598 -0.1569  0.1435 -0.0672
 3191TIP3    H131064   4.517   0.993  15.691 -0.2355  0.8366  0.0406
 3191TIP3    H231065   4.510   0.918  15.560  0.6950  0.0212  0.4493
 3192TIP3   OH231066   4.685   2.203  17.275  0.0151  0.3863  0.0226
 3192TIP3    H131067   4.748   2.273  17.257  0.1512  0.2078 -0.1945
 3192TIP3    H231068   4.709   2.132  17.215 -0.0308  0.0983  0.3403
 3193TIP3   OH231069   3.397   4.572  15.675 -0.4105  0.5115 -0.1770
 3193TIP3    H131070   3.365   4.482  15.683 -1.5916  0.8697 -0.7469
 3193TIP3    H231071   3.458   4.569  15.602 -0.1206  0.0797  0.0830
 3194TIP3   OH231072   3.107   2.543   0.034  0.4794 -0.5315  0.3496
 3194TIP3    H131073   3.072   2.613   0.090  2.1043 -0.5959  1.4630
 3194TIP3    H231074   3.061   2.555  -0.049 -0.6542  0.6818  1.1206
 3195TIP3   OH231075   4.859   2.373   0.539 -0.5625 -0.0295  0.0861
 3195TIP3    H131076   4.892   2.379   0.449 -1.1374  0.2815 -0.1083
 3195TIP3    H231077   4.768   2.344   0.529 -1.0591  1.3746  0.4953
 3196TIP3   OH231078   0.484   1.463  12.483  0.0332 -0.8264  0.2562
 3196TIP3    H131079   0.430   1.420  12.549  0.0165 -0.9038  0.1914
 3196TIP3    H231080   0.515   1.543  12.526  0.9242 -1.4213  0.7460
 3197TIP3   OH231081   4.930   1.707  12.663  0.0961  0.5835  0.7049
 3197TIP3    H131082   4.987   1.757  12.721  1.7668  1.3182 -1.5078
 3197TIP3    H231083   4.958   1.616  12.673  0.1920  0.6727  1.2343
 3198TIP3   OH231084   2.127   0.845   5.510 -0.3435 -0.1966 -0.5892
 3198TIP3    H131085   2.145   0.768   5.565  0.4577 -1.0249 -1.9669
 3198TIP3    H231086   2.187   0.912   5.542  0.2411 -0.7267 -0.5585
 3199TIP3   OH231087   4.933   0.873   2.210  0.5979 -0.3893  0.1168
 3199TIP3    H131088   4.941   0.959   2.250 -0.2949 -0.1037 -0.3054
 3199TIP3    H231089   4.848   0.840   2.240  0.4940 -0.7050 -0.5044
 3200TIP3   OH231090   4.941   2.012   0.877 -0.0343  0.5791  0.2265
 3200TIP3    H131091   4.949   2.036   0.785 -1.4478  3.1508  0.7151
 3200TIP3    H231092   4.862   1.959   0.882  0.0804  0.3810 -0.0445
 3201TIP3   OH231093   3.184   0.646   2.059 -0.1216 -0.4211 -0.0566
 3201TIP3    H131094   3.257   0.602   2.016 -0.2312 -0.5448 -0.1182
 3201TIP3    H231095   3.147   0.703   1.992  1.0656  1.0529  0.5097
 3202TIP3   OH231096   3.319   1.564   4.091  0.6553  0.3169  0.0332
 3202TIP3    H131097   3.373   1.609   4.026 -1.1947  0.8007 -1.1816
 3202TIP3    H231098   3.290   1.634   4.150  0.3695  0.2293 -0.0051
 3203TIP3   OH231099   3.179   6.762   0.684 -0.4727  0.2419  0.3983
 3203TIP3    H131100   3.245   6.717   0.632  1.5569  1.1275  2.1660
 3203TIP3    H231101   3.138   6.823   0.622 -0.7247 -1.3689 -1.0803
 3204TIP3   OH231102   5.523   5.935  14.701 -0.4144  0.7776  0.0903
 3204TIP3    H131103   5.453   5.870  14.695  0.1954  0.0374  0.7603
 3204TIP3    H231104   5.491   6.010  14.651 -2.1823  0.9183  1.3689
 3205TIP3   OH231105   3.653   3.729   1.263 -0.0628  0.2159 -0.3355
 3205TIP3    H131106   3.731   3.774   1.231  0.5417 -0.2130  0.5123
 3205TIP3    H231107   3.663   3.728   1.358 -1.4908  0.8574 -0.1498
 3206TIP3   OH231108   6.701   0.466  16.772 -0.0252  0.0601  0.0028
 3206TIP3    H131109   6.742   0.526  16.710  1.3382 -0.8299  0.0430
 3206TIP3    H231110   6.773   0.431  16.824 -1.0651  0.2376  1.6268
 3207TIP3   OH231111   1.510   6.651  12.782 -0.2365  0.3348 -0.0976
 3207TIP3    H131112   1.426   6.657  12.828  0.3863 -0.4495  1.1441
 3207TIP3    H231113   1.519   6.736  12.738 -0.9384  1.0066  1.0318
 3208TIP3   OH231114   3.732   1.361  12.955 -0.1263 -0.3379  0.4459
 3208TIP3    H131115   3.718   1.381  13.048 -0.1451  0.3139  0.3092
 3208TIP3    H231116   3.688   1.433  12.909 -0.3205 -0.7853 -0.0711
 3209TIP3   OH231117   0.416   4.421   6.307 -0.4133 -0.9992  0.2823
 3209TIP3    H131118   0.482   4.356   6.284 -0.7228 -1.6958  1.3347
 3209TIP3    H231119   0.456   4.505   6.283  0.1151 -1.5540 -0.7756
 3210TIP3   OH231120   2.931   3.830   2.206  0.3955 -0.0167  0.0973
 3210TIP3    H131121   2.871   3.757   2.223 -0.4120  0.3803 -1.0196
 3210TIP3    H231122   3.014   3.788   2.185  0.3665 -0.5806  1.0802
 3211TIP3   OH231123   0.662   5.353   0.888  0.2670  0.1329 -0.0292
 3211TIP3    H131124   0.623   5.398   0.963 -0.5667 -0.4062 -0.1368
 3211TIP3    H231125   0.738   5.308   0.923  0.4341  0.6722  0.3046
 3212TIP3   OH231126   0.692   1.247   2.457  0.0618 -0.3701 -0.1339
 3212TIP3    H131127   0.728   1.330   2.489  1.1778 -0.8800 -0.0575
 3212TIP3    H231128   0.679   1.194   2.535 -0.6969 -0.2565 -0.1801
 3213TIP3   OH231129   2.587   3.335  11.230 -0.0074 -0.0052  0.3858
 3213TIP3    H131130   2.518   3.296  11.176  0.9930 -0.0624 -0.9006
 3213TIP3    H231131   2.634   3.259  11.266 -0.0457  0.0269  0.5033
 3214TIP3   OH231132   4.433   5.019   2.605 -0.0219 -0.4095 -0.1632
 3214TIP3    H131133   4.478   4.941   2.638 -0.2177 -0.2021  0.5864
 3214TIP3    H231134   4.495   5.057   2.542  0.5992 -0.4582  0.4159
 3215TIP3   OH231135   2.134   4.365   5.057 -0.1282  0.1936  0.0015
 3215TIP3    H131136   2.191   4.338   5.130  0.0280  0.0220 -0.1827
 3215TIP3    H231137   2.080   4.288   5.040 -0.5792  0.4382  0.3327
 3216TIP3   OH231138   0.793   6.702  13.737  0.0096  0.1193  0.0918
 3216TIP3    H131139   0.768   6.676  13.826  0.4089 -0.1654  0.1247
 3216TIP3    H231140   0.715   6.689  13.684  0.7696 -3.2255 -0.3176
 3217TIP3   OH231141   4.125   4.202   1.307  0.1178 -0.1804  0.0055
 3217TIP3    H131142   4.039   4.207   1.265  0.4183 -0.9087 -0.6843
 3217TIP3    H231143   4.149   4.294   1.323 -0.5401  0.0460 -0.2898
 3218TIP3   OH231144   0.797   5.774   6.550 -0.0340  0.5201 -0.3261
 3218TIP3    H131145   0.879   5.741   6.513  0.6331  2.0387 -0.2740
 3218TIP3    H231146   0.821   5.859   6.588 -1.7360  1.2170 -0.7619
 3219TIP3   OH231147   3.622   2.754  14.315  0.1441  0.1886  0.0611
 3219TIP3    H131148   3.686   2.725  14.380 -0.4170 -2.0435 -0.3151
 3219TIP3    H231149   3.537   2.733  14.354 -0.2623  0.7195 -0.5315
 3220TIP3   OH231150   6.688   2.526  13.926 -0.2873  0.2949 -0.5818
 3220TIP3    H131151   6.665   2.611  13.886 -0.0682  0.7238  0.1950
 3220TIP3    H231152   6.655   2.461  13.864 -1.5563  0.9286 -0.5884
 3221TIP3   OH231153   0.296   4.372  12.725  0.6892 -0.1396 -0.7239
 3221TIP3    H131154   0.259   4.284  12.715  1.7874 -0.5188 -1.5865
 3221TIP3    H231155   0.321   4.377  12.818  1.9647 -1.3028 -0.9767
 3222TIP3   OH231156   3.601   2.744   1.322  0.7075  0.0593 -0.0485
 3222TIP3    H131157   3.517   2.697   1.323 -0.1317  1.5291 -0.0261
 3222TIP3    H231158   3.666   2.678   1.345 -0.5367 -0.9465  0.6215
 3223TIP3   OH231159   4.411   5.929   3.665 -0.4763 -0.2474  0.1816
 3223TIP3    H131160   4.328   5.896   3.633  0.4173 -0.9628 -1.4460
 3223TIP3    H231161   4.477   5.888   3.609  0.8180  2.2016 -0.1564
 3224TIP3   OH231162   6.727   6.487  15.667  0.6277 -0.6351 -0.3183
 3224TIP3    H131163   6.767   6.400  15.668 -0.5668 -1.2140  1.5332
 3224TIP3    H231164   6.654   6.479  15.728 -0.4161  1.2563 -1.3026
 3225TIP3   OH231165   3.045   2.025  16.325  0.4806  0.5090  0.0401
 3225TIP3    H131166   3.050   2.026  16.421  2.5983 -0.6456 -0.0317
 3225TIP3    H231167   3.056   1.933  16.301 -2.4440  0.4215 -1.2513
 3226TIP3   OH231168   2.648   6.495  15.920 -0.0420 -0.1785  0.0694
 3226TIP3    H131169   2.658   6.481  15.826 -1.8617 -0.6313 -0.0753
 3226TIP3    H231170   2.580   6.433  15.946  0.8247 -0.4447  1.7921
 3227TIP3   OH231171   6.103   5.696   5.135 -0.1587 -0.0730 -0.2239
 3227TIP3    H131172   6.081   5.603   5.124 -0.2586  0.1356 -2.0384
 3227TIP3    H231173   6.199   5.698   5.132 -0.1659 -0.0931 -0.5548
 3228TIP3   OH231174   4.461   6.058  13.840  0.5475  0.3842  0.1507
 3228TIP3    H131175   4.494   6.142  13.810 -1.1883  1.0252 -0.0253
 3228TIP3    H231176   4.450   6.069  13.935  1.9728 -0.2350  0.4012
 3229TIP3   OH231177   0.909   4.034  15.110  0.2196  0.3398  0.5353
 3229TIP3    H131178   0.830   4.084  15.087  1.4709  1.8336 -0.6984
 3229TIP3    H231179   0.931   4.063  15.198 -0.4361  0.1667  0.7548
 3230TIP3   OH231180   5.157   1.016   1.059  0.4515 -0.5476 -0.1663
 3230TIP3    H131181   5.140   1.110   1.065  0.4255 -0.5494 -0.2120
 3230TIP3    H231182   5.172   0.989   1.150 -0.3401 -0.6484 -0.0607
 3231TIP3   OH231183   3.466   6.240  16.948  0.2835 -0.1523  0.2494
 3231TIP3    H131184   3.473   6.155  16.904 -2.6783 -0.1058 -0.3850
 3231TIP3    H231185   3.546   6.286  16.923  0.6087 -1.7016 -1.7121
 3232TIP3   OH231186   2.508   4.421  13.978 -0.1657  0.5285  0.4354
 3232TIP3    H131187   2.551   4.434  13.894 -2.3673  1.1178 -0.6167
 3232TIP3    H231188   2.551   4.484  14.036  0.3208  1.1844 -0.6172
 3233TIP3   OH231189   5.103   0.714  14.508 -0.6587  0.0537 -0.5460
 3233TIP3    H131190   5.095   0.794  14.457 -2.6982 -0.0050 -0.3553
 3233TIP3    H231191   5.095   0.742  14.599 -0.1911 -0.2287 -0.4116
 3234TIP3   OH231192   5.228   2.364  13.130  0.0608 -0.0508 -0.5889
 3234TIP3    H131193   5.175   2.299  13.084 -0.6997  0.6142 -0.6501
 3234TIP3    H231194   5.172   2.396  13.201  0.1229  1.1801 -1.0935
 3235TIP3   OH231195   3.789   3.858   4.372  0.2466  0.0672 -0.3752
 3235TIP3    H131196   3.823   3.943   4.346  0.0958 -0.5856 -2.7894
 3235TIP3    H231197   3.710   3.878   4.422  1.1507  1.3801  0.5633
 3236TIP3   OH231198   6.489   1.015  13.879 -0.4294 -0.0049  0.2774
 3236TIP3    H131199   6.496   1.083  13.946 -1.7183  1.1548 -0.7321
 3236TIP3    H231200   6.421   1.047  13.819  1.3161 -0.6047 -2.0765
 3237TIP3   OH231201   5.307   3.292  10.559 -0.2289  0.0704 -0.0148
 3237TIP3    H131202   5.287   3.385  10.568 -0.4491  0.1125 -0.8804
 3237TIP3    H231203   5.239   3.248  10.610 -0.9328  0.3312 -0.7227
 3238TIP3   OH231204   5.701   1.048   1.834  0.4139 -0.4407  0.4377
 3238TIP3    H131205   5.760   1.108   1.790  1.2146 -1.5932 -0.0719
 3238TIP3    H231206   5.613   1.081   1.814  0.8755  1.5429  1.5737
 3239TIP3   OH231207   4.830   1.431   3.143  0.3447  0.3798  0.4551
 3239TIP3    H131208   4.863   1.429   3.054  2.0160  3.4182  0.9574
 3239TIP3    H231209   4.869   1.353   3.184  1.7866  0.4701 -0.7074
 3240TIP3   OH231210   6.735   1.317   0.391 -0.4019 -0.1191 -0.2301
 3240TIP3    H131211   6.653   1.314   0.342 -0.9334  1.7205  0.4843
 3240TIP3    H231212   6.754   1.411   0.398  2.2314 -0.5605 -1.1487
 3241TIP3   OH231213   0.272   4.756  10.733  0.5264  0.0003 -0.2787
 3241TIP3    H131214   0.209   4.740  10.803  0.5019 -0.1957 -0.3439
 3241TIP3    H231215   0.329   4.825  10.768 -0.1821  0.7133 -0.5231
 3242TIP3   OH231216   4.267   0.729  12.585 -0.7615 -0.4389 -0.0579
 3242TIP3    H131217   4.351   0.719  12.540 -1.1641 -0.6731 -0.7714
 3242TIP3    H231218   4.275   0.674  12.663  1.4665  3.1465  2.3931
 3243TIP3   OH231219   0.383   0.020  14.262  0.0641 -0.5471  0.1682
 3243TIP3    H131220   0.338   0.046  14.181 -0.2276 -2.1155 -0.1786
 3243TIP3    H231221   0.343   0.075  14.330 -0.1018  0.3568 -0.6411
 3244TIP3   OH231222   6.303   5.888   4.146  0.1107  0.2390 -0.1734
 3244TIP3    H131223   6.362   5.813   4.155 -0.1250 -0.1418 -1.6316
 3244TIP3    H231224   6.357   5.964   4.170  0.8988 -0.2022 -0.5222
 3245TIP3   OH231225   2.551   3.113   0.232  0.0629  0.2142 -0.2150
 3245TIP3    H131226   2.541   3.127   0.138  3.3259 -1.6382 -0.9238
 3245TIP3    H231227   2.502   3.033   0.251 -1.2931  1.0438 -0.1368
 3246TIP3   OH231228   5.410   2.951   3.923  0.1931 -0.1663  0.0402
 3246TIP3    H131229   5.366   2.897   3.856  0.8583  0.6576 -1.0712
 3246TIP3    H231230   5.499   2.962   3.890 -0.1009  2.1436 -0.0680
 3247TIP3   OH231231   1.648   2.300  13.843  0.8173  0.6206 -0.1498
 3247TIP3    H131232   1.667   2.246  13.766  1.4467  1.3395 -0.5000
 3247TIP3    H231233   1.635   2.388  13.808 -1.8574  0.4249  0.2217
 3248TIP3   OH231234   4.237   0.942   0.582 -0.7737  0.3515  0.6222
 3248TIP3    H131235   4.148   0.910   0.571 -1.1135  0.7237  2.1102
 3248TIP3    H231236   4.292   0.865   0.571 -1.2085  0.2912 -1.2155
 3249TIP3   OH231237   6.647   3.383   5.307  0.4212 -0.1497 -0.0063
 3249TIP3    H131238   6.645   3.462   5.252  1.7125  0.6069  0.9985
 3249TIP3    H231239   6.578   3.328   5.271  0.7664  0.6158 -1.9551
 3250TIP3   OH231240   6.106   6.145  11.516  0.2411  0.6944  0.1482
 3250TIP3    H131241   6.188   6.150  11.565 -0.5801  0.2604  1.6056
 3250TIP3    H231242   6.125   6.188  11.432  1.7964  1.0542  0.6739
 3251TIP3   OH231243   3.257   4.767  15.015  0.2984 -0.3874  0.0185
 3251TIP3    H131244   3.289   4.702  14.953  1.9281  0.3087  0.0854
 3251TIP3    H231245   3.254   4.849  14.965  1.3395  0.1173  0.7470
 3252TIP3   OH231246   0.742   6.254  13.664 -0.2516 -0.7593 -0.4329
 3252TIP3    H131247   0.802   6.238  13.737  0.1838 -0.2481 -0.6755
 3252TIP3    H231248   0.798   6.280  13.591 -0.9123  2.4980  0.1041
 3253TIP3   OH231249   4.448   4.770   2.692  0.7895 -0.0370 -0.2699
 3253TIP3    H131250   4.391   4.719   2.749  0.3196  0.2058 -0.5118
 3253TIP3    H231251   4.533   4.770   2.735  0.7689 -0.9515 -0.2280
 3254TIP3   OH231252   1.765   3.897  13.353  0.5133  0.3880 -0.4186
 3254TIP3    H131253   1.782   3.827  13.416 -0.5446 -0.1817 -0.7555
 3254TIP3    H231254   1.670   3.898  13.343  0.6835  0.0667 -2.4421
 3255TIP3   OH231255   5.097   4.998   4.221 -0.5739  0.3270  0.3126
 3255TIP3    H131256   5.079   4.904   4.217 -0.2008  0.2360  0.6552
 3255TIP3    H231257   5.162   5.007   4.291  1.1120  0.5636 -1.2502
 3256TIP3   OH231258   0.058   4.133   1.812  0.0727 -0.2187 -0.3584
 3256TIP3    H131259   0.073   4.149   1.719  0.4458  0.5727 -0.1630
 3256TIP3    H231260   0.115   4.195   1.857  0.6533 -1.2944  0.4013
 3257TIP3   OH231261   5.415   5.861  17.188  0.3227  0.1140 -0.0004
 3257TIP3    H131262   5.427   5.951  17.160 -0.1541  0.4744  0.9102
 3257TIP3    H231263   5.503   5.824  17.191  0.4535  0.3422 -1.0378
 3258TIP3   OH231264   5.006   5.189  16.073 -0.3366 -0.4109 -0.2014
 3258TIP3    H131265   4.946   5.223  16.139 -1.0179  0.9949 -1.4997
 3258TIP3    H231266   5.019   5.263  16.013 -1.6100 -2.3292 -2.9445
 3259TIP3   OH231267   3.882   6.671   2.959  0.0372  0.3820  0.0714
 3259TIP3    H131268   3.856   6.755   2.997 -0.5346  0.1919  0.0999
 3259TIP3    H231269   3.967   6.688   2.918  1.3852  0.2437  2.7052
 3260TIP3   OH231270   0.707   4.177  16.053 -0.7725 -0.1557  0.1844
 3260TIP3    H131271   0.783   4.119  16.051 -0.7245 -0.0760 -0.3578
 3260TIP3    H231272   0.712   4.219  16.139  0.7875  1.1277 -0.4980
 3261TIP3   OH231273   1.390   1.410  13.553  0.3230 -0.3174  0.0236
 3261TIP3    H131274   1.406   1.475  13.486  0.0918 -0.6970 -0.4015
 3261TIP3    H231275   1.326   1.450  13.611 -0.1574 -0.3384 -0.4885
 3262TIP3   OH231276   0.721   6.486   7.120  0.0336 -0.3662 -0.5077
 3262TIP3    H131277   0.746   6.404   7.079 -0.8370 -0.6231 -0.5382
 3262TIP3    H231278   0.625   6.483   7.124  0.1129 -0.6312  2.1058
 3263TIP3   OH231279   3.995   0.438  17.059 -0.9962  0.0178  0.7373
 3263TIP3    H131280   3.923   0.423  17.120 -0.0675 -0.7033  1.6567
 3263TIP3    H231281   4.074   0.435  17.112 -0.0962 -1.5941 -0.6221
 3264TIP3   OH231282   0.031   5.622   5.021 -0.2516  0.3173 -0.7923
 3264TIP3    H131283   0.107   5.590   4.972  0.5676 -1.0553  1.3337
 3264TIP3    H231284  -0.044   5.590   4.972  0.5586 -2.4916 -0.2755
 3265TIP3   OH231285   3.261   2.708   5.194  0.0879  0.9585  0.2118
 3265TIP3    H131286   3.277   2.693   5.287  0.1303  0.1361  0.0764
 3265TIP3    H231287   3.188   2.650   5.173  1.1358 -0.0607 -0.6332
 3266TIP3   OH231288   2.182   5.219  13.303 -0.2677 -0.5891 -0.3582
 3266TIP3    H131289   2.278   5.219  13.300 -0.2839  1.1998 -1.0358
 3266TIP3    H231290   2.156   5.242  13.214 -1.3242 -0.0668  0.0909
 3267TIP3   OH231291   0.081   4.992  16.045  0.3398 -0.5199 -0.4079
 3267TIP3    H131292   0.050   4.902  16.041 -0.7556 -0.0907 -2.5654
 3267TIP3    H231293   0.002   5.044  16.059  0.3075  0.4166 -3.7000
 3268TIP3   OH231294   5.610   1.715  13.188 -0.3909  0.4028  0.1806
 3268TIP3    H131295   5.657   1.782  13.238 -0.1759  0.2975  0.1205
 3268TIP3    H231296   5.577   1.655  13.255 -0.7521  0.6792  0.2466
 3269TIP3   OH231297   2.734   1.083   3.548  0.0221  0.1374  0.5212
 3269TIP3    H131298   2.782   1.147   3.496 -1.3466  0.9794  0.2827
 3269TIP3    H231299   2.744   1.000   3.500  2.5793 -0.0617  1.3213
 3270TIP3   OH231300   4.424   1.910   0.618 -0.0159  0.3538  0.0483
 3270TIP3    H131301   4.507   1.869   0.594 -0.6577 -0.4943 -0.7085
 3270TIP3    H231302   4.389   1.855   0.688 -1.0419 -0.5935 -1.2047
 3271TIP3   OH231303   6.293   5.365  15.510 -0.1753 -1.0981  0.4607
 3271TIP3    H131304   6.214   5.383  15.562 -0.6462 -2.0396  0.0716
 3271TIP3    H231305   6.300   5.440  15.451 -0.2236 -0.5320  1.1552
 3272TIP3   OH231306   3.729   2.547  12.456  0.3702 -0.1224  0.2761
 3272TIP3    H131307   3.759   2.601  12.383 -0.3922  0.9297  0.7282
 3272TIP3    H231308   3.808   2.504  12.489  0.7042 -0.6490 -1.2032
 3273TIP3   OH231309   5.566   3.474  17.261  0.4369  0.1006 -0.8189
 3273TIP3    H131310   5.657   3.493  17.239 -0.0217  1.3671 -1.7131
 3273TIP3    H231311   5.531   3.559  17.291  0.3015 -0.9644  2.1998
 3274TIP3   OH231312   2.574   6.139   2.478 -0.1305  0.7202  0.4478
 3274TIP3    H131313   2.536   6.055   2.453  1.2469 -0.4469  2.1164
 3274TIP3    H231314   2.641   6.156   2.412  0.3701 -0.0737  0.7414
 3275TIP3   OH231315   4.860   5.357  11.314 -0.4723 -0.0133 -0.2424
 3275TIP3    H131316   4.894   5.320  11.396 -1.6012  0.0843  0.2793
 3275TIP3    H231317   4.797   5.423  11.343 -0.6312  0.2530 -1.2015
 3276TIP3   OH231318   3.414   3.590  11.475  0.0980  0.0185  0.0573
 3276TIP3    H131319   3.509   3.600  11.486 -0.2244  2.0953  1.1760
 3276TIP3    H231320   3.385   3.674  11.438 -1.6112  0.2359  1.8067
 3277TIP3   OH231321   1.965   4.463  11.627  0.2080  0.0550 -0.6853
 3277TIP3    H131322   1.996   4.535  11.682  0.7967 -1.3706  0.8855
 3277TIP3    H231323   1.934   4.506  11.547  1.4661  1.9621 -0.1842
 3278TIP3   OH231324   5.476   6.713  15.173 -0.3023  0.4847 -0.8766
 3278TIP3    H131325   5.434   6.787  15.129 -2.1492 -0.0799 -0.1215
 3278TIP3    H231326   5.417   6.639  15.156  0.1865 -0.2394  0.5338
 3279TIP3   OH231327   6.270   0.394   1.050  0.4349  0.0477  0.1628
 3279TIP3    H131328   6.322   0.458   1.099  1.1702 -1.0023  0.7969
 3279TIP3    H231329   6.320   0.380   0.969 -0.3216  1.1232 -0.4962
 3280TIP3   OH231330   0.283   3.820  15.870 -0.5314  0.1511 -0.2515
 3280TIP3    H131331   0.346   3.892  15.882  0.0411 -0.3933  0.0409
 3280TIP3    H231332   0.281   3.776  15.956 -0.3678 -0.5822 -0.6184
 3281TIP3   OH231333   0.745   0.805  14.534 -0.1845 -0.0809  0.3616
 3281TIP3    H131334   0.729   0.728  14.589 -2.1502  1.2786  1.7358
 3281TIP3    H231335   0.787   0.868  14.593  1.4317 -0.0614 -0.7644
 3282TIP3   OH231336   2.514   4.892   2.726  0.1239  0.2057 -0.3609
 3282TIP3    H131337   2.509   4.803   2.761  0.2945  0.9890  1.6919
 3282TIP3    H231338   2.423   4.924   2.729 -0.1548 -0.3221 -2.3010
 3283TIP3   OH231339   0.354   6.326   2.434 -0.1079  0.0661 -0.4601
 3283TIP3    H131340   0.434   6.345   2.484  0.5452 -2.0025 -0.6963
 3283TIP3    H231341   0.286   6.315   2.501  0.3626 -0.7749 -0.1117
 3284TIP3   OH231342   5.249   1.452   1.771 -0.2154 -0.3947 -0.3118
 3284TIP3    H131343   5.179   1.497   1.724  0.3257  0.1066 -0.6317
 3284TIP3    H231344   5.223   1.360   1.770 -1.3809 -0.0866  0.4395
 3285TIP3   OH231345   2.212   6.709   3.917  0.5019  0.0630 -0.4182
 3285TIP3    H131346   2.297   6.689   3.878  1.4933  2.2884  0.5250
 3285TIP3    H231347   2.162   6.748   3.845  1.0111  0.6761 -0.4450
 3286TIP3   OH231348   3.639   5.729   0.394 -0.0282 -0.4664  0.3403
 3286TIP3    H131349   3.664   5.741   0.485 -0.7941 -0.3494  0.5350
 3286TIP3    H231350   3.634   5.634   0.383 -0.4398 -0.4693  0.5555
 3287TIP3   OH231351   0.225   1.587   0.371 -0.5454 -0.0678 -0.3237
 3287TIP3    H131352   0.234   1.496   0.342  0.6155  0.4952 -1.8593
 3287TIP3    H231353   0.238   1.639   0.291 -4.3345  1.3821 -0.0911
 3288TIP3   OH231354   5.336   1.169  11.860  0.1999 -0.0193  0.5044
 3288TIP3    H131355   5.283   1.205  11.930  0.3093  0.2880  0.4273
 3288TIP3    H231356   5.426   1.197  11.879  0.2860 -0.2495  0.4485
 3289TIP3   OH231357   0.445   5.867  11.441 -0.2112  0.2941 -0.4258
 3289TIP3    H131358   0.450   5.849  11.535  0.4283  0.7633 -0.3686
 3289TIP3    H231359   0.423   5.783  11.401 -0.5336  0.1046  0.1509
 3290TIP3   OH231360   1.650   2.998  12.455 -0.4557  0.9544  0.3623
 3290TIP3    H131361   1.626   2.905  12.456  0.5178  0.6412 -1.8729
 3290TIP3    H231362   1.742   2.999  12.480 -0.6106  1.3706  0.9125
 3291TIP3   OH231363   1.784   6.417  15.644 -0.2818 -0.1269  0.0024
 3291TIP3    H131364   1.728   6.340  15.637 -0.4913 -0.2067  2.2026
 3291TIP3    H231365   1.815   6.417  15.735  2.5192  0.4594 -0.8870
 3292TIP3   OH231366   3.047   2.883   0.614 -0.2447  0.0544  0.2983
 3292TIP3    H131367   2.968   2.885   0.669 -0.8422 -2.4011 -0.4027
 3292TIP3    H231368   3.111   2.835   0.667  1.3173  3.3174  1.4779
 3293TIP3   OH231369   3.620   2.952   2.697 -0.7371  0.0943  0.3644
 3293TIP3    H131370   3.675   2.920   2.625 -1.1908 -0.2289  0.1561
 3293TIP3    H231371   3.674   2.942   2.775 -0.5215 -0.2828  0.1671
 3294TIP3   OH231372   4.602   3.100  12.733 -0.4493 -0.3758 -0.5996
 3294TIP3    H131373   4.650   3.053  12.664 -1.0381 -0.1050 -1.1981
 3294TIP3    H231374   4.560   3.173  12.688 -0.2060  0.2651  0.1876
 3295TIP3   OH231375   4.139   5.781  15.925  0.0211 -0.7125 -0.2231
 3295TIP3    H131376   4.190   5.725  15.867  0.4999  0.5426 -1.0381
 3295TIP3    H231377   4.202   5.813  15.989  0.2082  0.6057 -1.0560
 3296TIP3   OH231378   5.516   5.717   2.451  0.4326 -0.1859  0.5482
 3296TIP3    H131379   5.505   5.809   2.429  0.9252 -0.4867 -1.0403
 3296TIP3    H231380   5.431   5.690   2.486  0.0353  0.6579  0.2454
 3297TIP3   OH231381   1.502   4.822  15.807 -0.2547  0.9642  0.3258
 3297TIP3    H131382   1.474   4.730  15.808 -0.6093  1.0702  0.3538
 3297TIP3    H231383   1.535   4.837  15.896 -1.8947  1.3694  0.8858
 3298TIP3   OH231384   0.687   2.085  12.185  0.4171  0.5209 -1.1152
 3298TIP3    H131385   0.730   2.004  12.157 -0.0589 -0.1348 -0.0190
 3298TIP3    H231386   0.605   2.055  12.226  0.5933  1.5021 -0.0128
 3299TIP3   OH231387   0.563   6.621  15.099 -0.3310 -0.0273  0.1742
 3299TIP3    H131388   0.595   6.564  15.028  0.1937  1.5732 -0.9002
 3299TIP3    H231389   0.597   6.580  15.179  0.9675 -0.6296 -0.6555
 3300TIP3   OH231390   4.019   5.132  12.947 -0.1600 -0.0152  0.5431
 3300TIP3    H131391   3.958   5.077  12.996  0.6325 -1.1981  0.2255
 3300TIP3    H231392   3.971   5.213  12.932 -0.5267  0.2478  2.9611
 3301TIP3   OH231393   4.448   0.564  14.491 -0.0305  0.4349 -0.0284
 3301TIP3    H131394   4.480   0.475  14.500  0.3395  0.5645 -0.0544
 3301TIP3    H231395   4.442   0.597  14.580  0.4180  0.5904 -0.0572
 3302TIP3   OH231396   3.731   2.852  12.962 -0.0654  0.6604 -0.2382
 3302TIP3    H131397   3.725   2.762  12.931  1.7617  0.8819 -1.3361
 3302TIP3    H231398   3.663   2.899  12.914 -0.1306  0.1392 -0.6662
 3303TIP3   OH231399   5.552   3.457   6.170 -0.1530  0.1023  0.6916
 3303TIP3    H131400   5.639   3.496   6.176 -0.3072  0.1790  2.9290
 3303TIP3    H231401   5.568   3.366   6.144  0.6079  0.0736  1.2340
 3304TIP3   OH231402   0.208   3.370   4.639 -0.6030  0.6087 -0.0548
 3304TIP3    H131403   0.209   3.278   4.612  0.0787  0.1718  1.3741
 3304TIP3    H231404   0.122   3.382   4.680  0.4372 -0.2880  2.5515
 3305TIP3   OH231405   5.284   0.873   1.771 -0.1821  0.2759  0.2683
 3305TIP3    H131406   5.314   0.815   1.700 -1.5515  0.3732 -0.3991
 3305TIP3    H231407   5.191   0.855   1.779 -0.4828  1.8627  0.5512
 3306TIP3   OH231408   5.140   3.883   6.290 -0.3008 -0.7872  0.6081
 3306TIP3    H131409   5.144   3.803   6.343 -0.3560 -0.7949  0.6004
 3306TIP3    H231410   5.051   3.916   6.303 -0.1500 -0.5036  0.9404
 3307TIP3   OH231411   2.352   1.027   0.277  0.1447  0.3725 -0.6226
 3307TIP3    H131412   2.281   0.996   0.221  0.2158  0.4424 -0.7506
 3307TIP3    H231413   2.377   0.951   0.328 -1.4549  0.8597  0.9395
 3308TIP3   OH231414   2.830   2.076  11.804 -0.4101  0.3181  0.0032
 3308TIP3    H131415   2.736   2.089  11.818 -0.7244 -0.3959 -1.3500
 3308TIP3    H231416   2.854   2.141  11.737  0.0415  0.4247  0.2614
 3309TIP3   OH231417   2.307   0.258  12.897  0.0510  0.6542 -0.1852
 3309TIP3    H131418   2.217   0.270  12.866  0.0004 -1.5123 -0.9696
 3309TIP3    H231419   2.301   0.185  12.959  1.4919 -0.5297 -1.4048
 3310TIP3   OH231420   3.214   3.097  13.465  0.3572 -0.1374 -0.3473
 3310TIP3    H131421   3.167   3.180  13.456 -0.1037 -0.5833 -2.4769
 3310TIP3    H231422   3.160   3.045  13.524  0.0356  0.6709  0.0694
 3311TIP3   OH231423   0.589   2.586  15.498  0.1470  0.6107 -0.0613
 3311TIP3    H131424   0.533   2.551  15.428 -0.4577  0.0888  0.6786
 3311TIP3    H231425   0.664   2.526  15.500 -0.1441  0.2501  0.1677
 3312TIP3   OH231426   3.617   6.652   1.150 -0.4568  0.1831  0.5293
 3312TIP3    H131427   3.543   6.689   1.199 -0.1311 -0.5275  1.5663
 3312TIP3    H231428   3.585   6.644   1.060 -1.3828  0.5979  0.8221
 3313TIP3   OH231429   2.272   6.254  11.646  0.0043 -0.2018  0.3056
 3313TIP3    H131430   2.261   6.161  11.667 -1.3940 -0.2454 -0.5552
 3313TIP3    H231431   2.186   6.281  11.612  1.3830  0.5367 -2.7232
 3314TIP3   OH231432   1.421   2.791  12.502  0.2863 -0.4927  0.0187
 3314TIP3    H131433   1.408   2.709  12.455 -2.3177 -0.6521  0.9386
 3314TIP3    H231434   1.354   2.850  12.466  0.4607  0.4238  1.1673
 3315TIP3   OH231435   2.055   6.476  17.270 -0.4315 -0.0061 -0.1967
 3315TIP3    H131436   2.001   6.434  17.337  0.5982  0.0833  0.7103
 3315TIP3    H231437   2.145   6.463  17.301 -0.0730  2.4283 -0.1816
 3316TIP3   OH231438   3.622   5.027   1.580 -0.5821  0.6039  0.8419
 3316TIP3    H131439   3.552   5.010   1.517  1.1259 -2.1440 -0.4053
 3316TIP3    H231440   3.665   5.106   1.548  0.6253 -1.0865 -1.7996
 3317TIP3   OH231441   1.966   0.178  12.646 -0.3193 -0.0302  0.3106
 3317TIP3    H131442   1.897   0.224  12.694 -1.0022  1.2463 -1.7937
 3317TIP3    H231443   1.943   0.086  12.655 -1.4565  0.2964  0.9142
 3318TIP3   OH231444   1.426   4.944  14.219  0.4098  0.1919 -0.4338
 3318TIP3    H131445   1.495   5.006  14.198 -0.5575  1.8584  1.2216
 3318TIP3    H231446   1.466   4.884  14.283  0.7310  0.3172 -0.5180
 3319TIP3   OH231447   1.920   1.399   5.723  0.3020 -0.0084  0.1299
 3319TIP3    H131448   1.887   1.429   5.808  0.2893  1.6937 -0.4499
 3319TIP3    H231449   1.917   1.477   5.668  0.0177 -1.1719 -1.5312
 3320TIP3   OH231450   1.325   3.016  11.115 -0.5277 -0.6306 -0.2740
 3320TIP3    H131451   1.282   3.003  11.030  0.0092  1.0316 -0.8082
 3320TIP3    H231452   1.351   3.108  11.115 -0.1004 -0.7420  1.5044
 3321TIP3   OH231453   1.498   2.640   2.655  0.1033 -0.3212  0.5158
 3321TIP3    H131454   1.426   2.692   2.621 -0.6109 -1.1314  0.7812
 3321TIP3    H231455   1.567   2.648   2.589 -0.2986  0.2964  0.1721
 3322TIP3   OH231456   2.111   3.270   2.428  0.4458 -0.1401 -0.2497
 3322TIP3    H131457   2.143   3.345   2.479 -0.1484  0.9662 -1.4652
 3322TIP3    H231458   2.034   3.239   2.476  2.3689 -1.8640  1.8640
 3323TIP3   OH231459   6.153   5.456  14.899  0.4253  0.7556  0.3843
 3323TIP3    H131460   6.107   5.498  14.826  1.2083  1.5752  0.3445
 3323TIP3    H231461   6.245   5.458  14.872  0.5352 -0.5223  0.6230
 3324TIP3   OH231462   5.305   1.615  15.838 -0.1478 -0.4407 -0.3368
 3324TIP3    H131463   5.282   1.643  15.749  1.1723  0.4994 -0.4047
 3324TIP3    H231464   5.290   1.692  15.892  0.2656 -0.6255  0.0441
 3325TIP3   OH231465   5.796   0.471   3.160  0.0953 -0.5621 -0.2612
 3325TIP3    H131466   5.859   0.423   3.215  0.3444 -1.3046 -1.1859
 3325TIP3    H231467   5.785   0.416   3.083 -0.1373  0.5583 -1.0336
 3326TIP3   OH231468   4.716   3.850  11.497 -0.4532  0.1095 -0.0799
 3326TIP3    H131469   4.785   3.898  11.543 -0.8154  0.2230  0.3424
 3326TIP3    H231470   4.688   3.783  11.558  2.4414 -2.9183 -1.9097
 3327TIP3   OH231471   6.319   0.966  14.686 -0.4394 -0.1696  0.4008
 3327TIP3    H131472   6.311   0.898  14.619  0.2705 -1.9806  2.0928
 3327TIP3    H231473   6.347   1.044  14.638  0.6422 -1.5719 -1.3195
 3328TIP3   OH231474   0.819   2.942  16.998  0.3367 -0.1544 -0.2578
 3328TIP3    H131475   0.727   2.959  16.978  0.4286 -0.1023 -0.6407
 3328TIP3    H231476   0.861   2.937  16.913  0.2995 -2.3545 -0.1916
 3329TIP3   OH231477   5.720   1.858  10.981 -0.0667 -0.2637 -0.0361
 3329TIP3    H131478   5.747   1.770  11.006 -0.8146 -0.1023  1.3256
 3329TIP3    H231479   5.751   1.914  11.052  0.6321  0.6162 -1.0152
 3330TIP3   OH231480   4.385   2.575  10.703 -0.3464  0.2515 -0.3709
 3330TIP3    H131481   4.290   2.573  10.715 -0.2516 -0.2149  0.3040
 3330TIP3    H231482   4.403   2.663  10.669 -1.2512 -0.3485 -2.5196
 3331TIP3   OH231483   4.888   4.358  17.074 -0.0706 -0.5693 -0.0117
 3331TIP3    H131484   4.976   4.389  17.097  0.3632 -0.6808 -1.4622
 3331TIP3    H231485   4.904   4.287  17.012 -1.2245  1.1995 -2.4109
 3332TIP3   OH231486   6.574   3.277  12.045 -0.8266 -0.0572 -0.3124
 3332TIP3    H131487   6.515   3.336  12.092 -0.7025 -0.3647  0.2297
 3332TIP3    H231488   6.599   3.211  12.110 -0.4311 -0.3212 -0.7305
 3333TIP3   OH231489   2.075   0.701  16.483 -0.0936  0.2600 -0.3612
 3333TIP3    H131490   2.019   0.776  16.463 -1.5451 -1.4144 -2.8743
 3333TIP3    H231491   2.156   0.717  16.435  0.0264  0.7342  0.0004
 3334TIP3   OH231492   4.747   1.907  14.499  0.7956 -0.2011 -0.1538
 3334TIP3    H131493   4.672   1.946  14.454 -0.6947 -1.0524  1.4990
 3334TIP3    H231494   4.760   1.962  14.576  0.7352 -1.0834  0.4944
 3335TIP3   OH231495   6.742   1.857   0.564  0.5310 -0.2042  0.5137
 3335TIP3    H131496   6.720   1.768   0.539  2.8734  0.0086 -2.6216
 3335TIP3    H231497   6.674   1.911   0.525  0.3634 -0.4226  0.5043
 3336TIP3   OH231498   4.803   2.093   4.298  0.5077 -0.0226  0.5429
 3336TIP3    H131499   4.732   2.142   4.258 -0.4985 -2.1151 -0.3053
 3336TIP3    H231500   4.761   2.036   4.361  1.6400  0.1016  1.4320
 3337TIP3   OH231501   5.497   0.484  15.484 -0.2482  0.0103 -0.3209
 3337TIP3    H131502   5.443   0.498  15.406 -0.3694 -1.4966 -0.5140
 3337TIP3    H231503   5.576   0.440  15.452  0.2131  0.4134  0.2500
 3338TIP3   OH231504   1.635   1.636   2.486  0.3185  0.3642  0.4556
 3338TIP3    H131505   1.641   1.710   2.426  0.6742  0.1837  0.2687
 3338TIP3    H231506   1.662   1.560   2.434 -1.6968 -0.1722  0.1506
 3339TIP3   OH231507   2.610   6.789   2.921 -0.3677  0.5478 -0.0521
 3339TIP3    H131508   2.618   6.830   2.835 -0.7538 -0.5580 -0.6270
 3339TIP3    H231509   2.672   6.836   2.976 -0.2547  1.3918 -0.8913
 3340TIP3   OH231510   0.538   6.463  13.499  0.0146  0.2109  0.5757
 3340TIP3    H131511   0.605   6.531  13.507  1.0832 -0.9332  1.6006
 3340TIP3    H231512   0.574   6.400  13.436  0.1142 -0.6347  1.4586
 3341TIP3   OH231513   4.711   0.846   5.300  0.1080 -0.5165  0.2484
 3341TIP3    H131514   4.642   0.833   5.366 -0.0903 -2.8364 -0.3944
 3341TIP3    H231515   4.680   0.920   5.248  0.1143  1.1452  2.5453
 3342TIP3   OH231516   4.318   1.266   4.376  0.3948 -0.0061 -0.3368
 3342TIP3    H131517   4.343   1.196   4.316 -0.0661 -0.2579 -0.2320
 3342TIP3    H231518   4.357   1.345   4.338  1.2807 -0.3832 -0.2192
 3343TIP3   OH231519   1.747   5.706   4.859 -0.2998  0.2440  0.2535
 3343TIP3    H131520   1.672   5.730   4.913 -0.2269  2.5824 -0.6259
 3343TIP3    H231521   1.820   5.758   4.894 -0.1113  1.3279 -1.6491
 3344TIP3   OH231522   1.331   6.694  15.642 -0.2844 -0.0303  0.4842
 3344TIP3    H131523   1.426   6.701  15.629 -0.4154  0.8652 -0.0692
 3344TIP3    H231524   1.317   6.717  15.734  0.1759 -1.6277  0.9671
 3345TIP3   OH231525   6.197   2.768  14.055 -0.0364  0.0607  0.1628
 3345TIP3    H131526   6.234   2.680  14.066  1.3955  0.8715  2.1598
 3345TIP3    H231527   6.155   2.786  14.139 -0.4683  1.2072 -0.3040
 3346TIP3   OH231528   0.271   3.397  13.800 -0.1864  0.8684  0.2901
 3346TIP3    H131529   0.278   3.318  13.746  1.7439  0.8672  0.5036
 3346TIP3    H231530   0.212   3.372  13.872  2.5706 -1.3133  1.9116
 3347TIP3   OH231531   5.060   6.720  14.033 -0.1142  0.1279  0.2648
 3347TIP3    H131532   5.025   6.644  14.081 -0.5171  2.6428  4.1357
 3347TIP3    H231533   4.987   6.747  13.977 -1.2581 -0.2007  1.5402
 3348TIP3   OH231534   0.601   5.994  13.404  0.3173  0.1920  0.6039
 3348TIP3    H131535   0.574   6.085  13.418  0.3073  0.0818  1.3112
 3348TIP3    H231536   0.689   6.000  13.367  0.2570  0.4908  0.5076
 3349TIP3   OH231537   0.987   1.156   6.911 -0.5138  0.2807 -0.5022
 3349TIP3    H131538   1.008   1.159   7.004  0.3722 -0.3953 -0.6693
 3349TIP3    H231539   1.047   1.219   6.871 -3.5044  3.4982 -0.1869
 3350TIP3   OH231540   3.249   2.762  17.165 -0.8372  0.4748 -0.1124
 3350TIP3    H131541   3.243   2.840  17.110 -0.5070 -1.3286 -2.8217
 3350TIP3    H231542   3.168   2.714  17.147 -0.1475 -0.7552  0.0275
 3351TIP3   OH231543   3.653   3.462   2.602 -0.6283 -0.3363  0.8549
 3351TIP3    H131544   3.728   3.513   2.633  1.1783 -2.3749 -0.1495
 3351TIP3    H231545   3.619   3.513   2.528  1.4514 -0.7828 -0.4437
 3352TIP3   OH231546   1.671   1.375  11.301  0.1491  0.1602  0.6706
 3352TIP3    H131547   1.685   1.462  11.340  0.0477 -0.4304  2.0485
 3352TIP3    H231548   1.649   1.394  11.210  1.4636  1.5156  0.6022
 3353TIP3   OH231549   3.841   6.230  16.057  0.3705  0.3556  0.8407
 3353TIP3    H131550   3.820   6.152  16.006 -0.4324  0.5916  0.7977
 3353TIP3    H231551   3.840   6.201  16.148  2.4665 -0.2126  0.6973
 3354TIP3   OH231552   0.894   0.369   3.958 -0.8132 -0.0189 -0.6371
 3354TIP3    H131553   0.949   0.369   3.879  2.2072  1.6240  1.3833
 3354TIP3    H231554   0.847   0.452   3.955 -0.8965 -0.0697 -0.7923
 3355TIP3   OH231555   2.799   4.949  13.110  0.4035  0.1360 -0.2686
 3355TIP3    H131556   2.807   4.887  13.183 -1.8733  0.7822  0.5861
 3355TIP3    H231557   2.831   4.901  13.034  0.7490 -1.3256  0.7760
 3356TIP3   OH231558   0.380   0.441  11.405  0.2083  0.0612  0.1824
 3356TIP3    H131559   0.323   0.400  11.470 -0.2745  2.2312  1.1890
 3356TIP3    H231560   0.467   0.405  11.423  0.2540  1.2776  2.6796
 3357TIP3   OH231561   3.450   2.562   4.933  0.1482 -0.1941 -0.0321
 3357TIP3    H131562   3.436   2.499   4.862  1.8889  1.2399 -1.7033
 3357TIP3    H231563   3.415   2.645   4.899 -0.9797  0.0592  1.6589
 3358TIP3   OH231564   3.316   1.172   4.734 -0.5158  0.4264 -0.2035
 3358TIP3    H131565   3.270   1.167   4.818  0.1612 -0.5878  0.1212
 3358TIP3    H231566   3.318   1.081   4.703  2.8310  0.1585  0.6281
 3359TIP3   OH231567   3.596   6.070  11.549  0.1447  0.8263 -0.4697
 3359TIP3    H131568   3.575   6.057  11.456 -0.9162  2.7109 -0.5195
 3359TIP3    H231569   3.558   6.155  11.570 -3.7322 -1.5921  2.9126
 3360TIP3   OH231570   5.745   4.846   1.539 -0.0364 -0.2345  0.0246
 3360TIP3    H131571   5.680   4.817   1.474  0.3004  1.2604 -1.0069
 3360TIP3    H231572   5.713   4.811   1.622 -1.2118 -1.0245 -0.7405
 3361TIP3   OH231573   1.419   4.819  15.390  0.1861  0.2802 -0.3231
 3361TIP3    H131574   1.484   4.887  15.371  1.4479  0.0715  2.8687
 3361TIP3    H231575   1.453   4.740  15.349  0.7739  0.7001 -0.6444
 3362TIP3   OH231576   1.900   4.035   3.821 -0.0855 -0.0683  0.1521
 3362TIP3    H131577   1.889   4.057   3.729  0.1741  0.7664  0.3163
 3362TIP3    H231578   1.871   4.114   3.868 -1.1522 -0.8364  0.8049
 3363TIP3   OH231579   1.870   4.111   4.824  0.0907 -0.2287 -0.1131
 3363TIP3    H131580   1.909   4.086   4.908  1.0522 -0.6126 -0.6669
 3363TIP3    H231581   1.882   4.205   4.819  0.2542 -0.2397  0.0761
 3364TIP3   OH231582   1.467   3.759  11.077  0.1103  0.5222  0.0285
 3364TIP3    H131583   1.472   3.668  11.047 -1.7062  0.2148  0.5939
 3364TIP3    H231584   1.461   3.810  10.997 -1.2120 -0.0418 -0.2483
 3365TIP3   OH231585   3.464   5.235   4.773  0.2453 -0.0840 -0.0817
 3365TIP3    H131586   3.401   5.281   4.829 -0.3526  1.0582 -1.6707
 3365TIP3    H231587   3.450   5.142   4.794  0.4156  0.3454  2.0452
 3366TIP3   OH231588   2.419   2.014  15.945 -0.0808  0.4312 -0.0091
 3366TIP3    H131589   2.331   2.030  15.977 -0.2102  3.4498 -1.7034
 3366TIP3    H231590   2.454   2.101  15.926  1.7999 -0.9227 -3.1414
 3367TIP3   OH231591   1.778   1.686   3.746  0.1325  0.6183 -0.8613
 3367TIP3    H131592   1.864   1.646   3.732 -0.5235 -0.4982 -1.8179
 3367TIP3    H231593   1.716   1.613   3.739 -0.6903  0.8042  3.1130
 3368TIP3   OH231594   5.050   0.122   5.208 -0.1327 -0.1375  0.9333
 3368TIP3    H131595   5.091   0.200   5.171 -0.5258  0.0069  0.8065
 3368TIP3    H231596   5.072   0.124   5.301 -1.7829  1.1555  1.3174
 3369TIP3   OH231597   4.142   4.489  13.813 -0.5835  0.2423  0.4861
 3369TIP3    H131598   4.068   4.503  13.874 -0.7198  1.4892  0.0621
 3369TIP3    H231599   4.102   4.449  13.736 -1.0002  1.7786 -0.1208
 3370TIP3   OH231600   0.130   6.574  15.050  0.2635  0.0957 -0.4165
 3370TIP3    H131601   0.134   6.669  15.055 -0.9681  0.0994  0.8997
 3370TIP3    H231602   0.199   6.550  14.989  1.7671  1.7213  0.6093
 3371TIP3   OH231603   0.431   4.650  15.058  0.1513 -0.0522  0.3176
 3371TIP3    H131604   0.410   4.570  15.106  1.9481 -0.9600 -0.3811
 3371TIP3    H231605   0.502   4.690  15.108  0.8188 -0.0864 -0.5936
 3372TIP3   OH231606   1.175   4.265   2.128  0.0867 -0.1188 -0.1983
 3372TIP3    H131607   1.180   4.174   2.102  0.6594 -0.0282 -0.4061
 3372TIP3    H231608   1.225   4.270   2.209 -0.0460 -0.0102 -0.1209
 3373TIP3   OH231609   6.318   1.483  10.308  0.0218 -0.0366  0.1564
 3373TIP3    H131610   6.330   1.421  10.236 -1.1004 -1.3851  1.1206
 3373TIP3    H231611   6.383   1.457  10.373  1.5071  1.6108 -0.6169
 3374TIP3   OH231612   1.034   4.982  16.895 -0.4180 -0.6411 -0.1284
 3374TIP3    H131613   0.988   4.961  16.813 -0.0732  1.6825 -0.9676
 3374TIP3    H231614   0.971   5.034  16.945  0.0328 -0.4855  0.2767
 3375TIP3   OH231615   4.077   1.925   5.791 -0.5681  0.7220  0.1058
 3375TIP3    H131616   4.158   1.874   5.786 -2.6496 -2.6711 -0.8619
 3375TIP3    H231617   4.056   1.928   5.884  0.7485  1.8452  0.3917
 3376TIP3   OH231618   2.676   0.463   4.384 -0.3521  0.2561  0.1736
 3376TIP3    H131619   2.716   0.503   4.308 -0.1433  1.4347  0.8945
 3376TIP3    H231620   2.596   0.514   4.399 -2.3818 -2.3074 -1.4843
 3377TIP3   OH231621   0.538   1.910   3.672 -0.1653 -0.2716  0.1832
 3377TIP3    H131622   0.554   1.952   3.588  0.7287 -0.9848 -0.0076
 3377TIP3    H231623   0.616   1.930   3.724 -0.6234 -0.0038  0.7746
 3378TIP3   OH231624   0.683   5.513   4.784  0.1032  1.0919 -0.5353
 3378TIP3    H131625   0.700   5.590   4.838 -1.3730  1.0031  0.0834
 3378TIP3    H231626   0.636   5.453   4.842  2.4765 -0.8935 -0.5512
 3379TIP3   OH231627   4.213   5.264   5.322 -0.0340  0.4051 -0.6404
 3379TIP3    H131628   4.162   5.199   5.370 -0.7442  1.9134  0.7229
 3379TIP3    H231629   4.159   5.284   5.245 -0.9750  1.1086  0.1759
 3380TIP3   OH231630   0.221   6.362  11.555  0.1332  0.0266 -0.0713
 3380TIP3    H131631   0.293   6.353  11.617  1.7826  0.7330 -1.8451
 3380TIP3    H231632   0.170   6.437  11.588  0.3471 -0.2898  1.0174
 3381TIP3   OH231633   2.887   0.574   3.361 -0.1365 -0.5692  0.0420
 3381TIP3    H131634   2.826   0.596   3.291  0.6816 -2.0305 -1.1485
 3381TIP3    H231635   2.876   0.480   3.375  0.9582 -0.6142  0.6772
 3382TIP3   OH231636   1.452   4.500  16.609 -0.2964 -0.0524 -0.2693
 3382TIP3    H131637   1.473   4.560  16.537 -0.5025 -0.5782 -0.7749
 3382TIP3    H231638   1.536   4.479  16.649 -0.4579  2.5423  1.5114
 3383TIP3   OH231639   0.186   0.573   4.847  0.9870  0.2752  0.3977
 3383TIP3    H131640   0.219   0.653   4.805 -1.1913  0.2492 -1.4723
 3383TIP3    H231641   0.262   0.516   4.854  1.4603  0.2594 -3.6852
 3384TIP3   OH231642   2.664   1.667   3.197 -0.1730 -0.1406  0.2018
 3384TIP3    H131643   2.637   1.683   3.288 -0.0497  1.1347  0.0322
 3384TIP3    H231644   2.711   1.747   3.172 -1.8117  0.3223 -1.5781
 3385TIP3   OH231645   1.152   6.210  10.919  0.2207 -0.0918 -0.0832
 3385TIP3    H131646   1.180   6.129  10.877  1.0898  0.0482  0.2161
 3385TIP3    H231647   1.064   6.226  10.885  0.2302 -0.9144 -0.4922
 3386TIP3   OH231648   6.340   0.166   1.180  0.3336  0.3794  0.2584
 3386TIP3    H131649   6.399   0.235   1.210  0.7046  0.8273 -1.4825
 3386TIP3    H231650   6.270   0.211   1.133  1.5015 -0.4992 -2.4172
 3387TIP3   OH231651   5.075   6.118   2.003 -0.2812 -0.3048 -0.4002
 3387TIP3    H131652   5.108   6.096   2.090 -0.5757  1.6862  0.2509
 3387TIP3    H231653   4.988   6.154   2.018 -0.9406 -1.3206 -1.6759
 3388TIP3   OH231654   2.069   5.003  14.856 -0.3906  0.2702 -0.2350
 3388TIP3    H131655   2.020   4.923  14.834 -1.4236  0.7938  0.1509
 3388TIP3    H231656   2.159   4.973  14.866 -0.5320 -0.6136 -1.4987
 3389TIP3   OH231657   6.239   2.270  15.662  0.6194 -0.2832 -0.1591
 3389TIP3    H131658   6.230   2.212  15.737  1.9692 -0.3137 -0.0034
 3389TIP3    H231659   6.329   2.255  15.631  0.1374 -0.1660 -1.6849
 3390TIP3   OH231660   3.270   2.699   1.022  0.1672  0.2877  0.0378
 3390TIP3    H131661   3.253   2.631   1.087  0.6652  0.7327  0.6395
 3390TIP3    H231662   3.365   2.706   1.019  0.0782  2.0285  1.0981
 3391TIP3   OH231663   2.795   4.735  15.600  0.4859  0.0813  0.3561
 3391TIP3    H131664   2.723   4.674  15.588 -0.0535  0.4260  1.7401
 3391TIP3    H231665   2.874   4.680  15.601  0.1168 -0.4514  0.3481
 3392TIP3   OH231666   5.000   6.492  15.596  0.6239  0.2864 -0.0432
 3392TIP3    H131667   5.052   6.491  15.515  1.7174 -0.8044  0.6518
 3392TIP3    H231668   4.911   6.512  15.567  0.9857 -0.1570 -1.5357
 3393TIP3   OH231669   2.628   5.690  14.771 -0.2918 -0.4117 -0.0923
 3393TIP3    H131670   2.543   5.719  14.737  0.1913  0.2168 -0.7872
 3393TIP3    H231671   2.685   5.685  14.694  0.4804 -0.1704  0.4476
 3394TIP3   OH231672   2.776   3.210   5.765 -0.1914 -0.2557  0.8602
 3394TIP3    H131673   2.838   3.258   5.710  0.0944  0.6132  1.9057
 3394TIP3    H231674   2.697   3.265   5.765 -0.8361 -1.1540 -0.1338
 3395TIP3   OH231675   0.235   5.764  16.471  0.1720 -0.1562 -0.3503
 3395TIP3    H131676   0.168   5.776  16.538  0.5224 -0.8269  0.1246
 3395TIP3    H231677   0.224   5.674  16.441  1.2517 -0.4720  0.1664
 3396TIP3   OH231678   6.514   6.739  13.126  0.2714 -0.1063  0.1084
 3396TIP3    H131679   6.443   6.712  13.067 -1.7031  2.3372  1.2573
 3396TIP3    H231680   6.552   6.817  13.084  0.3451  0.3060  0.9338
 3397TIP3   OH231681   4.646   3.547  15.541  0.0314 -0.0658  0.4878
 3397TIP3    H131682   4.704   3.519  15.470  0.3408 -0.9956  1.1051
 3397TIP3    H231683   4.681   3.632  15.567 -0.0165  0.2330 -0.3978
 3398TIP3   OH231684   1.587   5.578   5.574 -0.5346 -0.8905 -0.6331
 3398TIP3    H131685   1.655   5.516   5.548  0.4085  0.1090 -0.6096
 3398TIP3    H231686   1.529   5.584   5.498  1.6578  1.2611 -2.2376
 3399TIP3   OH231687   3.716   4.191   3.158 -0.2572  0.7079  0.1049
 3399TIP3    H131688   3.650   4.143   3.108  0.6495 -0.5534  0.1181
 3399TIP3    H231689   3.666   4.230   3.230 -1.0425 -0.0194 -0.0298
 3400TIP3   OH231690   2.970   4.668  14.055 -0.5472 -0.0098  0.5477
 3400TIP3    H131691   3.012   4.624  13.982 -0.4132 -0.3107  0.8076
 3400TIP3    H231692   3.016   4.752  14.062 -0.8602  0.2127  0.0043
 3401TIP3   OH231693   1.583   2.954  15.918  0.0797  0.8259 -0.3732
 3401TIP3    H131694   1.501   2.905  15.914  0.3323  0.3915 -0.3867
 3401TIP3    H231695   1.568   3.021  15.984  0.1698 -0.1369  0.6564
 3402TIP3   OH231696   1.995   5.509   1.806  0.5542 -0.4520  0.1488
 3402TIP3    H131697   1.930   5.561   1.758  2.1155  1.3000 -0.1398
 3402TIP3    H231698   1.987   5.421   1.770 -1.4552 -0.1986 -0.0867
 3403TIP3   OH231699   1.652   3.143   2.539  0.1477  0.3498 -0.3288
 3403TIP3    H131700   1.657   3.239   2.535 -0.9300  0.3453 -2.0414
 3403TIP3    H231701   1.646   3.115   2.448 -0.3115 -1.3187  0.1900
 3404TIP3   OH231702   5.456   0.710  14.281  0.1489 -1.0327 -0.0658
 3404TIP3    H131703   5.492   0.799  14.277 -0.2930 -0.8460  0.1535
 3404TIP3    H231704   5.433   0.697  14.373 -0.1306 -1.2399 -0.1652
 3405TIP3   OH231705   5.981   4.970  16.780  0.3387  0.0621  0.0504
 3405TIP3    H131706   5.974   5.058  16.743  0.9091  0.1960  0.2490
 3405TIP3    H231707   6.053   4.929  16.732  0.5024 -0.0673  0.4017
 3406TIP3   OH231708   3.910   2.810  15.376  0.1325 -0.8464 -0.6219
 3406TIP3    H131709   3.885   2.824  15.284  0.1259 -0.3055 -0.5390
 3406TIP3    H231710   3.830   2.778  15.418  0.3575 -1.9022 -0.9825
 3407TIP3   OH231711   3.505   3.656  16.035 -0.5950  0.3538 -0.1477
 3407TIP3    H131712   3.567   3.586  16.014 -1.0721 -0.0677 -0.1409
 3407TIP3    H231713   3.495   3.651  16.130 -0.4647  0.5770 -0.1209
 3408TIP3   OH231714   2.502   0.051  16.204 -0.2928  0.1024  0.2584
 3408TIP3    H131715   2.571   0.013  16.150 -0.2226  1.2107 -0.4382
 3408TIP3    H231716   2.475  -0.021  16.262 -0.0405 -0.9512 -0.9108
 3409TIP3   OH231717   1.130   3.656  16.289 -0.0889 -0.5095  0.1082
 3409TIP3    H131718   1.222   3.634  16.305  0.9830  2.3744 -1.6925
 3409TIP3    H231719   1.120   3.652  16.194 -0.4670  3.9461 -0.1316
 3410TIP3   OH231720   0.623   4.538  15.394 -0.5831 -0.1372  0.0584
 3410TIP3    H131721   0.693   4.576  15.447  0.5650  0.6542 -1.9712
 3410TIP3    H231722   0.548   4.595  15.409  0.2898  1.2130 -0.6779
 3411TIP3   OH231723   0.583   1.341   2.904 -0.5057 -0.2095  0.1149
 3411TIP3    H131724   0.668   1.386   2.901 -0.5066 -0.0910  1.5083
 3411TIP3    H231725   0.606   1.249   2.917 -0.5442 -0.3985 -1.1767
 3412TIP3   OH231726   4.810   0.686  14.930 -0.3674 -0.0524  0.2678
 3412TIP3    H131727   4.892   0.716  14.968  0.6086  0.5004 -2.2051
 3412TIP3    H231728   4.752   0.672  15.006  1.7516  0.2153  1.9793
 3413TIP3   OH231729   4.464   5.215   2.196 -0.6069 -0.0329  0.2315
 3413TIP3    H131730   4.468   5.221   2.100 -2.6978  2.4090  0.2279
 3413TIP3    H231731   4.370   5.211   2.215 -0.3151  1.9898  2.2805
 3414TIP3   OH231732   3.940   0.242   4.817 -0.1571 -0.0333  0.7786
 3414TIP3    H131733   3.913   0.151   4.831  0.2074 -0.3150 -0.3336
 3414TIP3    H231734   4.018   0.236   4.762 -0.1199  0.9488  0.7141
 3415TIP3   OH231735   1.398   5.189  13.056 -0.0945 -0.4431  0.2017
 3415TIP3    H131736   1.414   5.117  12.994  2.6216 -0.8522  1.3010
 3415TIP3    H231737   1.360   5.146  13.132 -2.8389 -0.0253 -0.8718
 3416TIP3   OH231738   3.835   3.167   3.869  0.4220 -0.0398  0.2541
 3416TIP3    H131739   3.813   3.131   3.955  2.5769  1.2919  1.3847
 3416TIP3    H231740   3.900   3.107   3.833 -1.4204 -1.3272 -1.0634
 3417TIP3   OH231741   6.104   1.025  14.926  0.7627 -0.3094  0.3509
 3417TIP3    H131742   6.122   1.032  14.832  0.2686 -1.2510  0.1749
 3417TIP3    H231743   6.021   1.073  14.938  1.8140  1.4717  0.6510
 3418TIP3   OH231744   5.169   3.445   2.806  0.1770 -0.3127  0.1328
 3418TIP3    H131745   5.103   3.431   2.874  1.1920 -0.7445  1.0478
 3418TIP3    H231746   5.132   3.513   2.750 -1.2002 -0.8069  0.4189
 3419TIP3   OH231747   5.981   1.783  15.110 -0.3157  0.1272 -0.2328
 3419TIP3    H131748   5.998   1.805  15.018 -1.7139 -0.6384 -0.6844
 3419TIP3    H231749   5.995   1.865  15.157  2.3427  0.0962 -0.8511
 3420TIP3   OH231750   1.024   4.627   3.649  0.4314 -0.3742 -0.3688
 3420TIP3    H131751   1.110   4.591   3.628  0.9223  0.4388  0.2292
 3420TIP3    H231752   1.035   4.722   3.643 -0.4336 -0.2665 -0.3244
 3421TIP3   OH231753   5.284   1.696   3.552 -0.3201  0.5829 -0.0058
 3421TIP3    H131754   5.324   1.725   3.470 -0.3170 -0.7012 -0.4704
 3421TIP3    H231755   5.324   1.752   3.619  1.0089  0.4380 -0.6612
 3422TIP3   OH231756   3.280   3.424  10.928 -0.0594 -0.0000  0.0221
 3422TIP3    H131757   3.302   3.426  10.834  0.3280 -1.1525  0.0707
 3422TIP3    H231758   3.206   3.483  10.937 -0.2973 -0.1145 -1.0755
 3423TIP3   OH231759   1.354   5.866  16.708  0.6820 -0.4816 -0.1740
 3423TIP3    H131760   1.430   5.924  16.715  0.0619  0.5024 -1.3476
 3423TIP3    H231761   1.319   5.861  16.797 -0.1445  2.1931 -0.3034
 3424TIP3   OH231762   5.532   0.259  16.875  0.1374  0.0566  0.6177
 3424TIP3    H131763   5.510   0.352  16.876  0.7098  0.1989 -0.0458
 3424TIP3    H231764   5.460   0.217  16.923 -1.1564  0.6153 -0.7975
 3425TIP3   OH231765   4.318   4.550  16.779  0.7315 -0.1786  0.1337
 3425TIP3    H131766   4.349   4.461  16.759  2.2056  0.0757  1.1978
 3425TIP3    H231767   4.339   4.562  16.872 -1.7319  0.3772  0.6727
 3426TIP3   OH231768   5.110   2.855  10.909  0.0354 -0.3475 -0.2666
 3426TIP3    H131769   5.190   2.893  10.944 -0.4623 -0.4179  0.9650
 3426TIP3    H231770   5.105   2.887  10.819  1.5982 -0.5876 -0.4544
 3427TIP3   OH231771   2.740   1.670   1.963  0.4825  0.1790 -0.1046
 3427TIP3    H131772   2.707   1.605   2.025  2.3698  0.2199  0.9844
 3427TIP3    H231773   2.830   1.688   1.992  0.7004  1.7304 -1.6266
 3428TIP3   OH231774   0.897   5.204   2.306  0.2096 -0.2895 -0.0432
 3428TIP3    H131775   0.849   5.264   2.249 -0.6020  2.8030  3.7120
 3428TIP3    H231776   0.988   5.234   2.300  0.2765 -0.5714 -0.4420
 3429TIP3   OH231777   0.764   1.888   4.574 -0.3457  0.4808  0.0703
 3429TIP3    H131778   0.835   1.872   4.511 -2.3144 -0.3034 -2.0329
 3429TIP3    H231779   0.744   1.801   4.610 -1.1342  0.4645 -0.3822
 3430TIP3   OH231780   1.269   0.461  14.589  0.3475 -0.3378 -0.1296
 3430TIP3    H131781   1.225   0.497  14.512  1.0992  0.8254 -0.0306
 3430TIP3    H231782   1.222   0.380  14.608 -0.1425 -0.3900 -1.5309
 3431TIP3   OH231783   0.255   3.698  15.516 -0.2692  0.3209 -0.5347
 3431TIP3    H131784   0.318   3.702  15.444  0.1570  0.2358 -0.1709
 3431TIP3    H231785   0.223   3.787  15.525  0.3771  0.5242 -0.2160
 3432TIP3   OH231786   5.241   1.989   6.166 -0.6972  0.4050 -0.0076
 3432TIP3    H131787   5.311   1.986   6.101 -1.4257  0.9602 -0.8521
 3432TIP3    H231788   5.260   1.918   6.227  0.4318  0.3735 -0.3915
 3433TIP3   OH231789   4.045   1.224   3.853 -0.7798 -0.3872  0.2396
 3433TIP3    H131790   3.986   1.212   3.779 -0.8351 -2.2501  0.5606
 3433TIP3    H231791   4.042   1.318   3.871 -2.1899 -0.1867 -0.9412
 3434TIP3   OH231792   2.158   4.385   1.408 -0.0424 -0.3092 -0.1842
 3434TIP3    H131793   2.190   4.463   1.454  0.2464 -0.3202 -0.3618
 3434TIP3    H231794   2.075   4.365   1.449  0.4571 -0.6209  0.6849
 3435TIP3   OH231795   1.077   1.504   6.341  0.3672  0.1454  0.4549
 3435TIP3    H131796   1.049   1.483   6.431  0.3532  0.2890  0.4843
 3435TIP3    H231797   1.019   1.452   6.286  0.0017  0.4870  0.5141
 3436TIP3   OH231798   1.588   4.206  16.616  0.1281 -0.1290 -0.5352
 3436TIP3    H131799   1.499   4.213  16.580 -1.0333  0.5109  2.3344
 3436TIP3    H231800   1.581   4.137  16.682  1.5480  0.5775  0.3592
 3437TIP3   OH231801   4.403   3.160  12.385 -0.0186 -0.5920 -1.1163
 3437TIP3    H131802   4.313   3.133  12.400  0.0742 -0.4748 -0.3585
 3437TIP3    H231803   4.451   3.078  12.375  0.3558 -0.7720  1.7008
 3438TIP3   OH231804   2.277   2.994   5.062  0.3322 -0.9136 -0.3882
 3438TIP3    H131805   2.210   2.953   5.007 -0.8891 -0.5797  0.8212
 3438TIP3    H231806   2.340   3.031   5.000 -1.1345 -0.3429 -1.5690
 3439TIP3   OH231807   6.563   2.739   2.792  0.1928 -0.2557  0.6459
 3439TIP3    H131808   6.612   2.820   2.804 -0.9032  0.5249 -0.0022
 3439TIP3    H231809   6.623   2.680   2.745  1.0110  0.1508  1.1746
 3440TIP3   OH231810   6.087   3.396   0.643  0.0643  0.0291 -0.1376
 3440TIP3    H131811   6.115   3.325   0.586 -0.6019  0.6776 -1.2938
 3440TIP3    H231812   6.065   3.353   0.726  2.5697 -0.7352  0.1955
 3441TIP3   OH231813   3.952   3.303   5.753  0.0509 -0.4034 -0.1058
 3441TIP3    H131814   3.905   3.239   5.698  1.3506 -0.0894 -1.6183
 3441TIP3    H231815   3.941   3.270   5.842  0.5527 -2.6731 -0.8325
 3442TIP3   OH231816   5.416   1.558  13.720 -0.0983 -0.2583  0.4385
 3442TIP3    H131817   5.453   1.647  13.714  0.3450 -0.4349  0.5079
 3442TIP3    H231818   5.356   1.552  13.646  0.9923 -0.4127 -0.4550
 3443TIP3   OH231819   5.512   4.434  15.219 -0.0901  0.3159  0.7313
 3443TIP3    H131820   5.430   4.439  15.170 -0.4100  0.4458  1.2845
 3443TIP3    H231821   5.579   4.419  15.152 -0.5657  0.1906  0.2857
 3444TIP3   OH231822   5.390   0.743  13.357 -0.0495 -0.2868  0.3625
 3444TIP3    H131823   5.426   0.826  13.325 -0.0081 -0.9480 -1.3964
 3444TIP3    H231824   5.333   0.768  13.429  0.0878  1.2607 -0.0326
 3445TIP3   OH231825   5.412   2.580   0.009  0.1350 -0.0371  0.1359
 3445TIP3    H131826   5.377   2.657  -0.037  0.5804 -0.5211 -1.0247
 3445TIP3    H231827   5.462   2.616   0.082 -0.3903  0.7450  0.1182
 3446TIP3   OH231828   4.959   6.686  13.271  0.4425 -0.0877  0.7156
 3446TIP3    H131829   5.036   6.675  13.327 -0.3867  3.3833  2.7052
 3446TIP3    H231830   4.916   6.765  13.304 -2.6060 -0.4886 -1.9693
 3447TIP3   OH231831   6.349   1.489  10.971 -0.2070 -0.0750 -0.0096
 3447TIP3    H131832   6.378   1.487  10.879 -0.0458 -1.4064  0.0526
 3447TIP3    H231833   6.280   1.555  10.973  0.0484  0.2272 -1.0219
 3448TIP3   OH231834   2.129   2.470  15.077  0.3008  0.3867  0.8406
 3448TIP3    H131835   2.140   2.514  15.161 -0.5491  0.1020  1.1073
 3448TIP3    H231836   2.035   2.454  15.071  0.1798  1.6358 -0.7839
 3449TIP3   OH231837   6.517   2.935  12.927  0.2515  0.3520 -0.2900
 3449TIP3    H131838   6.608   2.914  12.903  0.2507 -1.0534  0.8150
 3449TIP3    H231839   6.494   2.867  12.991 -1.6620  0.5625 -0.7386
 3450TIP3   OH231840   0.634   0.422  16.465 -0.3844  0.0590  0.7590
 3450TIP3    H131841   0.681   0.366  16.527 -1.7534 -0.9962  0.8695
 3450TIP3    H231842   0.655   0.386  16.379  1.4358  1.4629  0.5856
 3451TIP3   OH231843   5.763   1.057  11.384  1.0145 -0.3921  0.6423
 3451TIP3    H131844   5.832   1.095  11.439 -0.7024  2.3659  1.0006
 3451TIP3    H231845   5.723   1.132  11.340 -1.2000 -2.0121 -0.2120
 3452TIP3   OH231846   2.592   0.056  12.510  0.2853 -0.2017 -0.0140
 3452TIP3    H131847   2.585   0.086  12.419  0.1296 -1.5170 -0.4474
 3452TIP3    H231848   2.671   0.099  12.544  1.8409 -1.7790 -1.5817
 3453TIP3   OH231849   3.690   2.353   2.832 -0.2456 -0.1885  0.0698
 3453TIP3    H131850   3.651   2.265   2.840  0.4843 -0.4588  0.6350
 3453TIP3    H231851   3.767   2.340   2.778  0.2895 -0.0248  0.7891
 3454TIP3   OH231852   6.636   0.520   5.735  0.4486 -0.4371  0.3448
 3454TIP3    H131853   6.731   0.522   5.749  0.2593 -0.4487  1.6889
 3454TIP3    H231854   6.599   0.538   5.821 -0.7942 -3.1550  0.4298
 3455TIP3   OH231855   0.057   3.077   4.898 -0.2582 -0.0538 -0.0790
 3455TIP3    H131856   0.135   3.023   4.895  1.1163  1.9456 -1.9380
 3455TIP3    H231857   0.089   3.163   4.926 -2.1321  0.2680  1.1904
 3456TIP3   OH231858   5.152   0.023  10.888 -0.7216 -0.0637  0.1058
 3456TIP3    H131859   5.110   0.038  10.803 -0.3722 -0.6800 -0.1824
 3456TIP3    H231860   5.218  -0.044  10.870 -0.5813 -0.1249  0.8452
 3457TIP3   OH231861   2.580   3.659   0.766 -0.2155 -0.6030  0.0492
 3457TIP3    H131862   2.521   3.713   0.818 -0.4338 -0.8295  0.0368
 3457TIP3    H231863   2.578   3.699   0.679 -0.6815 -0.8678 -0.0611
 3458TIP3   OH231864   4.015   4.363  15.509  0.1876 -0.1684 -0.3176
 3458TIP3    H131865   4.018   4.324  15.421  1.0863 -1.6015  0.3271
 3458TIP3    H231866   4.105   4.356  15.541 -0.4152 -0.8753  1.2358
 3459TIP3   OH231867   1.803   3.654   1.206  0.4166  0.2883  0.2890
 3459TIP3    H131868   1.891   3.692   1.203  0.5633 -0.1303 -1.0225
 3459TIP3    H231869   1.766   3.686   1.288  2.2864 -0.6193  1.5348
 3460TIP3   OH231870   1.610   6.347   1.291  0.7079 -0.2245 -0.1138
 3460TIP3    H131871   1.685   6.339   1.349  0.1962  0.9594  0.7311
 3460TIP3    H231872   1.574   6.258   1.286  0.7407 -0.3355  1.3972
 3461TIP3   OH231873   5.289   3.013   2.010 -0.1034  0.3962 -0.6234
 3461TIP3    H131874   5.284   2.920   2.034  0.0555  0.5489  0.0102
 3461TIP3    H231875   5.354   3.050   2.070 -2.9965  1.7322  1.8184
 3462TIP3   OH231876   3.473   2.870   5.105  0.0268 -0.6329  0.4022
 3462TIP3    H131877   3.513   2.841   5.023 -1.5836  0.0473 -0.6455
 3462TIP3    H231878   3.409   2.801   5.127 -0.9696  0.1644  0.0185
 3463TIP3   OH231879   1.442   0.093   0.360  0.1669 -0.3419  0.0134
 3463TIP3    H131880   1.350   0.083   0.338  0.3973 -1.5722 -0.4018
 3463TIP3    H231881   1.472   0.167   0.307 -0.4737 -0.2032 -0.1521
 3464TIP3   OH231882   5.607   3.450   4.853 -0.7154  0.1724  0.0175
 3464TIP3    H131883   5.589   3.496   4.935  0.4012 -0.1407  0.4482
 3464TIP3    H231884   5.567   3.505   4.785 -0.9833  0.8198  0.6924
 3465TIP3   OH231885   4.559   1.505  11.312 -0.3428 -0.0546 -0.1787
 3465TIP3    H131886   4.507   1.567  11.363  1.4602  2.9278 -1.8210
 3465TIP3    H231887   4.554   1.537  11.222  2.5298 -0.9425 -0.7173
 3466TIP3   OH231888   5.158   1.567  11.365 -0.5821  0.1345 -0.2878
 3466TIP3    H131889   5.122   1.533  11.447 -1.0194 -0.2520 -0.6397
 3466TIP3    H231890   5.082   1.597  11.315 -0.3283  0.2564 -0.6085
 3467TIP3   OH231891   5.218   6.728   4.275 -0.3246 -0.6035  0.7705
 3467TIP3    H131892   5.214   6.792   4.346  1.5011 -1.3644  1.6116
 3467TIP3    H231893   5.299   6.748   4.229  0.1303 -2.1154  0.8815
 3468TIP3   OH231894   2.810   5.722   0.051  0.0514 -0.6820 -0.0012
 3468TIP3    H131895   2.838   5.692   0.137 -0.8697 -1.7383 -0.0610
 3468TIP3    H231896   2.742   5.660   0.024 -0.1479  0.0267 -1.1963
 3469TIP3   OH231897   3.025   3.935   5.760  0.0207  0.2439  0.0467
 3469TIP3    H131898   2.939   3.973   5.780 -0.9211 -2.3410  1.1671
 3469TIP3    H231899   3.059   3.989   5.689 -2.7315  1.0674 -0.7182
 3470TIP3   OH231900   4.358   4.745  16.385 -0.1182  0.0435  0.7419
 3470TIP3    H131901   4.398   4.708  16.464  1.7693  0.8681  0.1894
 3470TIP3    H231902   4.264   4.748  16.405  0.3710  0.6125  3.1279
 3471TIP3   OH231903   0.943   5.783   5.243  0.1775  0.2116  0.1115
 3471TIP3    H131904   0.903   5.808   5.326 -0.5713  2.6599 -0.9642
 3471TIP3    H231905   0.870   5.749   5.191  0.6403 -1.2831  0.4136
 3472TIP3   OH231906   5.695   4.999   5.605 -0.8006  0.3296  0.3470
 3472TIP3    H131907   5.774   4.948   5.619 -0.4747  1.1997  1.7986
 3472TIP3    H231908   5.653   4.959   5.529  0.5695 -0.6958  0.1233
 3473TIP3   OH231909   1.188   1.559  13.669 -0.1276 -0.2448 -0.2890
 3473TIP3    H131910   1.175   1.494  13.739  0.2477  0.0957  0.0988
 3473TIP3    H231911   1.164   1.642  13.709  0.5347  0.0146 -0.4256
 3474TIP3   OH231912   4.095   5.159   0.915 -0.4240  0.5572  0.7300
 3474TIP3    H131913   4.096   5.184   0.823  2.0324 -1.5201  0.1454
 3474TIP3    H231914   4.121   5.067   0.915 -3.8374 -0.5004  3.2317
 3475TIP3   OH231915   0.970   2.629  11.581  0.3892  0.4401  0.2051
 3475TIP3    H131916   0.963   2.579  11.499 -1.0288  0.6163  0.2063
 3475TIP3    H231917   0.882   2.666  11.594  0.3809 -0.2330  2.2301
 3476TIP3   OH231918   5.742   5.698   4.399  0.1406  0.1030  0.4340
 3476TIP3    H131919   5.687   5.629   4.362 -0.4563  0.6538  0.2893
 3476TIP3    H231920   5.681   5.754   4.447  0.4473  1.2465 -0.5127
 3477TIP3   OH231921   4.033   3.887   1.361  0.0499  0.3847  0.3268
 3477TIP3    H131922   4.007   3.837   1.438  0.1800  1.2130  0.9068
 3477TIP3    H231923   4.121   3.920   1.382  0.3234  0.1344 -0.4028
 3478TIP3   OH231924   4.044   0.237  12.721  0.5014 -0.4394  0.3120
 3478TIP3    H131925   4.107   0.252  12.791 -1.5414 -1.5077  2.4563
 3478TIP3    H231926   4.070   0.153  12.682  1.3485 -0.0921  0.1456
 3479TIP3   OH231927   6.727   4.270  12.833 -0.3141 -0.0392 -0.2362
 3479TIP3    H131928   6.727   4.182  12.795 -0.4215 -0.0430 -0.2289
 3479TIP3    H231929   6.803   4.271  12.892 -0.9148 -0.4721  0.5588
 3480TIP3   OH231930   2.857   5.745  16.146 -0.4239 -0.5650 -0.1240
 3480TIP3    H131931   2.794   5.785  16.086  0.1297 -1.4502 -1.2982
 3480TIP3    H231932   2.883   5.663  16.103 -0.6025 -1.5944  1.6643
 3481TIP3   OH231933   2.214   1.644   1.336 -0.0577 -0.1114  0.0362
 3481TIP3    H131934   2.235   1.551   1.341 -0.1306 -0.2095 -1.3902
 3481TIP3    H231935   2.293   1.685   1.301 -0.7804  0.0610 -1.4417
 3482TIP3   OH231936   2.168   5.722   4.558  0.4601 -0.3435 -0.1387
 3482TIP3    H131937   2.109   5.706   4.632 -1.4418  0.1749 -1.4837
 3482TIP3    H231938   2.253   5.737   4.598 -0.7267  0.9748  2.0139
 3483TIP3   OH231939   1.575   3.539   1.134  0.0776 -0.4774  0.5675
 3483TIP3    H131940   1.593   3.447   1.116  0.4602 -0.3430  0.2237
 3483TIP3    H231941   1.660   3.575   1.160 -0.1098 -0.2650  0.8845
 3484TIP3   OH231942   4.390   5.186   0.811 -0.3181 -0.0855 -0.5641
 3484TIP3    H131943   4.308   5.174   0.763  0.7185 -0.3054 -2.3295
 3484TIP3    H231944   4.452   5.127   0.767  0.6835 -0.2298  1.0041
 3485TIP3   OH231945   0.029   5.323  13.923  0.3029  1.0391  0.0174
 3485TIP3    H131946  -0.017   5.317  14.007  1.5371 -0.5081  0.6076
 3485TIP3    H231947   0.020   5.236  13.885 -2.8660  2.5010 -2.9270
 3486TIP3   OH231948   6.708   3.418  14.285  0.1099 -0.3017  0.4083
 3486TIP3    H131949   6.782   3.401  14.228  0.4061 -1.1481  1.0369
 3486TIP3    H231950   6.643   3.460  14.228  1.7461  2.1406  0.2645
 3487TIP3   OH231951   0.215   1.017  14.953 -0.1243 -0.1007  0.1726
 3487TIP3    H131952   0.150   1.083  14.980 -0.6823  0.1006 -1.5913
 3487TIP3    H231953   0.177   0.978  14.874  1.1485 -1.1374  0.0694
 3488TIP3   OH231954   3.422   4.807  15.831  0.5638  0.4660 -0.0894
 3488TIP3    H131955   3.347   4.863  15.811  0.9976  0.5754 -1.4004
 3488TIP3    H231956   3.418   4.736  15.767  0.6648 -0.4074  0.8521
 3489TIP3   OH231957   6.808   5.619   4.628  0.3439 -0.0910 -0.4368
 3489TIP3    H131958   6.854   5.685   4.681 -0.5299  0.9360 -0.9494
 3489TIP3    H231959   6.771   5.668   4.555  1.8011 -1.5382 -2.2159
 3490TIP3   OH231960   0.644   6.128  12.803 -0.2190  0.0817 -0.2287
 3490TIP3    H131961   0.595   6.180  12.740  1.3425  0.7214 -0.9431
 3490TIP3    H231962   0.679   6.191  12.865  3.5438  0.2350 -2.3559
 3491TIP3   OH231963   4.766   4.083   2.347  0.0372  0.3161  0.3449
 3491TIP3    H131964   4.775   4.139   2.425  1.9885 -0.0433  0.3975
 3491TIP3    H231965   4.775   3.994   2.381 -0.3745  0.0959 -0.1261
 3492TIP3   OH231966   6.811   5.190   0.043  0.5216  0.1127 -0.1582
 3492TIP3    H131967   6.880   5.146   0.093 -1.0735 -0.9339  1.1823
 3492TIP3    H231968   6.811   5.280   0.076  0.3442 -0.2419  0.8229
 3493TIP3   OH231969   5.960   0.631   2.863 -0.2844 -0.4927 -0.6476
 3493TIP3    H131970   5.865   0.627   2.872 -0.4076  0.6303 -1.3449
 3493TIP3    H231971   5.993   0.624   2.953 -0.9617 -2.1199 -0.5131
 3494TIP3   OH231972   0.858   6.301  16.619  0.8857 -0.1186  0.6497
 3494TIP3    H131973   0.852   6.343  16.705  0.3937  1.6379 -0.2008
 3494TIP3    H231974   0.891   6.213  16.637 -2.0024 -0.8211  2.9443
 3495TIP3   OH231975   6.400   2.315   1.924 -0.0431  0.5637  0.0889
 3495TIP3    H131976   6.331   2.316   1.990 -1.0565  0.1605 -0.9396
 3495TIP3    H231977   6.407   2.223   1.899 -1.2535  0.9938 -1.9710
 3496TIP3   OH231978   5.903   1.405  14.533 -0.1292 -0.0092 -0.4098
 3496TIP3    H131979   5.834   1.368  14.478 -0.3391 -0.1272 -0.0665
 3496TIP3    H231980   5.959   1.453  14.472  0.8702 -1.9481 -1.0428
 3497TIP3   OH231981   1.162   3.335   1.316  0.5818  0.2359  0.1506
 3497TIP3    H131982   1.191   3.401   1.379 -2.0010  0.7656  0.8661
 3497TIP3    H231983   1.097   3.379   1.263 -0.0067 -1.2821 -0.4229
 3498TIP3   OH231984   1.141   5.020  17.201  0.4001  0.3891  0.6284
 3498TIP3    H131985   1.049   5.020  17.175  0.5220  0.3185  0.1978
 3498TIP3    H231986   1.190   5.018  17.119  0.7978  1.3586  0.8322
 3499TIP3   OH231987   5.750   3.164  13.232 -0.1035 -0.2369 -0.1976
 3499TIP3    H131988   5.693   3.241  13.237  2.0114  1.3531  0.1668
 3499TIP3    H231989   5.726   3.122  13.150 -1.0698  0.9946 -0.5658
 3500TIP3   OH231990   6.776   5.329  11.705  0.0565 -0.1363  0.6413
 3500TIP3    H131991   6.686   5.322  11.673 -0.1066 -0.1157  1.0991
 3500TIP3    H231992   6.826   5.356  11.628 -0.1679 -1.1236  0.1434
 3501TIP3   OH231993   2.786   3.759   0.117 -0.1926  0.7693 -0.3338
 3501TIP3    H131994   2.699   3.789   0.091 -1.1270 -0.7965  0.8980
 3501TIP3    H231995   2.841   3.837   0.113 -1.8314  1.9376 -0.3462
 3502TIP3   OH231996   4.358   6.386  16.119 -0.3694  0.0483  0.0172
 3502TIP3    H131997   4.265   6.403  16.134 -0.4177  0.7123 -0.9991
 3502TIP3    H231998   4.378   6.432  16.037  0.9446  0.2264  0.4302
 3503TIP3   OH231999   5.788   0.465   0.895 -0.0685 -0.3127 -0.1429
 3503TIP3    H132000   5.850   0.526   0.934 -0.0111  0.2830 -1.1391
 3503TIP3    H232001   5.826   0.378   0.911  0.0307 -0.0737  0.9543
 3504TIP3   OH232002   2.624   0.761  13.665 -0.6242  0.5100  0.3447
 3504TIP3    H132003   2.676   0.779  13.744 -1.6462  0.2682  1.0922
 3504TIP3    H232004   2.590   0.847  13.639  1.7235  0.9996 -1.3168
 3505TIP3   OH232005   1.851   2.288  15.409  0.3146 -0.2421 -0.5382
 3505TIP3    H132006   1.780   2.281  15.472  0.1013  1.3059 -0.5877
 3505TIP3    H232007   1.926   2.317  15.460  0.8926 -1.7285 -0.5118
 3506TIP3   OH232008   2.932   2.708   1.493 -0.2611 -0.5268  0.2491
 3506TIP3    H132009   2.844   2.675   1.514 -0.7224 -0.3337 -1.3639
 3506TIP3    H232010   2.964   2.743   1.576 -2.1139  0.3447  0.6271
 3507TIP3   OH232011   3.484   2.868  15.377 -0.3850 -0.3551  0.2730
 3507TIP3    H132012   3.428   2.908  15.443 -0.5593  0.0891 -0.1399
 3507TIP3    H232013   3.482   2.774  15.396 -0.9870 -0.3014  0.4718
 3508TIP3   OH232014   2.693   1.107   1.243  0.2203 -0.2110 -0.5603
 3508TIP3    H132015   2.740   1.094   1.326 -0.8939 -0.8468 -0.0237
 3508TIP3    H232016   2.758   1.148   1.186  0.4719  1.9369  1.1899
 3509TIP3   OH232017   1.655   1.416  13.798 -0.7274  0.1070 -0.4938
 3509TIP3    H132018   1.670   1.443  13.708 -0.6861 -0.2668 -0.6016
 3509TIP3    H232019   1.596   1.340  13.791  0.5782 -0.9507 -0.3120
 3510TIP3   OH232020   3.600   1.724   4.660 -0.1184 -0.4895 -0.5889
 3510TIP3    H132021   3.659   1.667   4.710  0.1577 -3.1540 -3.7276
 3510TIP3    H232022   3.526   1.668   4.637 -1.8439  1.6209 -0.3281
 3511TIP3   OH232023   1.823   5.250   5.753  0.0141  0.1297  0.7833
 3511TIP3    H132024   1.838   5.240   5.659 -1.1117  0.5575  0.5473
 3511TIP3    H232025   1.826   5.345   5.767  1.0154  0.0256  1.3300
 3512TIP3   OH232026   6.240   3.315  15.895 -0.6298 -0.2189  0.2774
 3512TIP3    H132027   6.317   3.267  15.928 -0.7679  0.2388  1.2934
 3512TIP3    H232028   6.252   3.318  15.800  0.9349  0.4049  0.4864
 3513TIP3   OH232029   3.199   4.264  16.220  0.1139  0.6843  0.4147
 3513TIP3    H132030   3.121   4.209  16.213  0.3231  0.4059  0.2195
 3513TIP3    H232031   3.219   4.287  16.129  1.0391 -0.3542  0.3509
 3514TIP3   OH232032   3.800   4.647  12.749  0.5267 -0.3594  0.1212
 3514TIP3    H132033   3.738   4.719  12.761  0.9797 -0.1303  1.1013
 3514TIP3    H232034   3.842   4.637  12.834  2.2542 -0.1441 -0.6932
 3515TIP3   OH232035   4.533   3.041   5.967  0.2476  0.2170 -0.0985
 3515TIP3    H132036   4.570   2.987   6.036 -0.1215 -0.0822 -0.1354
 3515TIP3    H232037   4.558   3.131   5.990 -0.3667  0.1790  0.7345
 3516TIP3   OH232038   0.170   4.840  17.130  0.1449 -0.6613  0.1606
 3516TIP3    H132039   0.178   4.798  17.045  0.3182 -1.0750  0.3837
 3516TIP3    H232040   0.082   4.877  17.130  0.6831  0.6536 -0.7970
 3517TIP3   OH232041   4.573   4.841   0.026  0.3858 -0.0953  0.0316
 3517TIP3    H132042   4.661   4.817  -0.003  0.3963  0.1870 -0.1664
 3517TIP3    H232043   4.573   4.937   0.028  0.3091 -0.1075  0.7377
 3518TIP3   OH232044   2.561   1.015   0.084 -0.0487  0.1555  0.5315
 3518TIP3    H132045   2.634   1.057   0.131  0.4306  2.2817 -1.9867
 3518TIP3    H232046   2.487   1.022   0.144  1.0628  0.8239  1.8720
 3519TIP3   OH232047   2.223   0.991  16.207 -0.1351 -0.0051 -0.4429
 3519TIP3    H132048   2.284   1.064  16.222 -1.3207  0.8324  0.4684
 3519TIP3    H232049   2.159   1.027  16.146 -0.4204 -0.4689 -0.4132
 3520TIP3   OH232050   2.409   4.157   3.910 -0.1160  0.3525  0.2323
 3520TIP3    H132051   2.480   4.213   3.940  0.5395 -0.1602 -0.3688
 3520TIP3    H232052   2.376   4.200   3.831  0.4026 -0.1107 -0.2430
 3521TIP3   OH232053   4.270   2.277  12.385 -0.6804 -0.1067 -0.0038
 3521TIP3    H132054   4.238   2.362  12.416 -0.3345  0.2154 -0.5311
 3521TIP3    H232055   4.312   2.238  12.462 -0.4516  0.3830  0.1187
 3522TIP3   OH232056   4.609   0.873  17.039 -0.4102  0.4267  0.2281
 3522TIP3    H132057   4.622   0.795  17.094  1.1111  1.1761  0.9447
 3522TIP3    H232058   4.690   0.923  17.048 -1.4725  2.2245 -0.0236
 3523TIP3   OH232059   1.756   3.034   0.688 -0.0520 -0.3030 -0.0050
 3523TIP3    H132060   1.665   3.043   0.719  0.4884 -0.4780  1.6831
 3523TIP3    H232061   1.783   3.124   0.670  0.5015  0.1084  2.6757
 3524TIP3   OH232062   3.072   0.524  13.183  0.3906 -0.3701 -0.0330
 3524TIP3    H132063   3.116   0.512  13.267 -1.1334 -1.8556  0.5868
 3524TIP3    H232064   2.987   0.480  13.194 -0.1343  0.0696 -2.0931
 3525TIP3   OH232065   1.648   0.914   0.574 -0.0589 -0.4088 -0.6163
 3525TIP3    H132066   1.691   0.994   0.605 -1.7563 -0.6812  2.5866
 3525TIP3    H232067   1.564   0.944   0.539 -0.9065 -0.8159  1.0323
 3526TIP3   OH232068   1.739   3.296  15.227  0.2015  0.1124 -0.1389
 3526TIP3    H132069   1.667   3.359  15.231  0.8113  0.8354 -0.2995
 3526TIP3    H232070   1.808   3.335  15.281  0.3775 -0.6974  0.2306
 3527TIP3   OH232071   6.329   3.372  13.198 -0.8717 -0.1029 -0.1936
 3527TIP3    H132072   6.364   3.292  13.238  1.6034  1.8463  1.7521
 3527TIP3    H232073   6.255   3.395  13.254 -1.0905 -0.6007 -0.2692
 3528TIP3   OH232074   6.207   2.075   4.069 -0.1974  0.0488 -0.0625
 3528TIP3    H132075   6.197   2.065   4.164  0.7734  1.9552  0.2508
 3528TIP3    H232076   6.299   2.097   4.056 -0.9274  2.5570 -1.2001
 3529TIP3   OH232077   5.586   4.527  14.213 -0.1865  0.2929 -0.5465
 3529TIP3    H132078   5.607   4.519  14.306  1.1583 -0.6152 -0.9052
 3529TIP3    H232079   5.589   4.437  14.180  0.9155  0.7522 -1.7697
 3530TIP3   OH232080   2.183   2.830   5.327  0.2881 -0.0250  0.4680
 3530TIP3    H132081   2.212   2.913   5.290 -0.6714  0.7599  1.4551
 3530TIP3    H232082   2.105   2.807   5.276  1.1455 -0.8424 -0.4850
 3531TIP3   OH232083   3.283   2.217  15.734 -0.2666 -0.2780  0.2053
 3531TIP3    H132084   3.272   2.297  15.786 -1.3337 -0.1356 -0.2507
 3531TIP3    H232085   3.196   2.178  15.729  0.1511 -1.2067 -0.0154
 3532TIP3   OH232086   1.347   3.554   5.802 -0.2367  0.0777 -0.2711
 3532TIP3    H132087   1.331   3.570   5.709  0.0022 -0.3955 -0.3885
 3532TIP3    H232088   1.373   3.640   5.837  0.6257  0.0415 -0.8323
 3533TIP3   OH232089   0.408   2.711   4.405  0.1477  0.3718 -0.3624
 3533TIP3    H132090   0.334   2.680   4.457 -0.4423  0.8860 -0.9042
 3533TIP3    H232091   0.485   2.681   4.454 -0.4117 -0.2290  0.1552
 3534TIP3   OH232092   6.105   4.971  14.405 -0.3680 -0.0023 -0.2908
 3534TIP3    H132093   6.152   5.039  14.358 -0.3267  0.0542 -0.1670
 3534TIP3    H232094   6.087   4.904  14.339  1.7790 -1.0143  0.1409
 3535TIP3   OH232095   4.797   3.211  12.912  0.4574 -0.7634 -0.7482
 3535TIP3    H132096   4.799   3.169  12.998  1.9027  0.4364 -0.1674
 3535TIP3    H232097   4.737   3.158  12.860 -3.1469  0.4149  2.0107
 3536TIP3   OH232098   1.436   4.045   5.800 -0.3851  0.5004  0.4469
 3536TIP3    H132099   1.366   3.982   5.818  0.4694 -0.4038  0.6233
 3536TIP3    H232100   1.418   4.077   5.712  1.4915 -3.0685 -1.3055
 3537TIP3   OH232101   5.852   3.743   5.780  0.4503  0.0461 -0.1255
 3537TIP3    H132102   5.833   3.721   5.872  0.0525 -0.4278 -0.3211
 3537TIP3    H232103   5.933   3.794   5.784  1.2984 -1.3106  0.3450
 3538TIP3   OH232104   1.287   5.175   5.254  0.3495 -0.6909 -0.0109
 3538TIP3    H132105   1.310   5.169   5.347  1.8359  0.3094 -0.2873
 3538TIP3    H232106   1.194   5.195   5.253  0.0051 -2.1865  1.2310
 3539TIP3   OH232107   0.792   0.245   5.405 -0.1265 -0.0572 -0.3319
 3539TIP3    H132108   0.840   0.293   5.473 -2.9831  0.7794  1.1865
 3539TIP3    H232109   0.744   0.313   5.357 -0.3492 -0.9159 -1.3539
 3540TIP3   OH232110   4.872   3.466   2.959  0.2522 -0.2241  0.9601
 3540TIP3    H132111   4.800   3.530   2.953  0.0888 -0.3326  1.7736
 3540TIP3    H232112   4.876   3.442   3.051  1.8085  0.3098  1.0443
 3541TIP3   OH232113   4.818   2.649   2.401 -0.1647  0.0616  0.3550
 3541TIP3    H132114   4.823   2.744   2.390 -1.8838  0.2013  0.7224
 3541TIP3    H232115   4.735   2.634   2.446 -0.8410 -1.7502 -1.4024
 3542TIP3   OH232116   6.135   1.356   3.648  0.3167 -0.3536 -0.1882
 3542TIP3    H132117   6.120   1.325   3.737 -0.5609  1.8267  0.4755
 3542TIP3    H232118   6.227   1.383   3.647  0.2136  0.0209  0.2098
 3543TIP3   OH232119   2.012   2.250  10.722  0.0559 -0.0271 -0.2039
 3543TIP3    H132120   2.105   2.265  10.705  0.3281 -0.4629  0.8751
 3543TIP3    H232121   1.985   2.320  10.781 -0.3500  0.2175 -0.6755
 3544TIP3   OH232122   0.753   5.389   2.172  0.4532  0.7549 -0.4585
 3544TIP3    H132123   0.706   5.453   2.226  1.2043 -0.0103  1.1405
 3544TIP3    H232124   0.786   5.440   2.098 -1.4082  1.6362 -0.7092
 3545TIP3   OH232125   2.015   5.319   0.509  0.9074  0.1956 -0.4147
 3545TIP3    H132126   2.068   5.306   0.430  0.9226 -3.0339  0.0486
 3545TIP3    H232127   1.926   5.333   0.477  0.9604 -0.8283 -1.0136
 3546TIP3   OH232128   5.687   1.956  16.174  0.7485 -0.2924  0.5062
 3546TIP3    H132129   5.780   1.967  16.192  0.8679 -1.4657  0.6517
 3546TIP3    H232130   5.678   1.864  16.146  0.3302  0.9805 -3.9712
 3547TIP3   OH232131   1.794   4.614  14.684 -0.0117  0.1046  0.3081
 3547TIP3    H132132   1.734   4.687  14.667  0.2878  0.4206  0.5913
 3547TIP3    H232133   1.739   4.536  14.681 -0.0086  0.1563 -1.9580
 3548TIP3   OH232134   2.987   3.433   0.897  0.3094 -0.3756  0.0883
 3548TIP3    H132135   3.030   3.471   0.974  0.0957 -0.7182  0.3838
 3548TIP3    H232136   3.008   3.340   0.902  1.8665 -0.1054 -1.3236
 3549TIP3   OH232137   3.668   0.390   2.695 -0.1538 -0.2707 -0.1033
 3549TIP3    H132138   3.738   0.409   2.634 -0.3303 -1.0294 -0.5456
 3549TIP3    H232139   3.657   0.471   2.745 -0.6341  0.6641 -1.6833
 3550TIP3   OH232140   3.315   1.485  13.084 -0.5630 -0.1541  0.3344
 3550TIP3    H132141   3.312   1.449  13.173 -0.6681  0.3009  0.5213
 3550TIP3    H232142   3.265   1.566  13.090 -0.0069  0.2167  0.0166
 3551TIP3   OH232143   1.904   3.805   0.527 -0.3098  0.1220  0.2337
 3551TIP3    H132144   1.990   3.794   0.568  0.5267  2.1665 -0.9105
 3551TIP3    H232145   1.871   3.715   0.517  2.1584 -0.7708 -0.2835
 3552TIP3   OH232146   3.264   2.868  16.832 -0.4509 -0.0411  0.3807
 3552TIP3    H132147   3.331   2.930  16.802 -0.1005 -0.6441 -0.0882
 3552TIP3    H232148   3.275   2.791  16.775 -0.9880 -0.4719  0.8545
 3553TIP3   OH232149   3.023   4.427   5.535  0.6441  0.1470 -0.4291
 3553TIP3    H132150   3.015   4.488   5.609 -0.1321  2.1267 -2.0965
 3553TIP3    H232151   3.117   4.426   5.515  1.1486 -2.0419  1.9027
 3554TIP3   OH232152   0.347   5.625  11.338  0.0858 -0.2774  0.4327
 3554TIP3    H132153   0.282   5.589  11.278  0.5075 -0.2999 -0.0116
 3554TIP3    H232154   0.364   5.554  11.400  0.9539 -0.8697 -0.4689
 3555TIP3   OH232155   6.542   4.336  16.021 -0.7316 -0.0175 -0.3462
 3555TIP3    H132156   6.583   4.414  16.058  0.5650 -0.1961 -1.3279
 3555TIP3    H232157   6.551   4.347  15.926 -0.6265 -1.2855 -0.5028
 3556TIP3   OH232158   6.196   4.425  12.572 -0.1853 -0.1627 -0.7074
 3556TIP3    H132159   6.247   4.344  12.568 -0.9440 -0.6332 -0.8800
 3556TIP3    H232160   6.145   4.426  12.491 -1.3049 -0.2551 -0.0184
 3557TIP3   OH232161   2.401   0.509   5.412 -0.1524  0.0458 -0.3871
 3557TIP3    H132162   2.398   0.417   5.438  2.0441  0.2047  0.6140
 3557TIP3    H232163   2.413   0.507   5.317  0.9235 -0.7321 -0.2462
 3558TIP3   OH232164   4.473   5.254  17.098 -0.5579  0.3405  0.0385
 3558TIP3    H132165   4.476   5.161  17.077 -2.5778 -0.1067  1.6471
 3558TIP3    H232166   4.545   5.267  17.160  0.3593  0.0758 -0.9513
 3559TIP3   OH232167   3.401   6.345   0.124  0.1687 -0.5345 -0.2410
 3559TIP3    H132168   3.414   6.315   0.214  1.9994  1.1828  0.0877
 3559TIP3    H232169   3.316   6.388   0.125 -0.1790 -1.2245  0.4675
 3560TIP3   OH232170   4.243   2.133   0.735  0.8133  0.3169 -0.3521
 3560TIP3    H132171   4.253   2.038   0.726  0.4444  0.3045 -0.6287
 3560TIP3    H232172   4.216   2.163   0.649 -3.0186  0.1467  0.6639
 3561TIP3   OH232173   1.489   5.815   5.710  0.5360 -0.7302 -0.8058
 3561TIP3    H132174   1.510   5.733   5.665 -2.3922 -1.9899 -0.0665
 3561TIP3    H232175   1.411   5.847   5.666  0.1757  0.2999  0.5464
 3562TIP3   OH232176   0.782   4.883   4.604  0.0242 -0.1990  0.1045
 3562TIP3    H132177   0.714   4.887   4.536 -1.0675 -3.1196  0.9245
 3562TIP3    H232178   0.743   4.924   4.680  0.8183  2.0276 -0.6550
 3563TIP3   OH232179   0.071   1.051   4.384 -0.3714  0.2547  0.2080
 3563TIP3    H132180   0.032   1.003   4.311  0.3440 -0.3132  0.1960
 3563TIP3    H232181   0.022   1.021   4.461  0.5234 -1.0342  0.2979
 3564TIP3   OH232182   3.463   5.935   3.361 -0.2020  0.2935  0.7148
 3564TIP3    H132183   3.465   5.841   3.343 -3.4727  0.5907 -1.6375
 3564TIP3    H232184   3.535   5.971   3.309 -1.9216 -0.3754 -2.2236
 3565TIP3   OH232185   1.448   6.475   2.916 -0.0863  0.2861  0.0623
 3565TIP3    H132186   1.448   6.408   2.985 -1.7935  1.2269  1.0328
 3565TIP3    H232187   1.540   6.489   2.896  0.3545 -1.3605  0.8213
 3566TIP3   OH232188   5.375   0.265  10.674 -0.0348 -0.7079 -0.1956
 3566TIP3    H132189   5.403   0.314  10.751 -0.7361  0.3524 -0.5876
 3566TIP3    H232190   5.405   0.176  10.689  2.2272  0.0554  0.0682
 3567TIP3   OH232191   4.025   3.832  14.078 -0.6431 -0.6858 -0.2984
 3567TIP3    H132192   3.986   3.767  14.136  1.2730 -0.5476  1.1814
 3567TIP3    H232193   4.112   3.797  14.057  0.3897  1.3155  0.4512
 3568TIP3   OH232194   3.346   5.578  13.779  0.0711 -0.4960  0.1381
 3568TIP3    H132195   3.349   5.495  13.732 -1.8578 -0.7559  0.4444
 3568TIP3    H232196   3.336   5.644  13.711  0.5433 -0.5959 -0.0290
 3569TIP3   OH232197   5.512   2.740  14.142 -0.0770  0.2767 -0.4438
 3569TIP3    H132198   5.481   2.752  14.232  0.6211  1.1616 -0.3061
 3569TIP3    H232199   5.433   2.739  14.089 -0.6107 -1.8105  0.3326
 3570TIP3   OH232200   3.351   2.599   0.425 -0.6358 -0.3594 -0.1022
 3570TIP3    H132201   3.385   2.596   0.335 -1.3339  1.3261 -0.4504
 3570TIP3    H232202   3.401   2.533   0.472  1.0843  0.0549 -1.3015
 3571TIP3   OH232203   0.253   1.967   3.636 -0.0149  0.3423  0.8737
 3571TIP3    H132204   0.346   1.956   3.657  0.2153 -0.2234 -0.3585
 3571TIP3    H232205   0.227   1.882   3.600  0.2561  1.8858 -3.2701
 3572TIP3   OH232206   1.084   2.038  15.598  0.5302  0.2711  0.3297
 3572TIP3    H132207   1.089   1.972  15.529 -0.2300 -0.1513  0.6703
 3572TIP3    H232208   1.162   2.092  15.585 -0.1645  0.8832 -1.5679
 3573TIP3   OH232209   5.206   0.099  12.633  0.0741  0.2156 -0.4932
 3573TIP3    H132210   5.149   0.173  12.613 -0.4109 -0.2031 -0.6536
 3573TIP3    H232211   5.176   0.066  12.717  1.2794  1.1518  0.3333
 3574TIP3   OH232212   3.140   2.317   5.137 -0.0740  0.2510  1.1529
 3574TIP3    H132213   3.068   2.255   5.130  0.5371 -0.4272  0.8523
 3574TIP3    H232214   3.150   2.352   5.048  0.8224 -0.6276  0.8986
 3575TIP3   OH232215   2.941   6.548  16.399 -0.4863  0.1937 -0.4200
 3575TIP3    H132216   2.863   6.509  16.440 -0.0752 -0.4743 -0.2682
 3575TIP3    H232217   2.913   6.635  16.372 -0.8321  0.5848  1.1357
 3576TIP3   OH232218   3.001   5.494  10.831 -0.7633  0.1260  0.5438
 3576TIP3    H132219   2.917   5.538  10.834 -1.2399 -0.8096  1.1515
 3576TIP3    H232220   2.980   5.400  10.829  0.2057 -0.0963 -1.3617
 3577TIP3   OH232221   2.903   4.114  11.951  0.1124 -0.6616  0.2253
 3577TIP3    H132222   2.920   4.069  11.868 -0.8934 -0.6081 -0.0202
 3577TIP3    H232223   2.809   4.101  11.966  0.1595 -0.0972  1.0157
 3578TIP3   OH232224   0.471   2.707  14.344  0.1833  0.3605  0.0676
 3578TIP3    H132225   0.531   2.720  14.417 -0.1127  0.9865  0.2031
 3578TIP3    H232226   0.399   2.769  14.361 -0.2683 -0.0502 -0.3342
 3579TIP3   OH232227   6.151   1.955  16.604  0.2238 -0.2823  0.1024
 3579TIP3    H132228   6.234   1.912  16.624 -0.1912 -2.5358 -2.7126
 3579TIP3    H232229   6.102   1.891  16.553 -2.2182  1.9562 -0.4967
 3580TIP3   OH232230   6.679   3.760  14.653 -0.2198 -0.6596 -0.1939
 3580TIP3    H132231   6.586   3.754  14.672  0.0461 -0.6387  1.2134
 3580TIP3    H232232   6.685   3.762  14.558 -2.0188  4.7431 -0.3477
 3581TIP3   OH232233   5.921   6.003  12.177 -0.0037 -0.2643 -0.1400
 3581TIP3    H132234   5.937   6.060  12.102 -0.3833  0.4611  0.3286
 3581TIP3    H232235   5.828   6.011  12.194  0.2747  0.4436  1.0988
 3582TIP3   OH232236   2.986   5.009   3.992  0.1693 -0.7040 -0.1839
 3582TIP3    H132237   3.049   5.048   3.932 -0.8500  0.8651 -0.2526
 3582TIP3    H232238   3.018   5.033   4.079 -2.3862  3.4989 -0.2730
 3583TIP3   OH232239   2.971   3.443   4.263 -0.0451 -0.1822 -0.0701
 3583TIP3    H132240   2.922   3.514   4.221 -1.1697 -0.1969  1.1716
 3583TIP3    H232241   3.037   3.419   4.199  0.9714  2.6197 -0.1466
 3584TIP3   OH232242   1.626   1.382   2.002 -0.1361  0.3928  0.5252
 3584TIP3    H132243   1.688   1.410   1.935 -0.3560  0.1473  0.2141
 3584TIP3    H232244   1.666   1.305   2.042 -0.0032  0.5414  0.6767
 3585TIP3   OH232245   4.720   3.577   1.454  0.6239 -0.0446  0.3771
 3585TIP3    H132246   4.665   3.645   1.415 -0.5815 -0.8423  0.6426
 3585TIP3    H232247   4.676   3.556   1.537  1.9159  0.0478  1.0896
 3586TIP3   OH232248   1.403   0.807  16.449 -0.3563  0.3018  0.6732
 3586TIP3    H132249   1.452   0.794  16.530 -0.6949  1.0549  1.0047
 3586TIP3    H232250   1.453   0.761  16.382 -1.3012 -2.3254  1.7207
 3587TIP3   OH232251   4.123   2.421   6.063  0.2033  0.5321 -0.1524
 3587TIP3    H132252   4.154   2.409   6.153 -0.6123 -0.7252 -0.0317
 3587TIP3    H232253   4.186   2.482   6.024  0.6049  1.0194  1.2430
 3588TIP3   OH232254   4.150   4.212  16.561 -0.1950  0.3837  0.5769
 3588TIP3    H132255   4.175   4.161  16.484  2.2772  2.5408 -0.1232
 3588TIP3    H232256   4.060   4.239  16.543  0.2158  0.5412 -1.3972
 3589TIP3   OH232257   2.231   1.807  13.464 -0.1356  0.3355 -0.4703
 3589TIP3    H132258   2.210   1.889  13.418  0.5053  1.3090  0.9358
 3589TIP3    H232259   2.170   1.805  13.538 -2.7022 -2.3258 -2.4738
 3590TIP3   OH232260   4.848   6.585  11.639 -0.4912  0.5272  0.1301
 3590TIP3    H132261   4.901   6.511  11.667 -0.5928  1.2972  2.5415
 3590TIP3    H232262   4.909   6.659  11.637 -0.9228  0.8960  0.3880
 3591TIP3   OH232263   5.584   0.285   5.909  0.1959 -0.6085  0.0219
 3591TIP3    H132264   5.609   0.232   5.984  0.2324  1.4170  1.4604
 3591TIP3    H232265   5.489   0.277   5.905  0.2945 -1.6938 -0.4823
 3592TIP3   OH232266   0.905   0.662   3.002 -0.2359 -0.1766 -0.5666
 3592TIP3    H132267   0.897   0.610   2.923  0.9771  0.7435 -1.3132
 3592TIP3    H232268   0.995   0.695   3.001 -0.4228  0.4377  0.8145
 3593TIP3   OH232269   2.855   6.134   2.332 -0.5086 -0.0016  0.2354
 3593TIP3    H132270   2.864   6.146   2.426 -1.3162 -1.4807  0.5166
 3593TIP3    H232271   2.908   6.058   2.312 -3.7004 -2.3362  0.2234
 3594TIP3   OH232272   5.330   5.525  15.253 -0.8044 -0.7600 -0.3264
 3594TIP3    H132273   5.363   5.470  15.324  2.2556 -0.3589 -1.3409
 3594TIP3    H232274   5.291   5.462  15.191 -3.1724 -1.1310  1.4949
 3595TIP3   OH232275   6.089   6.564   0.516 -0.2789 -0.2370 -0.1122
 3595TIP3    H132276   6.143   6.504   0.465 -1.4452 -1.5797  0.2121
 3595TIP3    H232277   6.126   6.650   0.498  0.5290 -0.8977 -1.6927
 3596TIP3   OH232278   3.377   1.050  14.822 -0.0955  0.1320 -0.2235
 3596TIP3    H132279   3.435   0.974  14.813  0.9511  0.8249  0.5157
 3596TIP3    H232280   3.345   1.046  14.912  0.2798  0.7769 -0.0549
 3597TIP3   OH232281   5.197   5.446   6.184  0.3036  0.3272 -0.0463
 3597TIP3    H132282   5.171   5.390   6.257  0.4958 -1.2127 -1.1383
 3597TIP3    H232283   5.281   5.483   6.211  0.3532 -0.1864  0.5213
 3598TIP3   OH232284   6.650   2.054  11.127  0.5515  0.1142  0.4036
 3598TIP3    H132285   6.626   1.975  11.077 -0.1536  0.5960 -0.0309
 3598TIP3    H232286   6.743   2.066  11.109  0.8609 -1.1087  1.1571
 3599TIP3   OH232287   4.984   4.743   5.061 -0.2879 -0.2839  0.0130
 3599TIP3    H132288   5.015   4.670   5.115 -0.7969 -1.2354 -0.9542
 3599TIP3    H232289   4.960   4.811   5.123  1.6367 -0.3589  0.8754
 3600TIP3   OH232290   1.256   4.537   2.093 -0.0364 -0.6782 -0.3116
 3600TIP3    H132291   1.195   4.465   2.074 -1.7501  0.8467 -0.6915
 3600TIP3    H232292   1.314   4.540   2.016 -2.0849  0.4959 -1.8469
 3601TIP3   OH232293   2.950   3.757   5.935 -0.0455 -0.4514 -0.2497
 3601TIP3    H132294   3.017   3.792   5.877 -1.0791 -0.2222 -1.3387
 3601TIP3    H232295   2.947   3.818   6.009  1.7002 -1.0774  0.3561
 3602TIP3   OH232296   1.438   5.922   6.540 -0.4567  0.2023  0.2573
 3602TIP3    H132297   1.405   6.010   6.525  0.5584  0.2613 -1.8608
 3602TIP3    H232298   1.517   5.917   6.486 -0.9171 -2.2440 -0.2369
 3603TIP3   OH232299   3.683   2.426   1.806 -0.1284  0.1519 -0.6921
 3603TIP3    H132300   3.669   2.427   1.900  0.1384  0.4447 -0.6549
 3603TIP3    H232301   3.629   2.354   1.774 -0.4201  0.2182 -0.3475
 3604TIP3   OH232302   6.210   4.545   2.771 -0.0044 -0.4728  0.0308
 3604TIP3    H132303   6.284   4.528   2.713  1.2980  1.5073  1.0354
 3604TIP3    H232304   6.135   4.550   2.713  1.3643  2.1058 -1.6195
 3605TIP3   OH232305   4.661   0.175  14.006 -0.5664  0.1783 -0.2061
 3605TIP3    H132306   4.654   0.123  14.086 -4.0313  0.2120 -0.4468
 3605TIP3    H232307   4.642   0.265  14.033  0.6576  0.6042 -0.6742
 3606TIP3   OH232308   1.731   5.851   3.790 -0.6001  0.3248  0.2401
 3606TIP3    H132309   1.737   5.883   3.701 -1.2002 -0.2263 -0.0095
 3606TIP3    H232310   1.798   5.783   3.796 -1.0244 -0.1236 -0.0134
 3607TIP3   OH232311   0.082   3.935  13.401 -0.4996 -0.1492 -0.0591
 3607TIP3    H132312   0.143   4.006  13.380 -1.0085 -0.2340 -1.8926
 3607TIP3    H232313   0.120   3.894  13.478  1.9053 -0.3114 -1.2692
 3608TIP3   OH232314   0.542   4.676  11.412 -0.6571  0.0412 -0.0903
 3608TIP3    H132315   0.447   4.685  11.412 -0.5494  1.6141 -2.3441
 3608TIP3    H232316   0.568   4.696  11.322  1.9497  1.2677  0.8859
 3609TIP3   OH232317   5.165   4.001   4.067 -0.1545  0.0089  0.1982
 3609TIP3    H132318   5.127   3.962   3.989  1.6090 -0.8751 -0.2603
 3609TIP3    H232319   5.116   3.963   4.140  0.2170 -1.5828 -0.3479
 3610TIP3   OH232320   4.381   5.950   1.907  0.1439  0.0545  0.4788
 3610TIP3    H132321   4.334   6.025   1.871  0.1459 -0.1300  0.0908
 3610TIP3    H232322   4.415   5.904   1.831 -0.3056 -0.6337  0.6937
 3611TIP3   OH232323   3.434   4.135   5.700 -0.5104 -0.3268 -0.6647
 3611TIP3    H132324   3.463   4.104   5.786  0.2104 -0.1438 -0.8401
 3611TIP3    H232325   3.392   4.059   5.660  1.2892 -1.1015 -1.1125
 3612TIP3   OH232326   3.331   5.692  16.188 -0.3405 -0.0048 -0.8007
 3612TIP3    H132327   3.407   5.716  16.135 -1.2089  2.0313 -1.1803
 3612TIP3    H232328   3.275   5.769  16.186 -1.7684 -0.9623  0.6596
 3613TIP3   OH232329   2.409   2.844  13.008 -0.2772  0.1786  0.6022
 3613TIP3    H132330   2.401   2.933  12.974 -2.8219 -1.0797 -2.3691
 3613TIP3    H232331   2.455   2.796  12.939 -1.7220 -1.4983  0.7789
 3614TIP3   OH232332   5.692   2.917  11.978  0.2641 -0.2820  0.2450
 3614TIP3    H132333   5.654   2.979  12.041  1.1370  0.1275  0.3786
 3614TIP3    H232334   5.774   2.889  12.019 -0.2207 -1.7013  0.2791
 3615TIP3   OH232335   3.623   3.270  16.034  0.1038  0.0014 -0.3512
 3615TIP3    H132336   3.675   3.213  15.978 -0.7363 -0.8479 -0.2896
 3615TIP3    H232337   3.686   3.327  16.077  0.9364 -0.7590 -0.5620
 3616TIP3   OH232338   3.875   6.001   3.948  0.5074  0.0345  0.1886
 3616TIP3    H132339   3.882   6.036   3.859  0.9215 -0.4751  0.0211
 3616TIP3    H232340   3.920   5.917   3.944  1.6617  0.5937  1.2030
 3617TIP3   OH232341   6.520   0.161  13.465  0.1664 -0.0586  0.2993
 3617TIP3    H132342   6.605   0.128  13.436  0.1566  1.1800 -1.1842
 3617TIP3    H232343   6.487   0.212  13.391 -0.1181  2.7112  2.2679
 3618TIP3   OH232344   2.786   2.478   3.551 -0.5644 -0.2206 -0.3600
 3618TIP3    H132345   2.832   2.450   3.631  0.7561  0.9133 -0.6997
 3618TIP3    H232346   2.696   2.450   3.565 -0.7144  1.3838  2.2671
 3619TIP3   OH232347   1.080   1.702   0.847 -0.0257 -0.1346  0.1686
 3619TIP3    H132348   0.987   1.724   0.847 -0.0769 -0.3528  0.4441
 3619TIP3    H232349   1.120   1.767   0.905  0.0445  0.1658 -0.2106
 3620TIP3   OH232350   4.638   6.783  14.210  0.2079  0.6778  0.2887
 3620TIP3    H132351   4.592   6.816  14.287  0.0693 -1.1699  1.0361
 3620TIP3    H232352   4.724   6.756  14.242  0.8123  1.5492 -0.5629
 3621TIP3   OH232353   2.617   4.756  10.378  0.0960  0.3501 -0.8136
 3621TIP3    H132354   2.705   4.791  10.395 -0.0562  0.0185  0.6507
 3621TIP3    H232355   2.628   4.661  10.381 -0.2004  0.3013 -1.2330
 3622TIP3   OH232356   4.706   6.326  11.700 -0.4175  0.0492  0.6022
 3622TIP3    H132357   4.740   6.386  11.634 -1.2484  0.1195  0.2285
 3622TIP3    H232358   4.699   6.241  11.655 -0.1192 -0.1146  0.8623
 3623TIP3   OH232359   1.136   1.732  12.678 -0.3961 -0.2804  0.4833
 3623TIP3    H132360   1.223   1.770  12.688 -1.0732  1.0984  1.2126
 3623TIP3    H232361   1.114   1.700  12.766  0.1897 -2.4247 -0.1299
 3624TIP3   OH232362   1.260   3.695  15.430 -0.6098  0.0417 -0.2015
 3624TIP3    H132363   1.277   3.719  15.339  1.6613 -0.1229  0.1355
 3624TIP3    H232364   1.207   3.766  15.465 -0.7825  0.5244 -1.4263
 3625TIP3   OH232365   0.915   4.871  16.616  0.2106  0.0059 -0.2596
 3625TIP3    H132366   0.941   4.949  16.568  0.0610 -0.8236 -1.7079
 3625TIP3    H232367   0.820   4.879  16.626  0.3695  0.6827  0.8278
 3626TIP3   OH232368   4.414   4.460   4.587 -0.1703  0.0045 -0.0667
 3626TIP3    H132369   4.361   4.430   4.661  0.0265  0.3050  0.2007
 3626TIP3    H232370   4.385   4.550   4.571  0.6611  0.3836  0.4708
 3627TIP3   OH232371   5.371   1.479  14.935 -0.0533  0.2276 -0.0912
 3627TIP3    H132372   5.382   1.468  15.030 -2.1474 -1.1524  0.0362
 3627TIP3    H232373   5.304   1.546  14.926 -0.5378 -0.3107 -0.5634
 3628TIP3   OH232374   2.830   4.274   1.085 -0.4297  0.1120  0.4182
 3628TIP3    H132375   2.816   4.265   0.991 -0.0433  0.9039  0.2803
 3628TIP3    H232376   2.908   4.221   1.103  0.3155  1.0737  0.0516
 3629TIP3   OH232377   6.794   0.568  13.164  0.0418  0.0834  0.2785
 3629TIP3    H132378   6.731   0.639  13.149  1.0781  1.1167  0.7847
 3629TIP3    H232379   6.832   0.551  13.078  0.8181  1.1153  0.4166
 3630TIP3   OH232380   3.615   4.270   0.495 -0.5232  0.2220  0.4312
 3630TIP3    H132381   3.581   4.185   0.524 -0.0582 -0.7139 -1.6296
 3630TIP3    H232382   3.538   4.324   0.481 -0.9383 -0.4977 -0.0853
 3631TIP3   OH232383   3.035   4.466   2.580  0.1786 -0.4154  0.1145
 3631TIP3    H132384   3.068   4.539   2.632 -0.7654  0.8959 -1.0833
 3631TIP3    H232385   3.110   4.438   2.528  0.6699 -0.6227  0.9285
 3632TIP3   OH232386   0.183   1.600   2.152  0.8142 -0.2929  0.4933
 3632TIP3    H132387   0.105   1.587   2.205  0.2035  0.0174 -0.3197
 3632TIP3    H232388   0.184   1.526   2.092 -0.9665  1.6595 -2.0579
 3633TIP3   OH232389   2.073   1.054   4.709 -0.0871 -0.7846  0.0287
 3633TIP3    H132390   2.146   1.116   4.706 -0.7708  0.0651  0.6684
 3633TIP3    H232391   2.079   1.007   4.626  1.1737 -0.7125  0.0654
 3634TIP3   OH232392   1.602   2.416  14.837  0.0932 -0.6710  0.5218
 3634TIP3    H132393   1.688   2.375  14.843  0.5472 -0.2161 -2.2327
 3634TIP3    H232394   1.620   2.508  14.818 -1.0138 -0.6598 -0.5288
 3635TIP3   OH232395   5.043   6.755   1.853 -0.3795 -0.3493  0.1682
 3635TIP3    H132396   5.105   6.794   1.791 -0.8350 -0.6237 -0.4554
 3635TIP3    H232397   5.006   6.830   1.900 -1.6808  0.0349 -1.4261
 3636TIP3   OH232398   3.992   4.588  14.251 -0.3996 -0.0742  0.1539
 3636TIP3    H132399   3.933   4.636  14.193 -0.8221  1.3893  1.7552
 3636TIP3    H232400   4.077   4.630  14.238 -0.5971  0.5742  0.9524
 3637TIP3   OH232401   5.110   1.879  15.753  0.3156  0.3007 -0.3645
 3637TIP3    H132402   5.084   1.968  15.775  1.6590  0.5275  0.3421
 3637TIP3    H232403   5.053   1.823  15.805 -0.9355  0.7315 -1.2627
 3638TIP3   OH232404   3.388   1.766   2.194  0.3434 -0.7503 -0.6730
 3638TIP3    H132405   3.322   1.701   2.215  1.2557 -1.0919  1.2187
 3638TIP3    H232406   3.355   1.809   2.115 -0.8854 -2.6230 -1.2012
 3639TIP3   OH232407   3.649   1.529  13.224 -0.7444 -0.5731 -0.8234
 3639TIP3    H132408   3.613   1.441  13.236 -1.7358 -0.2255 -1.2311
 3639TIP3    H232409   3.629   1.551  13.133 -0.0089 -0.1384 -0.8880
 3640TIP3   OH232410   2.078   3.421  16.044 -0.5285  0.1430  0.3470
 3640TIP3    H132411   2.021   3.344  16.043  0.3424 -0.5391  1.6696
 3640TIP3    H232412   2.166   3.386  16.058  0.1421  1.2427 -0.9455
 3641TIP3   OH232413   3.862   5.933  11.586 -0.1918  0.1744 -0.1188
 3641TIP3    H132414   3.927   5.982  11.536  0.3222  1.4981  1.8079
 3641TIP3    H232415   3.780   5.981  11.571 -0.0634  0.4993  0.2293
 3642TIP3   OH232416   5.029   1.956  13.642 -0.2225 -0.1303 -0.0379
 3642TIP3    H132417   5.003   1.919  13.557 -0.6341  0.8005 -0.3250
 3642TIP3    H232418   5.068   1.883  13.689  1.1205 -0.4029 -1.4871
 3643TIP3   OH232419   2.151   2.007  15.463 -0.2627  0.5488  0.4727
 3643TIP3    H132420   2.071   2.002  15.515  1.5185  2.1889  3.5490
 3643TIP3    H232421   2.204   1.933  15.493 -0.4348 -0.2852 -1.2361
 3644TIP3   OH232422   3.141   5.446   2.108 -0.3221 -0.0144 -0.4062
 3644TIP3    H132423   3.234   5.421   2.110 -0.0818  0.7137 -1.5944
 3644TIP3    H232424   3.096   5.368   2.074 -0.1660 -0.3992  0.2542
 3645TIP3   OH232425   2.131   2.315  16.989  0.3338 -0.2280  0.2064
 3645TIP3    H132426   2.222   2.328  17.016  0.3377  0.6600 -0.2448
 3645TIP3    H232427   2.083   2.387  17.030 -0.1557 -0.6184  0.3360
 3646TIP3   OH232428   2.133   3.182  10.990  0.4661  0.1372  0.4552
 3646TIP3    H132429   2.147   3.239  11.065  1.5992  0.8670 -0.2960
 3646TIP3    H232430   2.183   3.223  10.919  0.0672 -0.9745 -0.4829
 3647TIP3   OH232431   4.736   4.252  11.598 -0.0060 -0.0864  0.2379
 3647TIP3    H132432   4.738   4.171  11.648 -0.3497  0.2709  0.8355
 3647TIP3    H232433   4.666   4.304  11.639 -0.2764  0.2116 -0.6007
 3648TIP3   OH232434   1.168   4.474  14.111 -0.1999 -0.1574  0.3153
 3648TIP3    H132435   1.088   4.526  14.120 -0.4704 -0.5224  0.0143
 3648TIP3    H232436   1.209   4.505  14.030  0.5049  0.7606  1.0074
 3649TIP3   OH232437   5.349   2.940   2.327 -0.6712 -0.0971  0.3787
 3649TIP3    H132438   5.312   2.934   2.415 -2.5846 -0.5614 -0.4170
 3649TIP3    H232439   5.364   3.033   2.313 -1.2164  0.0676  0.8658
 3650TIP3   OH232440   5.063   4.409   1.639  0.4307  0.2200 -0.0762
 3650TIP3    H132441   5.149   4.452   1.637  0.3561  0.3735  0.0575
 3650TIP3    H232442   5.032   4.421   1.729  0.5232 -0.3385  0.0380
 3651TIP3   OH232443   5.698   5.118  13.949 -0.4571  0.1557 -0.3228
 3651TIP3    H132444   5.650   5.200  13.963 -1.9689 -0.8211  0.4877
 3651TIP3    H232445   5.757   5.112  14.024 -1.9843 -0.5815  0.8579
 3652TIP3   OH232446   5.286   1.660  16.229  0.2754  0.0513  0.5634
 3652TIP3    H132447   5.323   1.678  16.142  0.0990  0.2411  0.5287
 3652TIP3    H232448   5.303   1.567  16.243 -0.2628 -0.1283  0.0497
 3653TIP3   OH232449   3.597   2.615   4.263  0.4470  0.3913 -0.1227
 3653TIP3    H132450   3.602   2.522   4.241  1.2300  0.4562 -0.2314
 3653TIP3    H232451   3.550   2.617   4.346 -1.6431  0.0754 -1.2542
 3654TIP3   OH232452   6.460   0.454  13.813  0.5024  0.2848 -0.1418
 3654TIP3    H132453   6.548   0.438  13.780  0.8949  1.4319  0.3293
 3654TIP3    H232454   6.409   0.481  13.736  0.5481 -0.4212 -0.4205
 3655TIP3   OH232455   1.362   4.043  15.353  1.0061 -0.0695 -0.9113
 3655TIP3    H132456   1.348   3.958  15.312  0.3051 -0.7672  0.7094
 3655TIP3    H232457   1.274   4.081  15.361  0.8326 -0.9301  1.9203
 3656TIP3   OH232458   0.688   5.597  13.315  0.4050  0.1085  0.3002
 3656TIP3    H132459   0.621   5.648  13.360 -0.9665 -1.2236 -0.1851
 3656TIP3    H232460   0.721   5.536  13.382 -0.0820 -0.3961  0.0777
 3657TIP3   OH232461   0.636   1.665  14.715 -0.0688 -0.2164  0.4316
 3657TIP3    H132462   0.692   1.587  14.726 -0.1211 -0.2063  0.7855
 3657TIP3    H232463   0.662   1.723  14.787 -1.4948 -0.7871  1.4397
 3658TIP3   OH232464   4.483   1.614  11.072  0.2505 -0.4939 -0.3233
 3658TIP3    H132465   4.415   1.672  11.106  0.9931  0.6064 -0.6652
 3658TIP3    H232466   4.436   1.548  11.021 -0.4752  1.1357 -1.8194
 3659TIP3   OH232467   1.418   2.209  11.187  0.1737  0.2048 -0.3870
 3659TIP3    H132468   1.337   2.258  11.174  1.1896  1.8031 -0.7983
 3659TIP3    H232469   1.426   2.155  11.109 -0.5510 -0.0456 -0.2910
 3660TIP3   OH232470   3.694   5.838   2.913  0.1665  0.1670  0.0040
 3660TIP3    H132471   3.751   5.814   2.986 -1.6791  0.8957  1.7340
 3660TIP3    H232472   3.722   5.926   2.888 -0.6503  0.8214  1.3398
 3661TIP3   OH232473   1.109   4.521  15.611 -0.7138 -0.1895  0.1977
 3661TIP3    H132474   1.118   4.427  15.626 -0.3532 -0.0737  0.7322
 3661TIP3    H232475   1.102   4.558  15.699 -0.0630  0.3614  0.0171
 3662TIP3   OH232476   0.781   3.974  11.990 -0.3233 -0.1831  0.2559
 3662TIP3    H132477   0.756   3.979  11.898  0.4397  1.0366  0.0979
 3662TIP3    H232478   0.875   3.996  11.990 -0.5064  0.6588  1.4018
 3663TIP3   OH232479   5.872   5.834  12.749  0.0272 -0.1090 -0.5396
 3663TIP3    H132480   5.945   5.796  12.799 -0.9040  0.2863  1.1498
 3663TIP3    H232481   5.904   5.920  12.721  0.5467 -0.3264 -0.6190
 3664TIP3   OH232482   6.820   2.330   2.682  0.0296  0.2487 -0.2973
 3664TIP3    H132483   6.865   2.255   2.720  0.7196  1.9785  2.4735
 3664TIP3    H232484   6.878   2.361   2.612  0.2435 -1.1370 -0.7443
 3665TIP3   OH232485   4.473   5.300   2.545 -0.0950  0.1791  0.4747
 3665TIP3    H132486   4.381   5.293   2.570 -0.5364 -1.2865 -1.3893
 3665TIP3    H232487   4.483   5.389   2.512 -1.0967  0.0400 -0.2150
 3666TIP3   OH232488   6.299   3.472   6.422 -0.7706 -0.2430 -1.4542
 3666TIP3    H132489   6.205   3.485   6.413 -0.7520 -0.0963 -1.4284
 3666TIP3    H232490   6.307   3.386   6.463 -0.9597  0.6469  0.4884
 3667TIP3   OH232491   6.486   4.884  17.005  0.4066  0.2673  0.0659
 3667TIP3    H132492   6.473   4.959  17.064 -1.7221  2.4375 -2.9444
 3667TIP3    H232493   6.444   4.811  17.050  1.7293  1.0554  2.6934
 3668TIP3   OH232494   6.325   5.575  13.634 -0.5021  0.4139 -0.0512
 3668TIP3    H132495   6.288   5.663  13.622 -0.5073  0.3179 -0.7456
 3668TIP3    H232496   6.270   5.519  13.580 -2.0390 -0.4101  2.2912
 3669TIP3   OH232497   1.240   5.917  15.206 -0.5638  0.4147 -0.0175
 3669TIP3    H132498   1.195   5.897  15.288 -0.8401 -0.0488 -0.2809
 3669TIP3    H232499   1.303   5.846  15.195  0.3460  1.1315  0.4196
 3670TIP3   OH232500   1.808   0.223   1.564  0.3770 -0.4644 -0.0115
 3670TIP3    H132501   1.779   0.256   1.479  0.5494  3.0667  1.2464
 3670TIP3    H232502   1.902   0.237   1.565  0.4637 -1.0240  0.5534
 3671TIP3   OH232503   5.483   6.145  14.528 -0.1721  0.4796 -0.5082
 3671TIP3    H132504   5.412   6.167  14.468 -0.0195 -0.9217 -1.2255
 3671TIP3    H232505   5.538   6.084  14.478  0.6457  0.2949  0.6101
 3672TIP3   OH232506   4.041   3.617   0.747 -0.4167 -0.0277  0.5112
 3672TIP3    H132507   3.955   3.578   0.762 -0.6209  0.3220  0.2658
 3672TIP3    H232508   4.087   3.553   0.693  0.0090 -0.8937  1.8841
 3673TIP3   OH232509   2.311   4.881  14.900 -0.4885 -0.0814 -0.6192
 3673TIP3    H132510   2.286   4.799  14.944 -0.2764 -0.7287 -1.6938
 3673TIP3    H232511   2.406   4.878  14.897 -0.5284 -0.4589 -1.8913
 3674TIP3   OH232512   2.323   1.501  16.653 -0.7397  0.2100  0.0708
 3674TIP3    H132513   2.283   1.454  16.580  1.4486  1.2419 -1.8650
 3674TIP3    H232514   2.413   1.469  16.656 -0.6002  0.6924  1.8871
 3675TIP3   OH232515   5.593   2.028   4.847 -0.4047  0.1682  0.1871
 3675TIP3    H132516   5.499   2.042   4.835 -0.3400  1.1561  0.8325
 3675TIP3    H232517   5.621   1.983   4.766 -1.2971  0.4802 -0.2941
 3676TIP3   OH232518   2.348   0.072   4.520 -0.3277  0.0042  0.1126
 3676TIP3    H132519   2.378   0.106   4.436 -1.1747  1.7387  0.4878
 3676TIP3    H232520   2.404   0.114   4.585 -0.9331  0.1677  0.5412
 3677TIP3   OH232521   4.893   4.632   3.231  0.3014  0.3687 -0.3773
 3677TIP3    H132522   4.807   4.592   3.245 -0.1002  1.1489 -0.5978
 3677TIP3    H232523   4.878   4.699   3.164  1.3018 -0.2597 -1.2502
 3678TIP3   OH232524   5.986   4.555   5.786 -0.4237  0.1952  0.5310
 3678TIP3    H132525   5.956   4.533   5.698  1.3260 -0.7979  0.1454
 3678TIP3    H232526   5.950   4.642   5.803  0.6262  1.1459 -1.8518
 3679TIP3   OH232527   5.650   0.868   0.129 -0.6413 -0.2542  0.0679
 3679TIP3    H132528   5.626   0.803   0.063  0.9414 -0.0646 -0.7142
 3679TIP3    H232529   5.635   0.952   0.086 -1.3040 -0.1097  0.5762
 3680TIP3   OH232530   5.577   3.938   0.114 -0.0572 -0.3046 -0.3840
 3680TIP3    H132531   5.580   3.845   0.137 -0.8697 -0.7682 -2.1096
 3680TIP3    H232532   5.490   3.967   0.143 -0.0322 -0.2230 -0.3920
 3681TIP3   OH232533   4.843   5.506  14.255 -0.0799  0.9790  0.4379
 3681TIP3    H132534   4.912   5.441  14.270 -0.4434  0.0130 -1.8787
 3681TIP3    H232535   4.767   5.454  14.230 -1.1564  2.1554  1.2228
 3682TIP3   OH232536   5.086   5.409  11.675  0.2793  0.8902  0.0537
 3682TIP3    H132537   5.166   5.365  11.646 -0.2701  0.0815 -0.2729
 3682TIP3    H232538   5.111   5.457  11.753  1.1172  0.7578 -0.1300
 3683TIP3   OH232539   2.736   6.015  11.178 -0.1851 -0.6534  0.4075
 3683TIP3    H132540   2.646   6.000  11.208  0.3336  0.9519  2.9233
 3683TIP3    H232541   2.727   6.073  11.103 -1.2429  0.1489  1.1366
 3684TIP3   OH232542   6.741   3.481   5.806  0.4061  0.1052 -0.6449
 3684TIP3    H132543   6.781   3.394   5.802  1.4718  0.6268 -1.7357
 3684TIP3    H232544   6.758   3.518   5.720  0.6032  1.6889  0.0744
 3685TIP3   OH232545   4.089   2.463   5.302  0.3799  0.0547  0.4877
 3685TIP3    H132546   4.075   2.383   5.353  0.3808 -0.5598 -0.4509
 3685TIP3    H232547   4.102   2.431   5.212 -2.1287  1.2390 -0.3531
 3686TIP3   OH232548   4.227   4.837  12.699 -0.3694  0.5000  0.1262
 3686TIP3    H132549   4.276   4.776  12.644  1.8412  2.9776 -0.7788
 3686TIP3    H232550   4.234   4.801  12.788 -1.9232 -2.2533 -0.8074
 3687TIP3   OH232551   3.952   3.294   3.267 -0.1039  0.6112  0.2890
 3687TIP3    H132552   4.031   3.326   3.312  0.0713 -0.9526  1.1461
 3687TIP3    H232553   3.889   3.365   3.277  0.7484  1.3182  0.8209
 3688TIP3   OH232554   0.243   4.569  16.921  0.7325  0.3716  0.1894
 3688TIP3    H132555   0.308   4.501  16.938  0.8728  0.3268 -0.5151
 3688TIP3    H232556   0.178   4.559  16.991  1.1397 -0.0045  0.5116
 3689TIP3   OH232557   4.635   3.903  14.193 -0.1865 -0.0665  0.0300
 3689TIP3    H132558   4.646   3.923  14.100 -0.1264  1.0741  0.2643
 3689TIP3    H232559   4.568   3.835  14.196  0.1419 -0.4401 -0.8724
 3690TIP3   OH232560   0.300   5.044   0.533  0.1558  0.7316 -0.1569
 3690TIP3    H132561   0.345   5.034   0.617 -2.0318  0.3565  0.9894
 3690TIP3    H232562   0.368   5.027   0.468  1.5639 -0.3543  1.5441
 3691TIP3   OH232563   0.109   6.090   6.765  0.9338  0.3838 -0.2868
 3691TIP3    H132564   0.053   6.168   6.767 -0.6521 -0.7441  1.1530
 3691TIP3    H232565   0.059   6.026   6.715  1.0005 -0.5817  0.8548
 3692TIP3   OH232566   3.257   6.296  17.108  0.1650 -0.2034  0.3708
 3692TIP3    H132567   3.310   6.255  17.040 -1.5791  2.3679 -2.6742
 3692TIP3    H232568   3.319   6.350  17.158  1.2320 -1.0642 -0.0107
 3693TIP3   OH232569   2.213   2.003   3.235 -0.2584 -0.8260 -0.1395
 3693TIP3    H132570   2.208   1.908   3.235 -1.1213 -0.7802 -1.0705
 3693TIP3    H232571   2.221   2.026   3.327  0.6869 -1.8305  0.0478
 3694TIP3   OH232572   4.013   5.579   4.435  0.2329 -0.3815 -0.1230
 3694TIP3    H132573   4.002   5.602   4.527  2.0640 -0.6136  0.1793
 3694TIP3    H232574   3.986   5.487   4.429 -0.1422 -0.2851  0.1400
 3695TIP3   OH232575   3.864   5.918   1.682  0.0626  0.0565  0.2280
 3695TIP3    H132576   3.855   5.989   1.746 -2.4596 -0.2516  0.2797
 3695TIP3    H232577   3.822   5.951   1.603 -1.8045 -1.6092  0.4745
 3696TIP3   OH232578   3.518   5.664   3.397 -0.1369  0.0493 -0.1739
 3696TIP3    H132579   3.559   5.606   3.333  0.7752 -1.2424  1.5377
 3696TIP3    H232580   3.570   5.653   3.476 -2.6130 -0.1693  1.4993
 3697TIP3   OH232581   3.018   6.593  13.127 -0.1156  0.0101 -0.7265
 3697TIP3    H132582   3.093   6.651  13.111 -0.1442  0.4564  0.6991
 3697TIP3    H232583   2.962   6.606  13.051  0.2641  1.2620 -0.8080
 3698TIP3   OH232584   6.174   4.174   3.723 -0.1897  0.3414  0.3066
 3698TIP3    H132585   6.138   4.142   3.805 -3.3645  1.7839 -0.4514
 3698TIP3    H232586   6.239   4.109   3.698 -1.9082 -2.1220  2.0069
 3699TIP3   OH232587   6.620   4.286  13.277  0.4574  0.5852 -0.2468
 3699TIP3    H132588   6.584   4.269  13.364  0.9073 -0.4422 -0.2525
 3699TIP3    H232589   6.632   4.381  13.274  0.6351  0.6037  0.8903
 3700TIP3   OH232590   0.386   0.704   0.780  0.0677  0.0425  0.1565
 3700TIP3    H132591   0.369   0.784   0.830  1.1484  0.5601 -0.2845
 3700TIP3    H232592   0.359   0.633   0.838  1.4080  0.6209  1.5191
 3701TIP3   OH232593   4.285   5.840  16.522  0.1089  0.0169  0.4347
 3701TIP3    H132594   4.292   5.749  16.553 -0.6767  0.0966  0.8729
 3701TIP3    H232595   4.340   5.844  16.444 -0.0231 -0.8956  0.2906
 3702TIP3   OH232596   4.131   5.852   3.678  0.2617 -0.2928 -0.0342
 3702TIP3    H132597   4.078   5.904   3.617 -0.6081 -0.0538  0.9148
 3702TIP3    H232598   4.094   5.871   3.764  1.1071 -1.0869  0.5123
 3703TIP3   OH232599   3.801   6.814   5.344 -0.2843 -0.0050 -0.4914
 3703TIP3    H132600   3.851   6.816   5.425 -0.8249 -0.8135 -0.1377
 3703TIP3    H232601   3.749   6.894   5.345  0.7167  0.6557 -0.6853
 3704TIP3   OH232602   2.520   4.698  13.075  0.0062  0.5143 -0.0437
 3704TIP3    H132603   2.506   4.757  13.001 -0.1971  1.4888  0.7556
 3704TIP3    H232604   2.438   4.649  13.083  0.6194 -0.7705 -1.4821
 3705TIP3   OH232605   5.785   4.111   4.884 -0.2933  0.5465  0.0728
 3705TIP3    H132606   5.715   4.064   4.839 -0.4940 -0.1768  1.1285
 3705TIP3    H232607   5.749   4.198   4.900 -1.3208 -0.1163  1.4685
 3706TIP3   OH232608   6.201   4.939  15.964  0.0546 -0.0217  0.0966
 3706TIP3    H132609   6.271   4.921  15.902 -0.1269 -1.8703  0.3953
 3706TIP3    H232610   6.129   4.882  15.937 -1.1236  1.3956  0.1598
 3707TIP3   OH232611   0.949   2.448   1.652 -0.2004  0.6085 -0.2259
 3707TIP3    H132612   1.034   2.414   1.625  0.1352  1.2515 -0.0022
 3707TIP3    H232613   0.885   2.401   1.599  0.1139 -1.7296  1.4163
 3708TIP3   OH232614   2.914   5.218   4.472 -0.6268  0.0477 -1.0492
 3708TIP3    H132615   2.917   5.313   4.485  0.1814 -0.1820  0.5756
 3708TIP3    H232616   2.826   5.202   4.437 -1.6737  1.1426  0.9736
 3709TIP3   OH232617   3.787   3.101  13.722  0.2819 -0.4471  0.3098
 3709TIP3    H132618   3.813   3.023  13.673 -0.0154 -0.0661 -0.4646
 3709TIP3    H232619   3.711   3.135  13.675  0.6022  0.4842  0.4489
 3710TIP3   OH232620   0.799   0.856  16.841  0.3930  0.4419  0.8240
 3710TIP3    H132621   0.888   0.874  16.873  0.1559 -0.4106  2.0140
 3710TIP3    H232622   0.785   0.921  16.773  1.1227  2.0049  2.1151
 3711TIP3   OH232623   5.039   6.108  14.557 -0.7055  0.2658  0.2471
 3711TIP3    H132624   4.986   6.151  14.624 -0.5850 -1.2728  1.3494
 3711TIP3    H232625   5.111   6.068  14.606  0.5284  0.8378 -1.0357
 3712TIP3   OH232626   1.255   5.796   3.478 -0.1571 -0.5606  0.4499
 3712TIP3    H132627   1.176   5.826   3.432  0.8555  1.0406 -0.2731
 3712TIP3    H232628   1.240   5.819   3.569 -0.3546  0.1157  0.2506
 3713TIP3   OH232629   1.788   6.397   0.484  0.3741 -0.4916 -0.1797
 3713TIP3    H132630   1.774   6.491   0.479  2.7724 -0.0821  0.0376
 3713TIP3    H232631   1.820   6.382   0.573 -1.0932 -1.6978  0.1793
 3714TIP3   OH232632   4.466   5.351  16.639  0.2236 -0.0638  0.4304
 3714TIP3    H132633   4.537   5.337  16.702  0.5392  1.5427  0.4612
 3714TIP3    H232634   4.413   5.271  16.643  0.6453 -0.2657  2.2061
 3715TIP3   OH232635   0.220   1.278   5.915 -0.5964  0.3309  0.0982
 3715TIP3    H132636   0.270   1.269   5.995 -0.8767 -0.0541  0.2291
 3715TIP3    H232637   0.131   1.252   5.938 -0.9555  1.3913 -0.0323
 3716TIP3   OH232638   6.246   1.342  14.780  0.4025  0.7543 -0.0739
 3716TIP3    H132639   6.180   1.310  14.719 -0.0333 -0.2542  0.8984
 3716TIP3    H232640   6.244   1.437  14.770 -0.1785  0.6368 -1.1019
 3717TIP3   OH232641   6.535   0.722   1.857 -0.4785 -0.1527 -0.0542
 3717TIP3    H132642   6.559   0.783   1.927  1.0166  0.0161 -0.7013
 3717TIP3    H232643   6.612   0.665   1.848  0.4898  1.5976 -3.4941
 3718TIP3   OH232644   5.559   3.280  10.630 -0.2847 -0.0393  0.1002
 3718TIP3    H132645   5.475   3.296  10.586  0.2990  0.2001 -0.9357
 3718TIP3    H232646   5.559   3.341  10.704 -0.6100  0.6361 -0.4507
 3719TIP3   OH232647   0.007   2.854  12.407 -0.2067 -0.3597 -0.3694
 3719TIP3    H132648   0.040   2.919  12.345  1.9958 -0.8283  0.2490
 3719TIP3    H232649  -0.028   2.905  12.479 -0.7333  0.1551 -0.9780
 3720TIP3   OH232650   6.265   4.018  14.164 -0.6099  0.0474 -0.6402
 3720TIP3    H132651   6.175   3.986  14.165 -0.4761 -0.3427 -1.1333
 3720TIP3    H232652   6.257   4.112  14.182 -1.0229 -0.2025  0.5356
 3721TIP3   OH232653   5.610   2.390  16.556  0.5115  0.0609  0.1153
 3721TIP3    H132654   5.562   2.337  16.620  0.1967  1.4861  1.0675
 3721TIP3    H232655   5.546   2.453  16.524  0.3099 -1.4335 -2.5719
 3722TIP3   OH232656   1.192   5.428   0.557 -0.6238  0.1431  0.1995
 3722TIP3    H132657   1.133   5.388   0.492 -0.4090 -1.9533  1.2506
 3722TIP3    H232658   1.155   5.402   0.642  2.1099 -1.7187  0.8666
 3723TIP3   OH232659   5.699   1.978   3.755  0.1422  0.2842  0.3029
 3723TIP3    H132660   5.619   2.015   3.794 -0.1578 -0.6138  0.5465
 3723TIP3    H232661   5.668   1.904   3.703  0.9271 -0.7422  1.2737
 3724TIP3   OH232662   3.974   1.631  15.282  0.0643  0.1672 -0.0118
 3724TIP3    H132663   3.945   1.540  15.290 -0.2580  0.1951 -0.8539
 3724TIP3    H232664   4.059   1.633  15.326  0.1815 -0.5963 -0.1959
 3725TIP3   OH232665   1.546   4.703  17.168 -0.1391  0.2131  0.2233
 3725TIP3    H132666   1.613   4.766  17.195  0.6354 -0.6526  0.3538
 3725TIP3    H232667   1.483   4.755  17.118 -1.4983  1.8221  3.4388
 3726TIP3   OH232668   2.276   3.403  14.212 -0.6908 -0.4276 -0.0556
 3726TIP3    H132669   2.263   3.487  14.167  0.5497 -0.1497  0.0859
 3726TIP3    H232670   2.277   3.338  14.141  1.1467 -0.0039 -0.4592
 3727TIP3   OH232671   6.734   4.285   0.571  0.4122 -0.1985 -0.1227
 3727TIP3    H132672   6.719   4.297   0.477  1.0191  2.1811  0.0431
 3727TIP3    H232673   6.795   4.355   0.594  2.5862 -2.4915  1.4865
 3728TIP3   OH232674   1.038   4.966   2.257  0.1215 -0.2869  0.0085
 3728TIP3    H132675   1.121   4.987   2.299  1.6420 -1.1150 -2.4508
 3728TIP3    H232676   0.992   5.049   2.248  0.6097  0.1455  1.5469
 3729TIP3   OH232677   3.139   2.674   3.823  0.5353 -0.0447 -0.3830
 3729TIP3    H132678   3.205   2.605   3.809 -1.4787 -2.1952  0.4693
 3729TIP3    H232679   3.153   2.734   3.750  0.8263 -2.5864 -2.5119
 3730TIP3   OH232680   3.740   4.083  16.359  0.3093 -0.3947  0.5047
 3730TIP3    H132681   3.694   4.158  16.396  0.3946 -0.0785 -0.0211
 3730TIP3    H232682   3.832   4.101  16.374  0.2787 -0.9045  1.3232
 3731TIP3   OH232683   6.471   1.010  14.215  0.3030 -0.5428  0.1368
 3731TIP3    H132684   6.479   0.926  14.259  1.0222 -0.1442  0.7967
 3731TIP3    H232685   6.561   1.033  14.191 -0.0142 -0.4973 -1.0684
 3732TIP3   OH232686   5.310   2.833  12.482 -0.0589  0.0583 -0.5489
 3732TIP3    H132687   5.241   2.873  12.536  1.9900  2.0696  0.6827
 3732TIP3    H232688   5.305   2.740  12.502 -1.7868  0.2903  0.2407
 3733TIP3   OH232689   2.801   1.698   2.324 -0.1620  0.0335  0.5142
 3733TIP3    H132690   2.896   1.704   2.339  0.8527 -0.3865 -4.9159
 3733TIP3    H232691   2.773   1.789   2.311 -0.4546  0.1028  1.5483
 3734TIP3   OH232692   3.677   5.576  16.347 -0.3720  0.0596  0.3266
 3734TIP3    H132693   3.639   5.585  16.435 -2.2784  1.7089 -0.6444
 3734TIP3    H232694   3.621   5.513  16.302  1.1657 -1.5343  0.5483
 3735TIP3   OH232695   4.924   1.794   0.031  0.3966 -0.5399  0.3098
 3735TIP3    H132696   4.890   1.759   0.114 -1.0578 -1.1660 -0.5465
 3735TIP3    H232697   4.955   1.717  -0.017  0.9406 -0.2116  0.1314
 3736TIP3   OH232698   5.486   2.068  10.924 -0.0336  0.3056  0.2040
 3736TIP3    H132699   5.508   2.161  10.931 -2.5799  0.9188  0.4661
 3736TIP3    H232700   5.432   2.050  11.001 -1.2114 -0.8946 -0.8695
 3737TIP3   OH232701   5.720   5.095  15.501 -0.2732  0.5657 -0.0275
 3737TIP3    H132702   5.768   5.035  15.559 -0.0201  0.9501  0.1628
 3737TIP3    H232703   5.789   5.150  15.462 -0.4394  0.3075 -0.6950
 3738TIP3   OH232704   5.716   1.840   6.118  0.6704  0.0550  0.2619
 3738TIP3    H132705   5.659   1.840   6.195  0.4291  1.3723  0.1037
 3738TIP3    H232706   5.686   1.766   6.066  1.1499 -1.1438  1.6431
 3739TIP3   OH232707   0.239   3.212   3.885  0.6072 -0.7956 -0.6504
 3739TIP3    H132708   0.311   3.258   3.928  1.1352 -1.1255 -1.1658
 3739TIP3    H232709   0.248   3.236   3.792  0.7236 -1.7033 -0.8814
 3740TIP3   OH232710   1.929   2.267   4.206  0.6950 -0.8107  0.1132
 3740TIP3    H132711   2.013   2.294   4.245 -0.5253 -0.5988  2.7007
 3740TIP3    H232712   1.904   2.189   4.255 -0.6305 -0.8543 -0.6206
 3741TIP3   OH232713   5.761   2.579   2.313 -0.2812  0.7360  0.2749
 3741TIP3    H132714   5.770   2.598   2.220 -0.2718  2.1810  0.5631
 3741TIP3    H232715   5.751   2.664   2.354 -1.2072  0.0513  1.5036
 3742TIP3   OH232716   6.516   6.085   3.602  0.6450  0.2030 -0.6079
 3742TIP3    H132717   6.493   6.110   3.692  1.8831  1.9390 -0.7539
 3742TIP3    H232718   6.600   6.040   3.611 -0.3121 -1.6679 -0.6652
 3743TIP3   OH232719   6.545   3.276   6.418 -0.3687  0.1237 -0.4505
 3743TIP3    H132720   6.462   3.261   6.463  0.3708 -1.9072  0.3028
 3743TIP3    H232721   6.537   3.227   6.336 -1.0912  2.5054 -1.8756
 3744TIP3   OH232722   5.814   0.247   2.694 -0.0448 -0.6022  0.1610
 3744TIP3    H132723   5.905   0.220   2.680 -0.9573 -2.8460 -1.8892
 3744TIP3    H232724   5.795   0.305   2.620 -0.5021 -0.7391  0.1718
 3745TIP3   OH232725   5.361   6.068   1.904  0.7745  0.0106  0.3829
 3745TIP3    H132726   5.267   6.062   1.885  0.7678 -0.7812  0.6212
 3745TIP3    H232727   5.388   5.977   1.919  1.3753  0.3316  1.2812
 3746TIP3   OH232728   4.881   5.339   4.326  0.3388 -0.8915  0.4411
 3746TIP3    H132729   4.812   5.333   4.392  1.0142 -0.1065  1.2274
 3746TIP3    H232730   4.888   5.250   4.292 -1.4142 -0.8825 -0.0313
 3747TIP3   OH232731   6.602   1.949   4.383 -0.1272  0.0550 -0.2543
 3747TIP3    H132732   6.621   1.855   4.391 -0.4571  0.0576  0.5563
 3747TIP3    H232733   6.640   1.973   4.298  1.0485 -0.5440  0.0814
 3748TIP3   OH232734   2.955   0.521  15.234  0.4461 -0.1534 -0.2752
 3748TIP3    H132735   2.973   0.431  15.205  0.8837 -0.0157 -0.4351
 3748TIP3    H232736   2.950   0.572  15.153 -1.9946 -0.4236 -0.3020
 3749TIP3   OH232737   3.761   4.911  16.413  0.1082 -0.1378 -0.5833
 3749TIP3    H132738   3.718   4.905  16.499 -1.8867  3.1020 -1.2594
 3749TIP3    H232739   3.699   4.870  16.353  0.5950 -0.6295 -0.7464
 3750TIP3   OH232740   2.248   5.842  12.684 -0.8251 -0.0325 -0.2111
 3750TIP3    H132741   2.216   5.847  12.774 -0.6737  2.1701 -0.2570
 3750TIP3    H232742   2.169   5.827  12.632 -0.7535 -2.7654  0.3659
 3751TIP3   OH232743   3.332   1.256   3.804 -0.0817 -0.1550 -0.0931
 3751TIP3    H132744   3.246   1.294   3.785  0.4811  2.1331  1.6406
 3751TIP3    H232745   3.338   1.257   3.900  1.2731 -1.7219 -0.1311
 3752TIP3   OH232746   1.446   0.741   4.053  0.8694  0.1128  0.0886
 3752TIP3    H132747   1.529   0.769   4.014  1.2816  1.2840  1.7463
 3752TIP3    H232748   1.463   0.739   4.147 -0.7676 -0.3716  0.3959
 3753TIP3   OH232749   3.401   2.631  15.574 -0.4870 -0.2188  0.3054
 3753TIP3    H132750   3.308   2.607  15.569 -0.7342  1.0602 -1.6988
 3753TIP3    H232751   3.404   2.702  15.638 -0.6753 -1.1692  1.3887
 3754TIP3   OH232752   6.429   6.457  14.826  0.2694 -0.3402 -0.6021
 3754TIP3    H132753   6.421   6.534  14.769 -1.1651  0.8852  1.1913
 3754TIP3    H232754   6.353   6.404  14.805 -0.3417  0.1838  0.2226
 3755TIP3   OH232755   3.533   4.699  14.016  0.4943 -0.0361 -0.0041
 3755TIP3    H132756   3.501   4.707  13.926  1.6505 -0.8971 -0.5119
 3755TIP3    H232757   3.489   4.621  14.050 -0.5853  0.7725  0.4628
 3756TIP3   OH232758   5.047   3.998  14.761 -0.3066  0.0716 -0.2481
 3756TIP3    H132759   5.055   3.971  14.853 -1.3997  1.1319  0.1614
 3756TIP3    H232760   5.136   4.021  14.735 -0.0514  0.0964  0.6449
 3757TIP3   OH232761   4.283   1.841  15.612  0.0682 -0.2090  0.3915
 3757TIP3    H132762   4.362   1.835  15.666 -0.0968  0.1446  0.6799
 3757TIP3    H232763   4.288   1.928  15.571  0.0072 -0.3267  0.1309
 3758TIP3   OH232764   1.546   1.572   3.317  0.1372 -0.6005  0.1692
 3758TIP3    H132765   1.485   1.509   3.356 -1.3402  1.0125  0.5518
 3758TIP3    H232766   1.489   1.632   3.269  1.6446 -0.3937 -1.4012
 3759TIP3   OH232767   1.005   3.879   1.010 -0.3529 -0.2006 -0.1697
 3759TIP3    H132768   1.047   3.929   1.079 -0.4797  0.2914 -0.4479
 3759TIP3    H232769   1.066   3.807   0.992  0.2188  0.3293 -0.3506
 3760TIP3   OH232770   0.935   4.740   0.709  0.3720  0.3313  0.1780
 3760TIP3    H132771   0.997   4.813   0.707  0.5919  0.1364 -0.0492
 3760TIP3    H232772   0.984   4.666   0.673  0.2755 -0.0271  0.7824
 3761TIP3   OH232773   6.510   0.399  12.834  0.1306  0.0846  0.3518
 3761TIP3    H132774   6.559   0.343  12.773 -1.7332  0.5672 -1.6538
 3761TIP3    H232775   6.530   0.488  12.806 -2.2565  0.2743 -0.8176
 3762TIP3   OH232776   6.413   3.278   1.842 -0.1105  0.3469  0.6172
 3762TIP3    H132777   6.382   3.208   1.900 -1.5651  0.1154 -0.4152
 3762TIP3    H232778   6.347   3.283   1.774 -0.0683  2.8089  0.7254
 3763TIP3   OH232779   6.787   5.895   1.010 -0.4890 -0.1687  0.5010
 3763TIP3    H132780   6.822   5.862   1.093  1.2562 -2.1976 -0.9733
 3763TIP3    H232781   6.724   5.829   0.982  1.4422 -1.2922 -1.4178
 3764TIP3   OH232782   3.845   6.773   2.164 -0.5174  0.5228  0.1504
 3764TIP3    H132783   3.828   6.843   2.227  3.6351  0.4551  1.4997
 3764TIP3    H232784   3.934   6.790   2.133 -0.2144 -2.9591 -1.0764
 3765TIP3   OH232785   5.236   4.429   1.370 -0.1692  0.2672  0.1919
 3765TIP3    H132786   5.182   4.508   1.366 -1.6841 -0.7915 -0.8049
 3765TIP3    H232787   5.253   4.407   1.278  0.3176 -0.5005  0.4626
 3766TIP3   OH232788   3.192   1.110   3.602 -0.0063  0.7558  0.2099
 3766TIP3    H132789   3.143   1.144   3.678  0.5019  2.2413 -0.1058
 3766TIP3    H232790   3.277   1.153   3.608  0.8668 -0.9236  0.0964
 3767TIP3   OH232791   4.643   3.450  11.679 -0.2867  0.1499  0.1753
 3767TIP3    H132792   4.646   3.364  11.721  1.2502  0.1486  0.1057
 3767TIP3    H232793   4.622   3.432  11.588  2.7456 -0.4217 -0.4610
 3768TIP3   OH232794   0.310   1.152   1.427 -0.3411 -0.2380 -0.1719
 3768TIP3    H132795   0.247   1.209   1.471  1.5083  0.2309  1.9670
 3768TIP3    H232796   0.372   1.212   1.386  0.7192 -0.7133  0.7340
 3769TIP3   OH232797   2.637   2.267   2.262  0.3751  0.0173 -0.3081
 3769TIP3    H132798   2.618   2.356   2.294 -0.6674 -1.1728  2.4997
 3769TIP3    H232799   2.733   2.263   2.260  0.4459  0.6923  1.0875
 3770TIP3   OH232800   4.157   1.960   4.574 -0.3117  0.9841  0.2587
 3770TIP3    H132801   4.175   1.868   4.554 -1.3325  1.0134 -0.9106
 3770TIP3    H232802   4.236   1.992   4.615  0.2587 -0.2865  0.1710
 3771TIP3   OH232803   1.761   4.496  16.941  0.5889 -0.1053  0.3752
 3771TIP3    H132804   1.678   4.464  16.977  0.5693  0.8786  1.2217
 3771TIP3    H232805   1.812   4.522  17.018  1.7040 -0.7423 -0.1361
 3772TIP3   OH232806   1.741   2.144  16.024 -0.2943  0.1337  0.0678
 3772TIP3    H132807   1.697   2.074  16.072  1.3249  0.4239  2.0252
 3772TIP3    H232808   1.821   2.161  16.074  0.5831  1.6330 -1.7985
 3773TIP3   OH232809   5.947   4.821  17.048  0.1211  0.2746 -0.4738
 3773TIP3    H132810   5.997   4.740  17.034 -0.4383 -0.0082 -0.8231
 3773TIP3    H232811   5.956   4.870  16.967  0.2430  0.4514 -0.3551
 3774TIP3   OH232812   3.480   1.419   3.098  0.0003  0.2576  0.3578
 3774TIP3    H132813   3.563   1.388   3.135 -0.1969 -1.9270 -0.9334
 3774TIP3    H232814   3.414   1.364   3.138 -0.5514  0.1909 -0.6332
 3775TIP3   OH232815   1.934   3.194  15.609  0.3863 -0.3655 -0.2715
 3775TIP3    H132816   1.950   3.243  15.529 -0.0396 -0.6578 -0.5363
 3775TIP3    H232817   1.947   3.257  15.679  1.9261 -0.3975 -0.5162
 3776TIP3   OH232818   2.884   2.068  13.341  0.7723  0.1373  0.4249
 3776TIP3    H132819   2.961   2.039  13.389  1.9872  2.2246 -0.1903
 3776TIP3    H232820   2.910   2.069  13.249 -0.8956 -1.8571 -0.1017
 3777TIP3   OH232821   3.032   1.020  15.843  0.1375 -0.1922  0.4963
 3777TIP3    H132822   3.090   0.952  15.876  1.2476 -0.2996 -1.5901
 3777TIP3    H232823   3.090   1.087  15.807 -0.9898  0.5530  0.0258
 3778TIP3   OH232824   1.490   0.623   0.080  0.0243 -0.3356  0.2518
 3778TIP3    H132825   1.481   0.677   0.002  0.1002  0.4454  0.7760
 3778TIP3    H232826   1.400   0.614   0.112  0.0266 -0.3973  0.2401
 3779TIP3   OH232827   5.178   1.438  15.380 -0.1982  0.0378  0.5190
 3779TIP3    H132828   5.166   1.346  15.401 -3.7016  0.5471  1.1173
 3779TIP3    H232829   5.258   1.441  15.328  0.7937 -3.1137  1.7573
 3780TIP3   OH232830   2.726   5.611  16.914 -0.2378 -0.0751  0.5364
 3780TIP3    H132831   2.766   5.664  16.983 -0.9705  0.8142  0.2952
 3780TIP3    H232832   2.748   5.521  16.937  0.3073  0.2760  1.4258
 3781TIP3   OH232833   6.263   0.582  16.045  0.1455 -0.2131  0.4482
 3781TIP3    H132834   6.198   0.598  15.977  2.3332  1.1584 -1.3768
 3781TIP3    H232835   6.234   0.500  16.087 -1.9851 -0.3426 -1.1810
 3782TIP3   OH232836   3.335   1.309  12.164 -0.4920  1.2029  0.1864
 3782TIP3    H132837   3.272   1.364  12.118  0.8757  1.3725 -1.5115
 3782TIP3    H232838   3.313   1.219  12.138 -0.9921  1.1474  0.7967
 3783TIP3   OH232839   2.649   6.361  14.574 -0.5246 -0.1854 -0.0153
 3783TIP3    H132840   2.555   6.374  14.560 -0.5759 -0.3270  0.1859
 3783TIP3    H232841   2.655   6.276  14.618 -0.4191  0.4770  1.2826
 3784TIP3   OH232842   2.342   0.655   4.078 -0.4524 -0.1536  0.0590
 3784TIP3    H132843   2.261   0.706   4.070 -0.8720 -0.6222  1.2284
 3784TIP3    H232844   2.400   0.709   4.131 -0.1040  0.0540 -0.5336
 3785TIP3   OH232845   6.807   3.505   1.686  0.3493 -0.0522 -0.0641
 3785TIP3    H132846   6.804   3.430   1.626  0.0576 -0.7959  0.8763
 3785TIP3    H232847   6.895   3.501   1.725  0.5097  0.3850 -0.3776
 3786TIP3   OH232848   0.318   0.176   5.063  0.3143  0.8550  0.4231
 3786TIP3    H132849   0.339   0.250   5.006 -2.3348  0.7128 -0.8003
 3786TIP3    H232850   0.388   0.113   5.046 -0.5617  0.7039 -2.9599
 3787TIP3   OH232851   0.196   5.986   4.220 -0.0750  0.1750 -0.0270
 3787TIP3    H132852   0.124   5.931   4.189 -0.1618 -0.5591  1.4689
 3787TIP3    H232853   0.216   5.954   4.307  3.3279 -0.8371 -1.1090
 3788TIP3   OH232854   2.024   0.393   2.528 -0.3100 -0.2690  0.0173
 3788TIP3    H132855   2.094   0.369   2.467 -0.8412 -2.4491  0.2199
 3788TIP3    H232856   1.951   0.419   2.472 -0.6403 -1.8206 -0.3060
 3789TIP3   OH232857   3.358   5.688  11.192  0.6352 -0.0827 -0.2947
 3789TIP3    H132858   3.425   5.707  11.258  0.2148  1.2709 -0.2374
 3789TIP3    H232859   3.318   5.773  11.174 -0.9229 -0.8382 -0.4796
 3790TIP3   OH232860   0.970   5.704  14.212 -0.4139  0.1638  0.2796
 3790TIP3    H132861   0.931   5.785  14.244 -3.1428 -1.3122  0.8479
 3790TIP3    H232862   1.044   5.688  14.271 -0.4849  1.6902  0.8058
 3791TIP3   OH232863   2.879   5.149  12.748 -0.7035 -0.0612 -0.5202
 3791TIP3    H132864   2.911   5.065  12.780 -1.2916  0.0003  0.2714
 3791TIP3    H232865   2.912   5.213  12.811 -2.2285  0.0163  0.2337
 3792TIP3   OH232866   2.543   3.377  15.853  0.4510  0.8166 -0.9385
 3792TIP3    H132867   2.607   3.306  15.856 -1.1291 -0.6484 -1.0385
 3792TIP3    H232868   2.481   3.350  15.786 -0.9717  1.6255  0.0291
 3793TIP3   OH232869   5.711   0.215  16.642  0.2286  0.0376 -0.5290
 3793TIP3    H132870   5.789   0.267  16.661 -0.1887 -0.1159  1.8164
 3793TIP3    H232871   5.675   0.195  16.728 -0.0481 -3.4827 -1.4015
 3794TIP3   OH232872   5.198   2.576  13.634  0.0431  0.0620  0.3897
 3794TIP3    H132873   5.118   2.525  13.630  0.3775 -0.3418 -4.1818
 3794TIP3    H232874   5.171   2.661  13.670 -2.2150 -0.4443 -0.0610
 3795TIP3   OH232875   1.032   0.219  15.540  0.2566  0.1199 -0.1347
 3795TIP3    H132876   1.097   0.162  15.499  1.9428  2.1988 -0.4199
 3795TIP3    H232877   1.011   0.284  15.473 -0.7514  0.5568  0.5874
 3796TIP3   OH232878   0.251   2.617  16.003  0.3593  0.5479 -0.0009
 3796TIP3    H132879   0.230   2.629  16.095 -1.2183 -1.0825 -0.1260
 3796TIP3    H232880   0.221   2.528  15.982  1.0964  0.7248 -1.9615
 3797TIP3   OH232881   6.536   5.228   1.101 -0.0066 -0.8505 -0.0073
 3797TIP3    H132882   6.598   5.270   1.041  0.4691 -2.0495 -0.3643
 3797TIP3    H232883   6.501   5.300   1.153  1.4822 -0.1202  0.0142
 3798TIP3   OH232884   1.612   2.978   1.064  0.0503 -0.2892  0.5786
 3798TIP3    H132885   1.518   2.994   1.068  0.2970  1.0242  1.2652
 3798TIP3    H232886   1.652   3.059   1.094  1.3975 -1.0587  0.9262
 3799TIP3   OH232887   0.404   0.482  13.987 -0.2702  0.5942  0.2706
 3799TIP3    H132888   0.375   0.414  13.927  0.4493 -1.6340  2.3436
 3799TIP3    H232889   0.500   0.475  13.987 -0.2482  0.6965  1.4725
 3800TIP3   OH232890   2.842   1.674  15.454  0.3189  0.7201 -0.0437
 3800TIP3    H132891   2.776   1.724  15.405  1.0810  0.9207 -0.8926
 3800TIP3    H232892   2.915   1.735  15.465  1.1179 -0.0812 -0.7815
 3801TIP3   OH232893   2.439   1.305   1.104 -0.4336  0.2641  0.5250
 3801TIP3    H132894   2.454   1.388   1.059  0.6462  0.9121  2.0294
 3801TIP3    H232895   2.522   1.258   1.098 -1.5370 -1.4935 -1.8147
 3802TIP3   OH232896   2.124   5.221  11.659  0.1019  0.0628  0.0400
 3802TIP3    H132897   2.038   5.234  11.698  0.4707  0.1194  0.8487
 3802TIP3    H232898   2.158   5.142  11.701  0.2260 -0.2770 -0.6764
 3803TIP3   OH232899   2.149   3.120   5.863 -0.3656 -0.1747 -0.0526
 3803TIP3    H132900   2.054   3.119   5.870 -0.3933  0.5757 -0.2549
 3803TIP3    H232901   2.176   3.198   5.913  0.3671 -2.0543  2.5875
 3804TIP3   OH232902   6.758   2.321  11.990  0.0890 -0.3002  0.4977
 3804TIP3    H132903   6.800   2.380  11.928 -1.4306 -0.1298 -0.3891
 3804TIP3    H232904   6.665   2.325  11.968 -0.1494 -2.3055  1.0322
 3805TIP3   OH232905   1.849   2.951  11.778 -0.1293  0.4518  0.4495
 3805TIP3    H132906   1.936   2.934  11.813  1.1471  1.2800 -2.1803
 3805TIP3    H232907   1.800   2.871  11.795  1.7222 -0.7529  0.3017
 3806TIP3   OH232908   5.427   1.127   4.482  0.1514 -0.4614  0.9149
 3806TIP3    H132909   5.453   1.210   4.442 -1.9688  0.1330  0.7291
 3806TIP3    H232910   5.417   1.147   4.575 -1.1092 -0.3021  0.7562
 3807TIP3   OH232911   4.533   0.729   4.424 -0.0425 -0.2915  0.1646
 3807TIP3    H132912   4.591   0.805   4.410 -0.5597  0.2002  0.6463
 3807TIP3    H232913   4.586   0.669   4.477  0.9698 -1.0107 -1.6253
 3808TIP3   OH232914   5.443   4.198   1.980  0.0068  0.1743 -0.3420
 3808TIP3    H132915   5.405   4.111   1.990 -1.2954  0.8414  0.5907
 3808TIP3    H232916   5.437   4.238   2.067 -0.2912  1.5623 -0.9834
 3809TIP3   OH232917   3.926   5.136   1.412  0.1869  0.0541  0.0406
 3809TIP3    H132918   3.838   5.165   1.436  0.2964  0.4792 -0.0730
 3809TIP3    H232919   3.961   5.207   1.359  0.6723 -0.0277  0.2477
 3810TIP3   OH232920   5.192   0.979   2.458  0.4462  0.0313 -0.9880
 3810TIP3    H132921   5.156   0.897   2.424  1.0692 -0.8369  0.4152
 3810TIP3    H232922   5.120   1.019   2.506  1.3941 -1.8693  2.1092
 3811TIP3   OH232923   4.557   4.363   2.022  0.1256 -0.3502 -0.1342
 3811TIP3    H132924   4.536   4.434   2.083 -0.9056 -2.0104  1.4954
 3811TIP3    H232925   4.641   4.329   2.054 -0.9156 -1.8960  1.0509
 3812TIP3   OH232926   0.957   1.568   2.240 -0.2145 -0.1540  0.5280
 3812TIP3    H132927   0.890   1.597   2.302 -0.7800 -0.2124 -0.0553
 3812TIP3    H232928   1.011   1.646   2.225  1.0706 -0.6246  2.5452
 3813TIP3   OH232929   4.747   1.835  16.673  0.4174  0.1420 -0.0853
 3813TIP3    H132930   4.658   1.870  16.668  0.3313 -0.0342  0.1818
 3813TIP3    H232931   4.757   1.782  16.594 -0.1306 -0.8005  0.4607
 3814TIP3   OH232932   5.900   0.210  14.544 -0.3227 -0.2606  0.4276
 3814TIP3    H132933   5.989   0.173  14.547 -0.3361 -0.3049  0.2850
 3814TIP3    H232934   5.842   0.134  14.547 -0.3414 -0.3047 -0.7529
 3815TIP3   OH232935   1.012   2.125  11.208  0.0189  0.3982 -0.3482
 3815TIP3    H132936   1.054   2.188  11.149  0.2315  0.6174  0.0342
 3815TIP3    H232937   0.990   2.051  11.152  1.8384 -0.1581 -0.3772
 3816TIP3   OH232938   0.442   0.212  12.332 -0.4347 -0.3758  0.5909
 3816TIP3    H132939   0.497   0.282  12.298  1.5467 -0.8418  2.6661
 3816TIP3    H232940   0.419   0.241  12.420 -0.0267 -2.0685  1.2746
 3817TIP3   OH232941   2.034   2.513   0.483 -0.1022 -0.2152 -0.0218
 3817TIP3    H132942   2.128   2.500   0.469 -0.2545 -1.0437 -0.2897
 3817TIP3    H232943   2.028   2.566   0.563  0.5630 -0.8052  0.4155
 3818TIP3   OH232944   3.148   3.286  13.118 -0.2559  0.0040 -0.4926
 3818TIP3    H132945   3.117   3.293  13.208 -0.3866 -0.2235 -0.5197
 3818TIP3    H232946   3.243   3.284  13.125 -0.2385  0.7041 -0.4083
 3819TIP3   OH232947   4.845   6.081   2.959 -0.2992  0.0625 -0.5745
 3819TIP3    H132948   4.932   6.047   2.981  0.2946  0.3926 -2.2872
 3819TIP3    H232949   4.784   6.021   3.003  0.7892  0.0203  0.9005
 3820TIP3   OH232950   6.247   3.272  12.586 -0.1392  0.3027  0.3017
 3820TIP3    H132951   6.316   3.337  12.599 -1.8162  1.9080  1.5023
 3820TIP3    H232952   6.226   3.241  12.674  0.4626 -1.7054 -0.2413
 3821TIP3   OH232953   5.700   3.703  14.283  0.1535  0.6946 -0.2741
 3821TIP3    H132954   5.746   3.646  14.344 -1.4681  0.0141  0.3158
 3821TIP3    H232955   5.679   3.647  14.208  2.5266  1.6229 -1.7250
 3822TIP3   OH232956   1.347   1.243  12.537  0.1069 -0.0584  0.0431
 3822TIP3    H132957   1.350   1.339  12.536  0.1559 -0.0756 -1.7743
 3822TIP3    H232958   1.431   1.217  12.576  0.0055  0.6336  0.7328
 3823TIP3   OH232959   6.178   3.727  16.012  0.0560  0.1240  0.2083
 3823TIP3    H132960   6.122   3.662  16.056 -1.2471  1.4676  0.5613
 3823TIP3    H232961   6.242   3.751  16.078 -0.2382  0.1326  0.4960
 3824TIP3   OH232962   1.389   2.834   5.276 -0.6614 -0.4602  0.2219
 3824TIP3    H132963   1.416   2.756   5.324 -1.1808 -1.4894 -1.1071
 3824TIP3    H232964   1.294   2.828   5.273 -0.7456  0.6115  0.7371
 3825TIP3   OH232965   4.144   5.419   2.788  0.1164  0.0827 -0.3510
 3825TIP3    H132966   4.155   5.471   2.709  2.1591  0.2794  0.0516
 3825TIP3    H232967   4.216   5.355   2.786 -0.4973 -0.6775  0.7526
 3826TIP3   OH232968   2.122   0.427   4.911 -0.5230  0.1305  0.2780
 3826TIP3    H132969   2.137   0.356   4.973  1.3004 -0.3441 -0.6828
 3826TIP3    H232970   2.028   0.425   4.895 -0.5646 -1.7511  0.6319
 3827TIP3   OH232971   6.108   5.887  14.056  0.0787  0.2763  0.3216
 3827TIP3    H132972   6.113   5.910  14.149  0.9441 -0.2166  0.4042
 3827TIP3    H232973   6.136   5.795  14.052  0.4215  0.4047 -0.4621
 3828TIP3   OH232974   6.600   1.746  16.212 -0.2160  0.5797 -0.1058
 3828TIP3    H132975   6.599   1.831  16.257 -0.3965  1.7408 -2.2086
 3828TIP3    H232976   6.511   1.736  16.178 -0.6525 -1.2527  1.5212
 3829TIP3   OH232977   0.562   4.384  14.704  0.6732  0.1986 -0.1217
 3829TIP3    H132978   0.499   4.446  14.741  1.3304  0.3759  0.7015
 3829TIP3    H232979   0.537   4.300  14.743  0.4033  0.1058 -0.4811
 3830TIP3   OH232980   2.880   6.015   0.831  0.6313 -0.0072  0.6524
 3830TIP3    H132981   2.893   6.110   0.843 -0.3447  0.2408 -0.2013
 3830TIP3    H232982   2.893   6.001   0.737  1.3632 -0.8213  0.8742
 3831TIP3   OH232983   4.874   5.126  15.024 -0.2081 -0.5738 -0.1403
 3831TIP3    H132984   4.914   5.143  15.109 -0.8958  0.9152 -0.0935
 3831TIP3    H232985   4.937   5.071  14.978  1.2609  0.5951  0.4397
 3832TIP3   OH232986   2.017   3.122   0.528  0.3313  0.1861 -0.3926
 3832TIP3    H132987   1.985   3.095   0.442  0.9022  1.5184 -1.0249
 3832TIP3    H232988   2.104   3.157   0.512  0.0830  1.2818  0.5937
 3833TIP3   OH232989   6.522   5.843   5.286 -0.0400 -0.0089 -0.7713
 3833TIP3    H132990   6.600   5.793   5.262  1.1675  1.3506  0.2687
 3833TIP3    H232991   6.449   5.789   5.256  1.3040 -1.0677 -2.2061
 3834TIP3   OH232992   0.729   3.419  11.389  0.2578 -0.6744 -0.3745
 3834TIP3    H132993   0.688   3.505  11.379  0.2532 -0.6756 -0.3673
 3834TIP3    H232994   0.823   3.437  11.379  0.3505 -0.4854  0.7448
 3835TIP3   OH232995   4.465   2.380   2.588  0.2837 -0.2845 -0.6440
 3835TIP3    H132996   4.500   2.469   2.588  1.2506 -0.6531 -0.3689
 3835TIP3    H232997   4.449   2.361   2.681  2.5376 -1.3195 -0.4275
 3836TIP3   OH232998   2.193   5.887  13.433 -0.0027  0.3301 -0.2079
 3836TIP3    H132999   2.273   5.835  13.436 -0.8711 -1.3522 -3.6590
 3836TIP3    H233000   2.123   5.823  13.421 -1.7812  1.8674  1.6443
 3837TIP3   OH233001   6.271   0.463  13.593  0.2228  0.1027 -0.4157
 3837TIP3    H133002   6.204   0.529  13.612 -0.9277 -0.8148 -1.1890
 3837TIP3    H233003   6.303   0.487  13.506  0.4381  0.1626 -0.3193
 3838TIP3   OH233004   4.526   3.409  16.756  0.7527  0.0374  0.1803
 3838TIP3    H133005   4.509   3.369  16.671  1.1359  1.8663 -0.7933
 3838TIP3    H233006   4.463   3.480  16.763  1.9153  1.0587  0.6017
 3839TIP3   OH233007   2.814   5.221   2.292  0.0220  0.1454  0.6485
 3839TIP3    H133008   2.865   5.176   2.360 -1.0732  1.0513  2.0812
 3839TIP3    H233009   2.775   5.296   2.336 -0.8894  0.6338 -0.9343
 3840TIP3   OH233010   1.006   0.861  12.820  0.2383 -0.2257 -0.0623
 3840TIP3    H133011   0.933   0.883  12.762  0.4658 -0.8614 -0.6025
 3840TIP3    H233012   1.057   0.942  12.827 -0.1664  0.0407 -0.1971
 3841TIP3   OH233013   1.766   2.405   4.409 -0.1983 -0.0040  0.3071
 3841TIP3    H133014   1.816   2.331   4.375 -1.1883 -0.7859  0.5090
 3841TIP3    H233015   1.782   2.477   4.348  2.9219  0.4204  1.5671
 3842TIP3   OH233016   0.521   6.136   0.861 -0.6684  0.6243  0.1177
 3842TIP3    H133017   0.455   6.183   0.810  0.2028  1.8040  0.0346
 3842TIP3    H233018   0.592   6.119   0.799 -0.2752  0.6589  0.5507
 3843TIP3   OH233019   1.110   4.964   0.686  0.0856  0.1329 -0.0758
 3843TIP3    H133020   1.199   4.930   0.690 -0.0915 -0.1916  1.9787
 3843TIP3    H233021   1.100   4.998   0.598  1.5435 -1.7663 -1.0026
 3844TIP3   OH233022   2.989   6.291   1.529  0.4780 -0.6512  0.0066
 3844TIP3    H133023   2.916   6.280   1.467  0.3949  0.3008 -0.0640
 3844TIP3    H233024   2.947   6.313   1.612  0.5078 -3.2505  0.7635
 3845TIP3   OH233025   0.774   4.549  13.986  0.1696  0.4678  0.1368
 3845TIP3    H133026   0.821   4.505  13.915  1.3320  1.0366  0.5433
 3845TIP3    H233027   0.696   4.585  13.945  0.8522  0.8210 -0.8670
 3846TIP3   OH233028   5.900   0.138  12.822  0.0593  0.3882 -0.4891
 3846TIP3    H133029   5.933   0.065  12.874  3.2886  0.3403 -2.4737
 3846TIP3    H233030   5.816   0.108  12.788  1.2893 -2.4047 -1.1777
 3847TIP3   OH233031   0.802   6.414   0.368 -0.6144 -0.4524  0.2123
 3847TIP3    H133032   0.741   6.415   0.442 -0.9281 -1.4510 -0.0182
 3847TIP3    H233033   0.757   6.463   0.299 -0.0985  0.9306  0.8471
 3848TIP3   OH233034   4.820   2.300  14.913  0.2372  0.4784  0.0263
 3848TIP3    H133035   4.838   2.353  14.835  0.0050 -1.0553 -1.1068
 3848TIP3    H233036   4.905   2.265  14.939  0.1934  0.2795 -0.0907
 3849TIP3   OH233037   3.122   6.036  12.109 -0.3588 -0.7762 -0.1083
 3849TIP3    H133038   3.209   6.069  12.087  0.3746 -1.3152  1.8694
 3849TIP3    H233039   3.079   6.022  12.025  1.0137  0.6922 -1.0689
 3850TIP3   OH233040   3.343   3.400   3.737 -0.3035  0.2017  0.2914
 3850TIP3    H133041   3.298   3.319   3.762  0.6024 -1.2537 -2.5551
 3850TIP3    H233042   3.414   3.409   3.800  0.9624 -2.4771 -0.7054
 3851TIP3   OH233043   4.234   3.883   4.418  0.4998  0.1222 -0.6286
 3851TIP3    H133044   4.243   3.788   4.422 -1.3805 -0.0277  0.4313
 3851TIP3    H233045   4.321   3.916   4.441  1.1307 -1.3215 -0.8792
 3852TIP3   OH233046   5.376   2.638   4.741  0.3259 -0.1968 -0.2126
 3852TIP3    H133047   5.341   2.551   4.726  0.0218 -0.2243  0.6225
 3852TIP3    H233048   5.469   2.631   4.721  0.3295 -0.7510 -0.0013
 3853TIP3   OH233049   0.118   6.155  15.973  0.9259  0.1573  0.2432
 3853TIP3    H133050   0.040   6.197  15.936  0.5393  1.1717  2.1204
 3853TIP3    H233051   0.136   6.082  15.914 -1.5557 -0.2027 -0.1442
 3854TIP3   OH233052   0.627   5.926   6.381  0.3218 -0.1845  0.1800
 3854TIP3    H133053   0.668   5.849   6.421 -0.9144 -1.0140 -0.1274
 3854TIP3    H233054   0.672   6.001   6.421  2.5567 -1.0673 -0.5943
 3855TIP3   OH233055   3.212   3.134   4.176 -0.3525 -0.1693 -0.5036
 3855TIP3    H133056   3.175   3.059   4.130 -1.7858 -0.2705  0.7880
 3855TIP3    H233057   3.183   3.210   4.125 -1.9422 -0.2793  0.2106
 3856TIP3   OH233058   1.644   1.614  13.987  0.2465 -0.1777 -0.2112
 3856TIP3    H133059   1.627   1.701  13.951  0.7153  0.2665  0.6227
 3856TIP3    H233060   1.631   1.554  13.914  3.6867  0.9217 -1.8332
 3857TIP3   OH233061   2.735   0.530   3.757  0.0285  0.5767 -0.6862
 3857TIP3    H133062   2.662   0.478   3.723 -0.7974  1.4477 -0.2660
 3857TIP3    H233063   2.813   0.488   3.720 -0.5095 -1.8338  0.7515
 3858TIP3   OH233064   3.705   6.488  13.490  0.8204  0.1908  0.0243
 3858TIP3    H133065   3.678   6.543  13.417  1.5404  1.5770  0.7757
 3858TIP3    H233066   3.690   6.399  13.460  0.0040  0.7810 -1.3662
 3859TIP3   OH233067   4.680   1.993   2.101 -0.0665  0.0976 -0.1138
 3859TIP3    H133068   4.718   2.025   2.019 -1.5795  0.0553 -0.8546
 3859TIP3    H233069   4.631   2.067   2.136  0.3823  0.0441  0.6393
 3860TIP3   OH233070   3.985   4.090   3.179 -0.0243  0.0288 -0.3462
 3860TIP3    H133071   3.892   4.115   3.183  0.0296  0.1619  0.0849
 3860TIP3    H233072   4.032   4.168   3.209  0.2399  0.0350 -0.7750
 3861TIP3   OH233073   3.477   3.032   5.735  1.1769 -0.2654  0.5200
 3861TIP3    H133074   3.570   3.011   5.746  1.6301  1.9587  1.0010
 3861TIP3    H233075   3.448   3.060   5.822  0.5064  0.8082 -0.0422
 3862TIP3   OH233076   0.675   2.135   5.269  0.0907  0.4736 -0.3167
 3862TIP3    H133077   0.755   2.184   5.251 -0.3304 -0.0716 -3.9729
 3862TIP3    H233078   0.689   2.098   5.356  2.5954  2.6982  0.2929
 3863TIP3   OH233079   4.837   2.162  11.891 -0.8447 -0.0664  0.3549
 3863TIP3    H133080   4.853   2.256  11.896  0.4119 -0.1708 -1.1504
 3863TIP3    H233081   4.757   2.148  11.942 -1.6498  1.9679 -0.3003
 3864TIP3   OH233082   5.559   4.383   2.950  0.2874  0.3015  0.0230
 3864TIP3    H133083   5.637   4.432   2.923  2.5252 -1.2234  3.3533
 3864TIP3    H233084   5.507   4.445   3.001  0.5510  0.6564 -0.1431
 3865TIP3   OH233085   3.483   2.373  13.958 -0.1457 -0.2374 -0.0451
 3865TIP3    H133086   3.515   2.455  13.921  0.0476  0.4411  1.5470
 3865TIP3    H233087   3.542   2.355  14.032 -0.7483 -1.3173  0.2015
 3866TIP3   OH233088   1.165   5.087   1.225  0.0875 -0.5248 -0.0540
 3866TIP3    H133089   1.224   5.061   1.155 -0.3360 -0.5563 -0.4000
 3866TIP3    H233090   1.078   5.087   1.185 -0.0532  0.3306  0.2376
 3867TIP3   OH233091   2.608   5.430   1.886  0.2484 -0.3491  0.3325
 3867TIP3    H133092   2.685   5.389   1.845 -0.5366 -0.9708 -0.5498
 3867TIP3    H233093   2.540   5.425   1.818 -0.4790  0.4685  1.0018
 3868TIP3   OH233094   4.213   2.903   0.777  0.2461 -0.7744 -0.3659
 3868TIP3    H133095   4.150   2.905   0.705  0.2238 -0.7210 -0.3446
 3868TIP3    H233096   4.257   2.818   0.769  1.1059 -0.2658 -1.1914
 3869TIP3   OH233097   2.075   5.273   4.596 -0.3059 -0.8322 -0.0923
 3869TIP3    H133098   2.154   5.327   4.599 -1.2543  0.5008  3.8948
 3869TIP3    H233099   2.108   5.183   4.587  1.5789 -0.1480 -0.3542
 3870TIP3   OH233100   0.241   4.672   4.525  0.1463 -0.0620  0.3183
 3870TIP3    H133101   0.222   4.593   4.475  0.8009 -0.2172  0.3055
 3870TIP3    H233102   0.335   4.667   4.543  0.4447  1.3248 -0.7498
 3871TIP3   OH233103   2.678   2.460   4.035 -0.1725 -0.2823  0.1214
 3871TIP3    H133104   2.679   2.452   3.940 -0.2748  1.7088 -0.0761
 3871TIP3    H233105   2.767   2.487   4.057  0.2658 -2.1839  0.7514
 3872TIP3   OH233106   4.927   0.797   1.511  0.0479  0.0222  0.3610
 3872TIP3    H133107   4.941   0.733   1.442 -0.4703  0.2813  0.0182
 3872TIP3    H233108   4.861   0.857   1.476 -1.1020 -0.5373  1.5316
 3873TIP3   OH233109   0.940   5.742   2.022  0.3684  0.0523  0.0955
 3873TIP3    H133110   0.897   5.791   1.952  0.0300 -1.1910 -0.5985
 3873TIP3    H233111   0.990   5.674   1.976 -0.0005 -0.8961  1.0693
 3874TIP3   OH233112   2.187   0.581  10.986  0.5172  0.0767  0.2296
 3874TIP3    H133113   2.176   0.497  11.030 -0.1788  0.4994  0.8812
 3874TIP3    H233114   2.149   0.567  10.899  1.6682 -0.6865 -0.1533
 3875TIP3   OH233115   5.831   6.633   3.714  0.4484  0.2777  0.5751
 3875TIP3    H133116   5.770   6.570   3.752  1.1232  0.6662  2.3459
 3875TIP3    H233117   5.858   6.594   3.631 -1.8151 -0.1221  0.0084
 3876TIP3   OH233118   2.455   0.887   4.685 -0.7590  0.2575 -0.0383
 3876TIP3    H133119   2.408   0.871   4.767 -0.1351 -0.3399  0.2023
 3876TIP3    H233120   2.546   0.899   4.711 -0.9612  2.7731 -0.3538
 3877TIP3   OH233121   4.343   5.340  10.328  0.4153  0.1768  0.0767
 3877TIP3    H133122   4.333   5.431  10.356  0.5697 -0.0100  0.7554
 3877TIP3    H233123   4.437   5.327  10.321  0.4743 -0.4084  1.6377
 3878TIP3   OH233124   6.657   3.353   1.511 -0.3816  0.1962 -0.5379
 3878TIP3    H133125   6.632   3.446   1.511  1.7078  0.8042 -1.7666
 3878TIP3    H233126   6.646   3.325   1.421 -1.4664 -0.9098 -0.0704
 3879TIP3   OH233127   4.227   2.073  15.154 -0.5119  0.6515 -0.3222
 3879TIP3    H133128   4.201   2.022  15.231 -1.4762  0.5715 -0.6971
 3879TIP3    H233129   4.182   2.032  15.081  1.1882  0.1348 -1.0823
 3880TIP3   OH233130   5.107   2.177   2.164  0.0904  0.5476  0.2899
 3880TIP3    H133131   5.018   2.207   2.149  0.4014  0.4144 -1.9542
 3880TIP3    H233132   5.162   2.250   2.136  0.7294 -0.1029 -0.1512
 3881TIP3   OH233133   4.643   0.920  12.712  0.6207 -0.1985  0.5433
 3881TIP3    H133134   4.724   0.894  12.669 -0.3537 -0.4226 -1.2264
 3881TIP3    H233135   4.596   0.970  12.645 -1.3026 -1.2453  1.0802
 3882TIP3   OH233136   0.792   1.782  10.441 -0.0103  0.2546 -0.4701
 3882TIP3    H133137   0.791   1.847  10.511  0.5581 -0.3905  0.1485
 3882TIP3    H233138   0.852   1.714  10.472 -0.0228 -0.2078 -1.4299
 3883TIP3   OH233139   0.013   0.481   4.633  0.3534  0.3061 -0.2086
 3883TIP3    H133140   0.065   0.487   4.713 -0.7162  1.6828  0.3837
 3883TIP3    H233141  -0.010   0.571   4.612 -1.2432 -0.2403 -0.8475
 3884TIP3   OH233142   1.033   0.415  16.248  0.5839 -0.4951 -0.5024
 3884TIP3    H133143   1.116   0.463  16.245  0.3960  0.0448  1.8707
 3884TIP3    H233144   1.053   0.335  16.297 -0.2323 -0.4502 -0.0860
 3885TIP3   OH233145   1.222   6.397  16.979  0.0851 -0.5430  0.1934
 3885TIP3    H133146   1.302   6.442  16.951 -0.9369  0.8555 -0.5148
 3885TIP3    H233147   1.234   6.307  16.947  1.3720 -0.3519  0.1015
 3886TIP3   OH233148   1.518   5.037  12.865 -0.4642 -0.4550  0.2512
 3886TIP3    H133149   1.542   5.128  12.844 -3.1866 -0.0404 -1.2066
 3886TIP3    H233150   1.541   4.987  12.786  0.7411 -1.0113  0.9369
 3887TIP3   OH233151   1.587   5.105  11.633 -0.4349 -0.2471  0.2420
 3887TIP3    H133152   1.503   5.099  11.587  0.2093 -1.3011 -0.8291
 3887TIP3    H233153   1.574   5.056  11.714  0.1398 -3.3438 -1.4600
 3888TIP3   OH233154   1.262   0.171   2.368  0.1406 -0.0798 -0.4129
 3888TIP3    H133155   1.319   0.124   2.430 -0.3501 -1.5950 -1.0902
 3888TIP3    H233156   1.174   0.161   2.404  0.0108  0.1844 -0.6588
 3889TIP3   OH233157   1.768   4.073  12.059 -0.0261  0.4342  0.6211
 3889TIP3    H133158   1.833   4.036  11.999  0.3784  1.5026  0.3947
 3889TIP3    H233159   1.688   4.024  12.041  0.5129 -0.3633  0.3617
 3890TIP3   OH233160   5.849   1.767  15.519  0.3094  0.0708  0.3256
 3890TIP3    H133161   5.879   1.827  15.588  3.2665 -1.8869  0.8658
 3890TIP3    H233162   5.798   1.701  15.565  1.2167 -0.5389  0.4606
 3891TIP3   OH233163   2.592   1.220  12.641 -0.8396  0.5807  0.0548
 3891TIP3    H133164   2.641   1.220  12.723 -1.1219 -0.3953  0.2308
 3891TIP3    H233165   2.588   1.128  12.615 -0.6392  0.8938 -1.1263
 3892TIP3   OH233166   6.269   4.291  14.228 -0.1516 -0.3778  0.1764
 3892TIP3    H133167   6.346   4.331  14.269  0.0523 -1.1353  0.5391
 3892TIP3    H233168   6.230   4.361  14.176 -0.4799  0.6419  1.7527
 3893TIP3   OH233169   4.543   3.682  12.645 -0.1587  0.0598  0.6223
 3893TIP3    H133170   4.542   3.691  12.550 -3.7202  0.0951  0.5709
 3893TIP3    H233171   4.534   3.587  12.659 -0.7148  0.1502  0.8898
 3894TIP3   OH233172   4.976   0.422  15.449 -0.1365 -0.0150  0.4572
 3894TIP3    H133173   5.066   0.454  15.448 -0.2188  0.2922  2.2289
 3894TIP3    H233174   4.935   0.468  15.522 -1.6413 -0.4020 -0.1332
 3895TIP3   OH233175   2.719   4.283  10.736  0.0528 -0.2410 -0.2654
 3895TIP3    H133176   2.678   4.215  10.791  0.5025 -1.6498 -1.6256
 3895TIP3    H233177   2.804   4.247  10.713 -0.0437  0.4091 -1.7069
 3896TIP3   OH233178   2.445   0.195   3.439 -0.3095  0.2113  0.0249
 3896TIP3    H133179   2.376   0.182   3.504  0.2157 -1.3952  0.2882
 3896TIP3    H233180   2.485   0.109   3.430  1.7596  1.1561 -0.0108
 3897TIP3   OH233181   1.901   6.208   5.891 -0.4412  0.1422  0.9596
 3897TIP3    H133182   1.883   6.187   5.799  0.9928 -0.6469  0.8557
 3897TIP3    H233183   1.988   6.246   5.891  0.6516 -2.2401  2.3033
 3898TIP3   OH233184   4.421   6.601   1.420 -0.4540 -0.4388  0.0325
 3898TIP3    H133185   4.368   6.608   1.340 -0.2289  0.6018 -0.0360
 3898TIP3    H233186   4.395   6.678   1.472  0.2948 -0.4417  0.4140
 3899TIP3   OH233187   5.027   2.908  13.229  0.6447 -0.1799  0.4482
 3899TIP3    H133188   5.029   2.957  13.312  1.3165 -0.7338  0.7674
 3899TIP3    H233189   5.104   2.940  13.181  0.7300 -0.4748  0.3929
 3900TIP3   OH233190   1.089   1.153   3.072  0.5588  0.2454  0.0591
 3900TIP3    H133191   1.051   1.231   3.112 -1.1219 -0.5886  0.1406
 3900TIP3    H233192   1.044   1.080   3.115 -0.2519 -0.6981 -2.3203
 3901TIP3   OH233193   6.230   0.763   1.819  0.9513  0.5962 -0.3094
 3901TIP3    H133194   6.312   0.735   1.861  1.0815  1.4766  0.0309
 3901TIP3    H233195   6.161   0.720   1.870  1.1513  0.8497  0.1768
 3902TIP3   OH233196   5.482   3.965   1.343  0.0943 -0.1343 -0.3351
 3902TIP3    H133197   5.543   4.032   1.373  0.6297 -0.7119 -0.0953
 3902TIP3    H233198   5.531   3.918   1.275 -0.7237  0.4979 -1.3722
 3903TIP3   OH233199   2.938   3.061   2.051  0.7439  0.2021  0.2520
 3903TIP3    H133200   2.879   2.997   2.090  0.6275 -0.1888 -0.5355
 3903TIP3    H233201   3.011   3.068   2.112 -0.0600  0.6030  1.1768
 3904TIP3   OH233202   3.632   2.200  15.961 -0.7324 -0.1305 -0.0855
 3904TIP3    H133203   3.635   2.295  15.955  0.7387 -0.0753  1.1058
 3904TIP3    H233204   3.677   2.169  15.882 -1.3465  0.1633 -0.5484
 3905TIP3   OH233205   2.286   3.192   6.324  0.0601  0.2587 -0.2242
 3905TIP3    H133206   2.375   3.217   6.297  0.5297 -0.6376  0.4557
 3905TIP3    H233207   2.269   3.247   6.401  0.0944  0.3099 -0.2529
 3906TIP3   OH233208   3.973   3.423  11.821  0.1835  0.0438  0.9048
 3906TIP3    H133209   4.037   3.450  11.755 -1.4550  0.1676 -0.6971
 3906TIP3    H233210   3.931   3.346  11.783 -2.6683  1.7139  0.5028
 3907TIP3   OH233211   0.653   2.135   5.564  0.2333 -0.2739 -0.2661
 3907TIP3    H133212   0.659   2.041   5.581  0.4561 -0.5860 -1.9774
 3907TIP3    H233213   0.561   2.156   5.580 -0.1144 -1.0580 -1.2298
 3908TIP3   OH233214   5.045   6.240  16.542  0.6963 -0.4837 -0.5645
 3908TIP3    H133215   5.029   6.293  16.620 -1.0186 -0.4596 -0.9157
 3908TIP3    H233216   5.137   6.255  16.522  0.2236  2.4785 -0.7345
 3909TIP3   OH233217   1.861   5.948   6.038  0.1044 -0.3003  0.5176
 3909TIP3    H133218   1.814   5.983   5.961 -0.0234  0.0665  0.7574
 3909TIP3    H233219   1.826   5.999   6.111  0.3359 -0.5486  0.7983
 3910TIP3   OH233220   0.135   0.480  16.380  0.2109  0.4590 -0.0055
 3910TIP3    H133221   0.148   0.386  16.368  1.0074  0.2633  2.2688
 3910TIP3    H233222   0.055   0.499  16.331 -1.3554 -1.8863  1.5547
 3911TIP3   OH233223   2.550   1.403   2.087 -0.2903  0.0069  0.0984
 3911TIP3    H133224   2.468   1.355   2.096 -1.0594  1.0495 -1.2284
 3911TIP3    H233225   2.617   1.343   2.121 -1.7376 -0.3538  2.3533
 3912TIP3   OH233226   1.409   2.753  11.526  0.1564 -0.1730 -0.1051
 3912TIP3    H133227   1.336   2.812  11.542  0.1871 -0.2295  0.2626
 3912TIP3    H233228   1.396   2.681  11.588 -0.3901 -1.0258 -1.1874
 3913TIP3   OH233229   2.766   0.760  16.284 -0.0005 -0.1973 -0.2806
 3913TIP3    H133230   2.683   0.794  16.317 -1.4189 -3.3659 -0.3871
 3913TIP3    H233231   2.820   0.746  16.362 -0.1020  0.5396 -0.0858
 3914TIP3   OH233232   6.036   2.009   3.627  0.6884  0.2420 -0.3294
 3914TIP3    H133233   6.011   2.062   3.703  1.6420 -0.2722  0.3585
 3914TIP3    H233234   6.126   2.035   3.609  0.7045 -0.1631 -0.8340
 3915TIP3   OH233235   0.853   1.840  17.271  0.3359 -0.0719 -0.4984
 3915TIP3    H133236   0.863   1.752  17.306 -1.6139 -0.4942 -0.9273
 3915TIP3    H233237   0.855   1.897  17.348  0.2800 -0.6087 -0.0950
 3916TIP3   OH233238   1.695   0.764   4.451  0.0213  0.2228  0.2635
 3916TIP3    H133239   1.682   0.845   4.402 -0.7534 -1.1551 -1.9167
 3916TIP3    H233240   1.790   0.754   4.458  0.1269  0.9124 -0.1837
 3917TIP3   OH233241   1.730   5.035  12.597 -0.0479  0.5563  0.4434
 3917TIP3    H133242   1.698   5.063  12.511  0.2108  1.8788  0.7599
 3917TIP3    H233243   1.754   5.117  12.641  2.2048 -0.2779  0.8249
 3918TIP3   OH233244   2.921   5.709  13.384  0.2733  0.0027  1.1228
 3918TIP3    H133245   2.874   5.712  13.301  0.6287 -0.7463  0.8869
 3918TIP3    H233246   2.887   5.783  13.434  0.1908  0.5624  0.2426
 3919TIP3   OH233247   5.615   5.779  11.104 -0.3222 -0.5082 -0.9112
 3919TIP3    H133248   5.555   5.842  11.066  0.0281  1.4545  1.6537
 3919TIP3    H233249   5.698   5.795  11.059 -0.2043  0.9733 -0.1975
 3920TIP3   OH233250   6.210   5.092   0.752 -0.4144 -0.1829  0.1965
 3920TIP3    H133251   6.277   5.025   0.765 -1.2113 -0.8210  1.1116
 3920TIP3    H233252   6.185   5.082   0.660 -0.4217 -1.0516  0.2859
 3921TIP3   OH233253   1.538   4.327   1.352 -0.1174  0.6607 -0.7757
 3921TIP3    H133254   1.591   4.263   1.400  2.3889  1.4069 -2.4664
 3921TIP3    H233255   1.568   4.319   1.262 -3.2061  0.8376 -1.8482
 3922TIP3   OH233256   4.401   5.026   4.841  0.1968 -0.4703 -0.2236
 3922TIP3    H133257   4.469   4.962   4.821  1.3982  0.3015  1.3069
 3922TIP3    H233258   4.394   5.023   4.937 -1.9365 -0.5519 -0.3616
 3923TIP3   OH233259   5.383   6.275  13.649  0.4137  0.9119 -0.0548
 3923TIP3    H133260   5.319   6.333  13.690  0.8214  1.9748 -0.8858
 3923TIP3    H233261   5.377   6.193  13.699 -0.8115  1.3594  0.5605
 3924TIP3   OH233262   0.950   0.714   1.953 -0.0653 -1.1723 -0.1148
 3924TIP3    H133263   0.970   0.708   2.046 -0.0825  2.3774  0.1603
 3924TIP3    H233264   0.867   0.668   1.943 -1.3205  0.5699  2.0552
 3925TIP3   OH233265   0.906   3.955  15.722  0.5535  0.4148  0.3295
 3925TIP3    H133266   0.937   3.928  15.809  1.0619 -1.1307 -0.3003
 3925TIP3    H233267   0.813   3.935  15.723  0.4199  1.0515  0.7574
 3926TIP3   OH233268   6.816   5.892   2.230 -0.3951 -0.6360 -0.5401
 3926TIP3    H133269   6.855   5.978   2.219  0.0226 -0.5857  1.1662
 3926TIP3    H233270   6.730   5.899   2.189 -0.3461  0.5798 -0.4442
 3927TIP3   OH233271   0.942   3.514  15.615 -0.0731 -0.5404  0.0823
 3927TIP3    H133272   0.855   3.508  15.655 -0.4639  0.0282 -0.6645
 3927TIP3    H233273   0.926   3.501  15.522  0.6657 -0.5680 -0.0408
 3928TIP3   OH233274   2.775   2.154  14.534  0.3261 -0.2238  0.1009
 3928TIP3    H133275   2.808   2.071  14.501  0.0899 -1.1465  2.1277
 3928TIP3    H233276   2.684   2.157  14.505  0.3292 -0.6838  0.0442
 3929TIP3   OH233277   3.028   1.349   2.325  0.0234 -0.3333  0.3958
 3929TIP3    H133278   2.976   1.304   2.391 -1.0049 -0.7198 -0.6574
 3929TIP3    H233279   3.098   1.287   2.303  0.0271 -0.4361  0.6946
 3930TIP3   OH233280   3.127   4.879  15.747  1.0922 -0.4080 -0.0775
 3930TIP3    H133281   3.177   4.895  15.666 -0.1477  0.7487 -0.6357
 3930TIP3    H233282   3.042   4.848  15.716 -0.0454  1.7975  0.6834
 3931TIP3   OH233283   4.605   4.357  17.028 -0.2879  0.3607  0.0362
 3931TIP3    H133284   4.691   4.366  17.069 -0.2548  0.5193 -0.0647
 3931TIP3    H233285   4.623   4.325  16.939 -0.2756  1.1541 -0.2539
 3932TIP3   OH233286   5.351   1.874   3.746  0.3162 -0.5336 -0.1801
 3932TIP3    H133287   5.419   1.911   3.803  1.5449 -1.5016 -0.9708
 3932TIP3    H233288   5.269   1.898   3.787  1.1528  0.6233  0.8353
 3933TIP3   OH233289   1.477   5.921  12.090 -0.4140  0.1572  0.4505
 3933TIP3    H133290   1.544   5.947  12.027 -1.2571  1.1035 -0.0557
 3933TIP3    H233291   1.506   5.959  12.173 -0.4643  0.7997  0.1749
 3934TIP3   OH233292   2.141   3.875  13.121  0.2781 -0.0526  0.9698
 3934TIP3    H133293   2.108   3.964  13.137 -0.1603 -0.4431  2.3320
 3934TIP3    H233294   2.072   3.833  13.069 -0.0504  0.0566  1.3104
 3935TIP3   OH233295   4.555   1.720   5.642  0.6114 -0.2534  0.1099
 3935TIP3    H133296   4.594   1.662   5.708 -0.6414 -2.0549 -0.6957
 3935TIP3    H233297   4.569   1.674   5.559  0.4826  1.0844 -0.6587
 3936TIP3   OH233298   5.610   5.029   0.142  0.7782 -0.0185 -0.1353
 3936TIP3    H133299   5.546   5.060   0.205 -1.8960 -2.3246 -1.6137
 3936TIP3    H233300   5.568   5.041   0.057  2.3024 -1.5411 -1.1515
 3937TIP3   OH233301   0.446   1.324  12.936  0.2529 -0.2429  0.4938
 3937TIP3    H133302   0.412   1.265  13.003 -3.1679  1.3921  0.3194
 3937TIP3    H233303   0.475   1.401  12.985 -0.3792  0.1294  0.2937
 3938TIP3   OH233304   3.943   5.892   5.980  0.2357  0.2006 -0.2466
 3938TIP3    H133305   4.016   5.882   5.918  0.0872  1.3266 -0.6073
 3938TIP3    H233306   3.985   5.894   6.066  0.5857  0.3752 -0.4209
 3939TIP3   OH233307   4.798   3.163   3.030 -0.0941 -0.4350  0.5523
 3939TIP3    H133308   4.715   3.132   3.066 -0.4556  2.2599  2.2054
 3939TIP3    H233309   4.774   3.209   2.949 -0.0439 -0.8104  0.3225
 3940TIP3   OH233310   0.056   1.530  15.540  0.3118  1.2092  0.0992
 3940TIP3    H133311   0.065   1.588  15.617  0.2533 -0.3912  1.3334
 3940TIP3    H233312   0.110   1.454  15.561 -0.3705  0.3841 -1.1149
 3941TIP3   OH233313   5.981   4.938   3.276  0.5072 -0.4929  0.2176
 3941TIP3    H133314   5.957   4.862   3.330 -0.5976  0.1017  0.5703
 3941TIP3    H233315   5.917   4.937   3.204  2.3733 -1.6794 -1.5016
 3942TIP3   OH233316   0.959   6.300   1.839  0.4244 -0.3799 -0.3097
 3942TIP3    H133317   1.004   6.338   1.763  1.5179 -0.0902  0.4557
 3942TIP3    H233318   0.896   6.238   1.802  1.4299 -0.7531 -1.4290
 3943TIP3   OH233319   6.710   5.734   4.363  0.2320 -0.0668 -0.1520
 3943TIP3    H133320   6.682   5.824   4.382 -2.1613 -0.9051  0.4330
 3943TIP3    H233321   6.638   5.697   4.312  1.3680 -1.5411 -0.7140
 3944TIP3   OH233322   5.927   3.125  14.939  0.0860 -0.4180 -0.0112
 3944TIP3    H133323   5.962   3.192  14.880  0.3167 -1.3176 -0.9206
 3944TIP3    H233324   5.968   3.144  15.023 -0.6676  1.2154  0.0146
 3945TIP3   OH233325   4.178   5.957  15.561  0.0261 -0.5405 -0.0088
 3945TIP3    H133326   4.212   6.019  15.497  0.9670 -0.3468  0.6596
 3945TIP3    H233327   4.243   5.886  15.562 -0.5371 -1.0607 -0.0556
 3946TIP3   OH233328   6.606   4.601   0.168 -0.1719 -0.2839 -0.8059
 3946TIP3    H133329   6.677   4.659   0.141 -1.1046  0.6466 -1.3148
 3946TIP3    H233330   6.568   4.570   0.085 -1.4136  0.5643 -0.5845
 3947TIP3   OH233331   3.849   3.156   5.397 -0.3006  0.5747  0.7706
 3947TIP3    H133332   3.779   3.105   5.437  0.0539  0.1637  0.8642
 3947TIP3    H233333   3.829   3.247   5.422 -0.1393  0.3368  1.8063
 3948TIP3   OH233334   6.557   1.745  15.411  0.0873 -0.0410  0.0486
 3948TIP3    H133335   6.465   1.768  15.417 -0.2070 -1.0622 -0.4871
 3948TIP3    H233336   6.560   1.650  15.421  1.4001  0.3063  3.4068
 3949TIP3   OH233337   5.050   3.831   4.257  0.0392 -0.4388  0.0831
 3949TIP3    H133338   5.118   3.821   4.324 -1.1423 -3.6956  0.8773
 3949TIP3    H233339   5.048   3.747   4.211 -3.7978 -0.6828  0.4743
 3950TIP3   OH233340   4.189   5.514   3.163  0.6778 -0.3663  0.4458
 3950TIP3    H133341   4.243   5.518   3.085 -1.0871 -1.1591 -0.8583
 3950TIP3    H233342   4.125   5.446   3.144 -0.0166 -0.3015  2.4324
 3951TIP3   OH233343   4.829   4.547  11.743 -0.2825  0.1518 -0.1749
 3951TIP3    H133344   4.769   4.617  11.719 -2.2750 -0.6295  2.4057
 3951TIP3    H233345   4.890   4.587  11.805 -1.3140 -0.3193  1.1645
 3952TIP3   OH233346   2.837   1.823   0.844  0.0864 -0.3336  0.3210
 3952TIP3    H133347   2.882   1.783   0.919 -0.6086 -0.8709  0.4600
 3952TIP3    H233348   2.858   1.766   0.771  0.3970 -0.0620  0.2004
 3953TIP3   OH233349   0.441   4.802   0.964 -0.0983  0.4129  0.2900
 3953TIP3    H133350   0.522   4.801   0.914  0.4857  0.0485  1.2302
 3953TIP3    H233351   0.395   4.722   0.937 -0.8355  1.3580 -1.3341
 3954TIP3   OH233352   4.631   0.069  11.472  0.3891 -0.0140 -0.0269
 3954TIP3    H133353   4.568   0.141  11.476 -0.4145 -0.7677  0.9144
 3954TIP3    H233354   4.716   0.113  11.468 -0.0905  0.9897  0.5882
 3955TIP3   OH233355   0.996   2.520   5.040 -0.6829  0.6909 -0.0440
 3955TIP3    H133356   0.958   2.516   5.128  0.5167  2.9048  0.6025
 3955TIP3    H233357   0.920   2.525   4.982 -1.4746 -0.3269  0.8733
 3956TIP3   OH233358   6.329   4.265  14.671 -0.3913 -0.6254 -0.0654
 3956TIP3    H133359   6.341   4.328  14.599  0.5300 -0.1794  0.4696
 3956TIP3    H233360   6.381   4.189  14.645  0.3454 -0.2686  0.3624
 3957TIP3   OH233361   1.871   4.849   3.182 -0.3214 -0.2561 -0.5277
 3957TIP3    H133362   1.825   4.765   3.192 -2.6004  1.0640  0.4155
 3957TIP3    H233363   1.805   4.908   3.146  0.9910  1.3709 -0.3014
 3958TIP3   OH233364   2.315   2.002   4.097  0.2123 -0.0420  0.0076
 3958TIP3    H133365   2.247   1.982   4.162  0.4829  1.5205  0.7914
 3958TIP3    H233366   2.293   1.946   4.022 -0.8139 -0.9784  0.9687
 3959TIP3   OH233367   0.271   0.145  13.456 -0.2277  0.5601  0.4284
 3959TIP3    H133368   0.240   0.236  13.463  0.7440  0.8856  0.6455
 3959TIP3    H233369   0.193   0.094  13.435 -0.2653  1.8365 -2.7739
 3960TIP3   OH233370   2.892   6.818   0.776  0.0483  0.1976  0.2741
 3960TIP3    H133371   2.911   6.895   0.721 -1.0599 -0.4046 -0.9767
 3960TIP3    H233372   2.809   6.839   0.818 -0.2167 -0.2817 -0.0085
 3961TIP3   OH233373   6.407   4.196   2.625 -0.2726 -0.1610  0.0900
 3961TIP3    H133374   6.366   4.283   2.621 -2.0427 -0.9623  0.5790
 3961TIP3    H233375   6.397   4.162   2.536 -2.9473 -1.3497  0.7860
 3962TIP3   OH233376   0.103   0.022   4.085  0.1911 -0.1253  0.0535
 3962TIP3    H133377   0.013  -0.011   4.093  0.2153 -0.0705  0.5563
 3962TIP3    H233378   0.152  -0.050   4.046  0.3318 -0.8432  1.5155
 3963TIP3   OH233379   3.018   0.318   1.844 -0.0976  0.3347 -0.3090
 3963TIP3    H133380   3.102   0.315   1.798  0.9310  0.9031  1.4750
 3963TIP3    H233381   3.018   0.239   1.899 -0.1979  0.9528  0.5910
 3964TIP3   OH233382   0.038   0.975   1.307 -0.2219  0.1866 -0.2194
 3964TIP3    H133383  -0.012   1.027   1.371 -0.2786 -0.0503 -0.0691
 3964TIP3    H233384   0.035   1.026   1.227  2.3061  1.9231  0.7127
 3965TIP3   OH233385   5.997   3.604  13.494 -0.0252  0.0539  0.0830
 3965TIP3    H133386   5.925   3.573  13.549 -0.0665 -0.2221 -0.1218
 3965TIP3    H233387   5.956   3.657  13.427 -0.1545 -0.9866 -0.6680
 3966TIP3   OH233388   2.925   6.622   3.541  0.4189 -0.3521 -0.4520
 3966TIP3    H133389   2.991   6.584   3.600 -1.2473 -0.4223  1.4132
 3966TIP3    H233390   2.859   6.553   3.532 -1.6139  1.2709  1.3168
 3967TIP3   OH233391   0.546   4.471  13.533  0.2113  0.1720 -0.2199
 3967TIP3    H133392   0.602   4.412  13.582  0.1117 -0.0320 -0.3521
 3967TIP3    H233393   0.461   4.428  13.529 -0.1152  0.7455  0.4734
 3968TIP3   OH233394   0.279   6.046  15.492  0.3116  0.4523 -0.5307
 3968TIP3    H133395   0.368   6.081  15.495 -0.0578  1.3443  0.2874
 3968TIP3    H233396   0.268   6.016  15.402  1.0964  1.2583 -0.9013
 3969TIP3   OH233397   5.567   6.405   4.916 -0.2053  0.0626  0.0446
 3969TIP3    H133398   5.595   6.440   5.000 -0.1174  0.3121 -0.0897
 3969TIP3    H233399   5.544   6.313   4.935  1.9014 -0.5158 -0.1045
 3970TIP3   OH233400   3.040   5.095   0.972  0.3841  0.1676 -0.6294
 3970TIP3    H133401   3.096   5.019   0.958 -1.3762 -0.7280 -3.0714
 3970TIP3    H233402   3.099   5.164   1.001  2.2924 -1.5761 -0.3275
 3971TIP3   OH233403   0.408   0.717  11.394  0.2644  0.5489  0.4062
 3971TIP3    H133404   0.420   0.751  11.305 -1.3319 -0.1075 -0.0914
 3971TIP3    H233405   0.387   0.624  11.381 -1.7670  0.8544  1.3541
 3972TIP3   OH233406   1.004   3.648  14.449  0.2208  0.0589 -0.4321
 3972TIP3    H133407   0.915   3.682  14.440 -1.1720 -2.9078  1.4352
 3972TIP3    H233408   1.011   3.580  14.382  0.5760 -0.6846  0.3515
 3973TIP3   OH233409   5.483   4.682   6.397 -0.0201 -0.2653  0.2487
 3973TIP3    H133410   5.555   4.737   6.429 -1.5390  1.5389  0.6720
 3973TIP3    H233411   5.417   4.744   6.367 -1.0836 -1.9047 -0.8686
 3974TIP3   OH233412   4.923   2.334  15.590 -0.3783  0.6444 -0.5843
 3974TIP3    H133413   4.954   2.423  15.606 -0.3127  0.2923  1.2899
 3974TIP3    H233414   5.002   2.282  15.580 -0.4138  0.8771 -2.3220
 3975TIP3   OH233415   5.767   5.754   1.209  0.3903 -0.0903  0.3606
 3975TIP3    H133416   5.717   5.679   1.178 -0.5334  0.4185  0.5955
 3975TIP3    H233417   5.858   5.725   1.206  0.1598 -0.7283 -0.9014
 3976TIP3   OH233418   2.794   2.026   0.667 -0.6161 -0.2568  0.1365
 3976TIP3    H133419   2.747   1.974   0.602  2.6956 -1.5880 -1.2968
 3976TIP3    H233420   2.846   1.962   0.717  0.1683  1.2027  1.2451
 3977TIP3   OH233421   2.330   0.522   1.722  0.3281 -0.0619  0.0958
 3977TIP3    H133422   2.415   0.493   1.753  1.3433 -0.0036 -2.5494
 3977TIP3    H233423   2.282   0.442   1.702  0.3719 -0.0637 -0.0021
 3978TIP3   OH233424   6.276   3.781  13.688  0.6916  0.3079  0.6372
 3978TIP3    H133425   6.199   3.818  13.645  0.1491  2.5141  3.3360
 3978TIP3    H233426   6.298   3.703  13.637 -2.1807  0.7052 -1.2830
 3979TIP3   OH233427   2.358   0.342   0.517 -0.0987 -0.3907  0.4271
 3979TIP3    H133428   2.303   0.392   0.457  0.4227 -0.4320 -0.0912
 3979TIP3    H233429   2.302   0.325   0.592  0.0005  1.7394  1.0097
 3980TIP3   OH233430   1.465   2.100  10.934 -0.1565 -0.0140  0.1081
 3980TIP3    H133431   1.406   2.060  10.870  0.2682 -2.1389  1.0211
 3980TIP3    H233432   1.534   2.140  10.880 -1.1181  0.4014 -0.8496
 3981TIP3   OH233433   2.169   6.151   5.109 -0.3217  0.2712 -0.2965
 3981TIP3    H133434   2.103   6.197   5.058 -0.3863  0.0155 -0.4434
 3981TIP3    H233435   2.120   6.090   5.164 -0.1913 -0.0876 -0.5786
 3982TIP3   OH233436   3.242   3.808   3.835 -0.0572 -0.5174 -0.1888
 3982TIP3    H133437   3.165   3.864   3.841 -0.1772 -0.5862 -0.9466
 3982TIP3    H233438   3.209   3.725   3.800  0.3331 -0.5943 -0.3779
 3983TIP3   OH233439   6.440   6.389   3.967  0.2062 -0.2000  0.0279
 3983TIP3    H133440   6.436   6.294   3.975  1.6718 -0.3528 -0.7270
 3983TIP3    H233441   6.351   6.416   3.944  0.0380 -1.5130 -0.9026
 3984TIP3   OH233442   0.139   1.644  11.971  0.2982 -0.4084  0.5503
 3984TIP3    H133443   0.153   1.553  11.998  2.1168 -0.7309 -1.3352
 3984TIP3    H233444   0.044   1.654  11.970  0.0458 -2.5220  0.1115
 3985TIP3   OH233445   1.244   1.646   0.626  0.3155 -0.0578 -0.1332
 3985TIP3    H133446   1.199   1.690   0.698  0.9306  2.3104 -1.1624
 3985TIP3    H233447   1.178   1.638   0.558  0.2385 -0.6501  0.0065
 3986TIP3   OH233448   5.664   1.315  14.400 -0.1949  0.0582 -0.1389
 3986TIP3    H133449   5.581   1.269  14.411  0.8927 -2.0831 -0.5336
 3986TIP3    H233450   5.706   1.272  14.325  1.1007  1.3452 -0.1806
 3987TIP3   OH233451   4.679   4.096  15.120 -0.6235  0.0731  0.1835
 3987TIP3    H133452   4.618   4.061  15.055  0.1170 -0.2152 -0.3750
 3987TIP3    H233453   4.633   4.170  15.159 -0.9761  0.4334 -0.8772
 3988TIP3   OH233454   2.687   3.796  15.855 -0.1813  0.1838 -0.2099
 3988TIP3    H133455   2.705   3.798  15.761 -1.0817  0.3353 -0.3837
 3988TIP3    H233456   2.770   3.771  15.895  0.0091 -0.6283 -1.0977
 3989TIP3   OH233457   0.349   3.553  13.577  0.4940  0.2178 -0.6399
 3989TIP3    H133458   0.314   3.493  13.511  1.1077 -0.4111 -0.4043
 3989TIP3    H233459   0.326   3.512  13.661 -1.3350  1.6153 -0.4240
 3990TIP3   OH233460   0.773   1.989  14.064  0.1239 -0.2450  0.0721
 3990TIP3    H133461   0.682   2.007  14.086 -0.2266 -0.3042 -1.2431
 3990TIP3    H233462   0.786   2.033  13.980  1.7121  0.9322  0.9194
 3991TIP3   OH233463   1.403   4.662   4.142 -0.1715  0.1945 -0.4624
 3991TIP3    H133464   1.317   4.625   4.159  0.2377 -0.4292  0.3342
 3991TIP3    H233465   1.461   4.615   4.203  0.8950 -0.1560 -1.7320
 3992TIP3   OH233466   6.386   0.055   4.272  0.0516  0.1536  0.1064
 3992TIP3    H133467   6.475   0.055   4.236 -0.5022 -0.5494 -1.3279
 3992TIP3    H233468   6.397   0.079   4.364  1.6442  0.8511 -0.2403
 3993TIP3   OH233469   1.345   2.823  15.941 -0.1224  0.2783  0.2408
 3993TIP3    H133470   1.280   2.814  16.011  0.0563  1.1240  0.5258
 3993TIP3    H233471   1.297   2.808  15.860 -0.4376 -0.2165  0.5235
 3994TIP3   OH233472   3.025   4.246  11.576  0.0520  0.0784  0.4432
 3994TIP3    H133473   3.023   4.261  11.482  1.6981 -1.0511  0.2133
 3994TIP3    H233474   2.934   4.225  11.599 -0.5168  1.1843 -0.7326
 3995TIP3   OH233475   5.870   5.263   1.413  0.0940  0.0678 -0.1966
 3995TIP3    H133476   5.787   5.226   1.382  0.0766 -1.4896  1.6470
 3995TIP3    H233477   5.924   5.186   1.433  0.8006  1.0379  1.7252
 3996TIP3   OH233478   3.740   0.121  11.106 -0.1901 -0.4912 -0.4210
 3996TIP3    H133479   3.724   0.210  11.077 -0.8984 -0.9447 -1.4538
 3996TIP3    H233480   3.764   0.073  11.027  0.0918 -1.2366  0.1015
 3997TIP3   OH233481   3.200   5.320   4.603 -0.3426 -0.7810  0.1433
 3997TIP3    H133482   3.160   5.258   4.665 -0.6301 -1.3825 -0.6250
 3997TIP3    H233483   3.143   5.397   4.606 -1.0012 -1.2419 -0.1852
 3998TIP3   OH233484   6.568   2.107   6.134  0.3593  0.1632  0.5466
 3998TIP3    H133485   6.585   2.077   6.044  1.1498  1.6002  0.2059
 3998TIP3    H233486   6.513   2.038   6.172 -0.0341 -0.4377 -1.0590
 3999TIP3   OH233487   3.909   4.530  16.392  0.3603 -0.0159  0.1391
 3999TIP3    H133488   3.885   4.516  16.484  3.1373  0.3838  0.9701
 3999TIP3    H233489   3.990   4.580  16.397  1.8747 -2.1315 -2.5221
 4000TIP3   OH233490   2.904   4.071  11.011 -0.1157  0.0087  0.4675
 4000TIP3    H133491   2.935   4.161  11.007 -0.2892  0.0166 -0.8080
 4000TIP3    H233492   2.829   4.069  10.952  0.8053 -1.3395 -0.6699
 4001TIP3   OH233493   6.119   0.217   4.000  0.0657 -0.1219  0.7410
 4001TIP3    H133494   6.117   0.307   3.969  1.7293  0.0844  1.1887
 4001TIP3    H233495   6.211   0.191   3.992 -0.4876 -1.9305  0.1708
 4002TIP3   OH233496   0.822   5.119   0.167 -0.2369 -0.1915 -0.2099
 4002TIP3    H133497   0.806   5.157   0.081  0.5796 -1.9876 -1.1934
 4002TIP3    H233498   0.798   5.188   0.229  0.4681  1.6268 -1.8930
 4003TIP3   OH233499   4.763   6.454   4.420 -0.0214  0.1554  0.0566
 4003TIP3    H133500   4.758   6.514   4.346 -1.3795  1.0227  0.8213
 4003TIP3    H233501   4.705   6.381   4.397 -0.0635  0.1907  0.0496
 4004TIP3   OH233502   1.295   5.172   0.105 -0.6159  0.4308 -0.1560
 4004TIP3    H133503   1.340   5.247   0.065 -0.3012  0.0133 -0.5952
 4004TIP3    H233504   1.236   5.141   0.036 -1.1375  0.6029  0.2104
 4005TIP3   OH233505   5.797   0.751   4.315  0.3865 -0.7850 -0.0537
 4005TIP3    H133506   5.881   0.707   4.303  0.6689 -0.4593  0.6674
 4005TIP3    H233507   5.798   0.822   4.251  1.4099  0.2796  1.1148
 4006TIP3   OH233508   5.914   2.638   0.708 -0.6587  0.1120  0.4503
 4006TIP3    H133509   5.855   2.643   0.633 -0.8248 -0.4714  0.5359
 4006TIP3    H233510   5.858   2.606   0.779 -0.0437 -1.3036  0.3100
 4007TIP3   OH233511   1.325   1.490   4.755 -0.5262 -0.6430 -0.1884
 4007TIP3    H133512   1.300   1.423   4.691 -1.5814  0.9236 -1.4708
 4007TIP3    H233513   1.284   1.570   4.723  1.8203  0.9279  0.5764
 4008TIP3   OH233514   5.781   0.637  16.113 -0.2335 -0.2435  0.3454
 4008TIP3    H133515   5.864   0.592  16.124 -0.2267 -0.2892  0.1048
 4008TIP3    H233516   5.715   0.568  16.118 -0.2396 -0.2454  0.2459
 4009TIP3   OH233517   1.139   5.637   5.386  0.1506 -0.1956 -0.1603
 4009TIP3    H133518   1.070   5.672   5.330 -1.8279 -1.7152  1.2593
 4009TIP3    H233519   1.107   5.551   5.413  1.5400  0.0388  2.4091
 4010TIP3   OH233520   0.845   5.109  13.278 -0.2238  0.0319 -0.1674
 4010TIP3    H133521   0.788   5.097  13.354  1.5733 -0.5042  1.1277
 4010TIP3    H233522   0.831   5.200  13.251 -0.3267  0.4528  1.2666
 4011TIP3   OH233523   2.625   3.294   0.443  0.2475 -0.5777  0.0208
 4011TIP3    H133524   2.604   3.205   0.414 -0.4024 -1.2055  2.2656
 4011TIP3    H233525   2.685   3.328   0.376  0.5570 -2.7311 -0.8385
 4012TIP3   OH233526   0.554   4.096  16.846 -0.2406  0.0286 -0.2184
 4012TIP3    H133527   0.465   4.087  16.814 -0.1645 -1.1736 -0.1158
 4012TIP3    H233528   0.544   4.117  16.939 -0.4231  0.7276 -0.3981
 4013TIP3   OH233529   0.015   5.528   3.739 -0.4616  0.6338  0.0396
 4013TIP3    H133530   0.099   5.501   3.775 -1.0062  1.8726  2.3179
 4013TIP3    H233531   0.038   5.577   3.660  0.7508 -1.9840 -1.2971
 4014TIP3   OH233532   3.506   1.236   5.074  0.4064  0.0683  0.2957
 4014TIP3    H133533   3.417   1.218   5.103  0.5729 -2.7609 -0.7436
 4014TIP3    H233534   3.505   1.327   5.046 -1.2228  1.1534  3.6303
 4015TIP3   OH233535   3.162   5.731   2.041 -0.0809  0.2815 -0.1224
 4015TIP3    H133536   3.175   5.640   2.068 -2.2423  0.4257  1.5359
 4015TIP3    H233537   3.080   5.729   1.991 -0.2165  1.3453  0.0522
 4016TIP3   OH233538   5.691   0.623   0.394  0.1763  0.2154 -0.1387
 4016TIP3    H133539   5.601   0.642   0.368  0.3650  0.8485 -0.3538
 4016TIP3    H233540   5.693   0.637   0.489 -0.1527 -0.6238 -0.0052
 4017TIP3   OH233541   5.908   5.781  11.882  0.4697 -0.0289  0.0830
 4017TIP3    H133542   5.881   5.854  11.937 -0.4885 -0.8133  0.6833
 4017TIP3    H233543   5.835   5.769  11.821  1.2033  0.3609 -0.8837
 4018TIP3   OH233544   1.189   3.259  14.462 -0.7076 -0.0717  0.3454
 4018TIP3    H133545   1.137   3.320  14.410 -1.7173 -0.8766  0.4166
 4018TIP3    H233546   1.239   3.209  14.397 -1.5055 -0.6519  0.1699
 4019TIP3   OH233547   3.114   4.165   5.627 -0.3908  0.1709  0.5605
 4019TIP3    H133548   3.113   4.173   5.532 -2.1296 -2.9574  0.2491
 4019TIP3    H233549   3.106   4.255   5.659 -1.6811  1.1008 -2.2524
 4020TIP3   OH233550   2.367   5.182   4.385  0.0146  0.5627 -0.0840
 4020TIP3    H133551   2.349   5.273   4.409 -2.1895  0.1921 -0.2024
 4020TIP3    H233552   2.391   5.185   4.293 -0.2101  1.0083 -0.1277
 4021TIP3   OH233553   6.537   5.061   1.378 -0.7221 -0.4211 -0.4317
 4021TIP3    H133554   6.601   5.012   1.429 -0.6012 -0.4587 -0.6183
 4021TIP3    H233555   6.563   5.047   1.287 -0.3773  0.4206 -0.4647
 4022TIP3   OH233556   5.988   6.793  15.542 -0.0448 -0.1153 -0.3378
 4022TIP3    H133557   5.917   6.729  15.547 -0.3563  0.1926 -0.8072
 4022TIP3    H233558   5.992   6.818  15.450 -0.1669  0.8239 -0.0962
 4023TIP3   OH233559   5.108   5.238   5.416  0.7099 -0.2859  0.4041
 4023TIP3    H133560   5.027   5.275   5.382 -0.1673 -0.2767  2.4768
 4023TIP3    H233561   5.172   5.253   5.346 -0.4888  1.8477 -0.2661
 4024TIP3   OH233562   2.115   3.703   2.635  0.3937  0.0144 -0.3262
 4024TIP3    H133563   2.131   3.790   2.672 -0.4009  0.6303 -1.3814
 4024TIP3    H233564   2.038   3.671   2.683 -0.1536  0.4771 -0.8931
 4025TIP3   OH233565   1.210   2.440   0.605 -0.1495 -0.2856 -0.4196
 4025TIP3    H133566   1.272   2.503   0.568 -1.0126  1.6211  1.2641
 4025TIP3    H233567   1.127   2.488   0.610 -0.5067 -1.0768  2.1277
 4026TIP3   OH233568   6.733   4.469   3.429 -0.2010  0.0212 -0.4204
 4026TIP3    H133569   6.798   4.532   3.460 -2.8259  2.1107  0.9942
 4026TIP3    H233570   6.784   4.392   3.405  2.8911  1.9650 -0.3190
 4027TIP3   OH233571   3.096   5.626  16.048  0.0620  0.0288  0.1355
 4027TIP3    H133572   3.143   5.600  16.127  1.2033 -0.5051 -0.7131
 4027TIP3    H233573   3.160   5.677  15.998 -0.5755  0.1357 -0.5798
 4028TIP3   OH233574   3.980   1.275   2.043  0.4515 -0.1141  0.4472
 4028TIP3    H133575   4.073   1.268   2.062  0.0112 -1.5591  2.2342
 4028TIP3    H233576   3.962   1.369   2.043  2.0722  0.2250 -0.9001
 4029TIP3   OH233577   2.381   1.222  10.688  0.3792 -0.5871  0.4400
 4029TIP3    H133578   2.359   1.140  10.732  0.0308 -0.1422  1.0999
 4029TIP3    H233579   2.303   1.244  10.638  0.4285 -0.5952  0.3595
 4030TIP3   OH233580   3.223   2.332  17.169 -0.6121 -0.6771  0.2285
 4030TIP3    H133581   3.128   2.321  17.172 -0.6374 -0.5441 -0.0253
 4030TIP3    H233582   3.239   2.408  17.225 -0.5704 -1.2020  0.9259
 4031TIP3   OH233583   2.601   5.385   0.383 -0.4980  0.0744  0.6585
 4031TIP3    H133584   2.563   5.368   0.469 -0.8420 -1.4912  0.2265
 4031TIP3    H233585   2.532   5.359   0.321 -0.1672  0.9612 -0.0865
 4032TIP3   OH233586   0.435   6.491  15.393  0.8839  0.1292 -0.3828
 4032TIP3    H133587   0.420   6.438  15.315  1.4809 -2.1771  1.0234
 4032TIP3    H233588   0.390   6.574  15.375  1.0364 -0.3531 -3.1596
 4033TIP3   OH233589   5.533   2.300  11.076  0.1716 -0.5289  0.5925
 4033TIP3    H133590   5.579   2.383  11.064  0.8781 -1.1115 -0.8855
 4033TIP3    H233591   5.452   2.324  11.120 -0.4415  1.1841 -1.3983
 4034TIP3   OH233592   0.790   2.344   1.412 -0.0756  0.1310  0.5734
 4034TIP3    H133593   0.811   2.330   1.320 -0.1776 -1.0581  0.7250
 4034TIP3    H233594   0.698   2.370   1.412  0.2825  1.4124  0.2361
 4035TIP3   OH233595   3.893   3.290  14.213  0.0046 -0.1853  0.4250
 4035TIP3    H133596   3.837   3.257  14.283  0.5138 -0.8048  0.5527
 4035TIP3    H233597   3.904   3.215  14.154 -0.3343  0.2994 -0.2654
 4036TIP3   OH233598   4.781   1.929   4.829 -0.0629  0.0346  0.2895
 4036TIP3    H133599   4.738   2.015   4.829  0.7245  0.4272  0.9307
 4036TIP3    H233600   4.709   1.866   4.823 -0.6561  0.7288  0.1193
 4037TIP3   OH233601   6.695   5.644  16.451  0.2679 -0.1356 -0.2745
 4037TIP3    H133602   6.707   5.660  16.358  0.1133  0.0402 -0.2624
 4037TIP3    H233603   6.600   5.647  16.464  0.1516 -2.2516 -0.4745
 4038TIP3   OH233604   5.448   2.801   3.647 -0.2961 -0.2756 -0.6292
 4038TIP3    H133605   5.469   2.708   3.650 -1.0106 -0.4342 -0.4445
 4038TIP3    H233606   5.533   2.845   3.646  0.0415 -0.8710  1.0177
 4039TIP3   OH233607   1.684   4.095  11.068 -0.3882 -0.5037  0.1091
 4039TIP3    H133608   1.723   4.064  10.987 -2.0989 -0.1769 -0.8663
 4039TIP3    H233609   1.610   4.148  11.040  0.5729  1.8173  1.8218
 4040TIP3   OH233610   3.048   2.064  16.606  0.4038  0.0843  0.3641
 4040TIP3    H133611   3.082   2.061  16.695  0.4916 -0.9421  0.3052
 4040TIP3    H233612   2.953   2.058  16.616  0.5620 -4.1332  0.2502
 4041TIP3   OH233613   1.307   5.276  16.162 -0.0513  0.2247 -0.8339
 4041TIP3    H133614   1.227   5.272  16.214  0.4796 -0.5643 -0.0829
 4041TIP3    H233615   1.378   5.277  16.226  0.6033 -0.7464 -1.5332
 4042TIP3   OH233616   3.045   4.232   2.845 -0.4367 -0.2434  0.7228
 4042TIP3    H133617   3.094   4.314   2.848  1.2517 -1.1438 -0.9404
 4042TIP3    H233618   2.993   4.238   2.765  1.9650 -1.9937 -1.0319
 4043TIP3   OH233619   5.798   6.124   5.710  0.0954 -0.1610  0.3167
 4043TIP3    H133620   5.776   6.199   5.654 -0.5274  1.3205  2.4652
 4043TIP3    H233621   5.890   6.138   5.733  1.0405 -1.9943 -2.1003
 4044TIP3   OH233622   0.615   0.465   0.683 -0.1660 -0.0681 -0.0886
 4044TIP3    H133623   0.692   0.410   0.668 -0.3522  0.7893 -4.7115
 4044TIP3    H233624   0.650   0.550   0.709  0.3863 -0.2036 -0.3861
 4045TIP3   OH233625   6.322   2.818  14.592 -0.7564 -0.3228 -0.6574
 4045TIP3    H133626   6.361   2.734  14.618 -1.2303 -0.6772 -1.0882
 4045TIP3    H233627   6.228   2.802  14.593 -0.8335  0.1032 -1.0859
 4046TIP3   OH233628   2.492   5.680   1.914 -0.2199  0.1010  0.0546
 4046TIP3    H133629   2.447   5.648   1.992  0.5104  0.6070  0.6949
 4046TIP3    H233630   2.548   5.608   1.886 -0.5469 -0.1111 -0.0475
 4047TIP3   OH233631   6.299   6.445  16.018 -0.0982 -0.0974  0.4303
 4047TIP3    H133632   6.225   6.480  15.968 -0.0151  0.0137  0.3818
 4047TIP3    H233633   6.291   6.486  16.104  0.1314  0.2288  0.3008
 4048TIP3   OH233634   3.928   2.338  12.172  0.2869 -0.4864  0.2312
 4048TIP3    H133635   3.990   2.268  12.151 -1.1901 -1.6616 -0.3553
 4048TIP3    H233636   3.871   2.300  12.240  0.8482  0.9400  1.5268
 4049TIP3   OH233637   5.809   1.623   0.653  0.2372 -0.3187  0.0591
 4049TIP3    H133638   5.830   1.541   0.698 -0.0075  0.1136  0.9672
 4049TIP3    H233639   5.870   1.627   0.580  1.9126 -0.1045  1.4457
 4050TIP3   OH233640   1.965   4.055   3.201 -0.1689  0.2479 -0.0775
 4050TIP3    H133641   2.005   3.968   3.189 -0.4566  0.0878  0.1146
 4050TIP3    H233642   1.871   4.039   3.197 -0.2031  0.8124 -1.7572
 4051TIP3   OH233643   4.696   4.036  16.377  0.1270  0.1846 -0.2039
 4051TIP3    H133644   4.739   3.978  16.314 -0.7129 -0.1773 -0.4593
 4051TIP3    H233645   4.647   4.098  16.323  1.2762  1.3543  0.0616
 4052TIP3   OH233646   6.380   3.206  15.660 -0.4726  0.7888  0.3313
 4052TIP3    H133647   6.405   3.198  15.568  2.4919 -0.6933  1.2065
 4052TIP3    H233648   6.328   3.128  15.678 -0.1040  0.5035  0.1734
 4053TIP3   OH233649   5.213   6.106  17.270  1.0426  0.5148  0.1939
 4053TIP3    H133650   5.170   6.049  17.207  0.2528  2.6454 -1.2360
 4053TIP3    H233651   5.146   6.169  17.297  2.3247  1.7881  0.4984
 4054TIP3   OH233652   6.100   4.424   4.763  0.8561  0.3312  0.0419
 4054TIP3    H133653   6.127   4.475   4.839  0.8800 -1.4312  1.2466
 4054TIP3    H233654   6.142   4.338   4.775 -1.0137 -0.7289 -0.7337
 4055TIP3   OH233655   2.659   4.440   4.239  0.3184  0.1053  0.0958
 4055TIP3    H133656   2.633   4.470   4.326  3.1711  0.6286  0.8097
 4055TIP3    H233657   2.754   4.428   4.245  0.8758  2.0944 -3.4979
 4056TIP3   OH233658   0.114   5.139  15.767  1.4477  0.2544  0.1758
 4056TIP3    H133659   0.089   5.230  15.782 -0.1506 -0.2380  0.6614
 4056TIP3    H233660   0.134   5.105  15.854  0.3021 -0.3259  0.2299
 4057TIP3   OH233661   2.351   4.554   2.653  0.4568  0.0281  1.0931
 4057TIP3    H133662   2.385   4.475   2.611  1.2661  0.8854  0.1044
 4057TIP3    H233663   2.423   4.585   2.708  0.6092  0.7813  0.4849
 4058TIP3   OH233664   5.905   0.992   1.239  0.1240 -0.2649 -0.2068
 4058TIP3    H133665   5.969   1.001   1.169  0.9323  1.5681  0.7363
 4058TIP3    H233666   5.847   1.067   1.230 -0.5972 -0.7509  0.2610
 4059TIP3   OH233667   3.798   3.664  15.502 -0.0440 -0.0570  0.3904
 4059TIP3    H133668   3.705   3.638  15.503  0.0229 -0.4439 -1.5415
 4059TIP3    H233669   3.836   3.616  15.575 -1.2780 -0.2457  0.9334
 4060TIP3   OH233670   2.013   3.277   4.204  0.5757 -0.4093  0.2756
 4060TIP3    H133671   2.104   3.290   4.178 -0.1630 -0.2669 -2.4686
 4060TIP3    H233672   1.979   3.214   4.140 -1.3797 -0.0724  0.9521
 4061TIP3   OH233673   1.076   1.867  15.800  0.5712 -0.1166 -0.2735
 4061TIP3    H133674   1.080   1.932  15.730  1.3152  1.1075  0.8744
 4061TIP3    H233675   1.158   1.878  15.849  1.0821 -2.4633 -0.5147
 4062TIP3   OH233676   5.199   1.426  12.287 -0.4779  0.5422  0.3181
 4062TIP3    H133677   5.215   1.418  12.193 -1.8088  1.4096  0.0057
 4062TIP3    H233678   5.249   1.504  12.313  1.8414 -1.0685  0.8172
 4063TIP3   OH233679   0.289   5.361   2.117 -0.3389  0.0418  0.0210
 4063TIP3    H133680   0.248   5.398   2.195  0.7065 -1.0024  1.0778
 4063TIP3    H233681   0.362   5.310   2.150 -0.3218 -1.0164 -1.5929
 4064TIP3   OH233682   1.305   5.278  15.852 -0.8845  0.2356 -0.0232
 4064TIP3    H133683   1.288   5.270  15.946 -1.4179 -0.5179 -0.1784
 4064TIP3    H233684   1.286   5.370  15.833 -0.9403  0.3530  0.5756
 4065TIP3   OH233685   5.058   0.927   0.303  0.1310 -0.0227  0.4450
 4065TIP3    H133686   4.999   0.865   0.260 -0.0269  0.4323  0.0050
 4065TIP3    H233687   5.069   0.892   0.391 -1.8208  0.5454  0.9617
 4066TIP3   OH233688   2.915   4.485  15.396 -0.0717  0.1580 -0.0982
 4066TIP3    H133689   2.987   4.539  15.428 -0.2283  0.2916  0.0283
 4066TIP3    H233690   2.887   4.528  15.315 -0.8179  0.8116  0.4920
 4067TIP3   OH233691   3.403   1.662  11.813  0.0367  0.2826  0.3149
 4067TIP3    H133692   3.350   1.723  11.763 -0.6079  0.8769  1.6934
 4067TIP3    H233693   3.451   1.717  11.875  1.0302 -0.4098  0.1743
 4068TIP3   OH233694   1.937   1.200   3.756 -0.1490 -0.3745 -0.3300
 4068TIP3    H133695   1.964   1.270   3.696  0.6144 -0.4209 -0.0449
 4068TIP3    H233696   1.900   1.133   3.698  0.7613 -0.5044 -0.7874
 4069TIP3   OH233697   3.276   4.607  14.733 -0.2650 -0.2970  0.2371
 4069TIP3    H133698   3.269   4.698  14.706 -0.8947 -1.0646 -2.4304
 4069TIP3    H233699   3.200   4.564  14.692 -0.3296 -1.8883  1.9611
 4070TIP3   OH233700   1.848   2.487   6.173  0.6585  0.1951  0.0029
 4070TIP3    H133701   1.879   2.576   6.191 -0.5651  0.5289  0.4636
 4070TIP3    H233702   1.793   2.465   6.249  0.7150 -0.8434 -0.2463
 4071TIP3   OH233703   4.053   4.345  13.208 -0.3048  0.1723 -0.0076
 4071TIP3    H133704   4.053   4.254  13.239 -0.0688 -0.8423 -2.8930
 4071TIP3    H233705   3.965   4.358  13.173 -0.3911  1.1198  0.5506
 4072TIP3   OH233706   4.392   2.535  12.215 -0.1776  0.7643  0.2234
 4072TIP3    H133707   4.298   2.517  12.225 -0.1120  0.8446  1.0792
 4072TIP3    H233708   4.401   2.569  12.127 -0.4650 -2.3394 -1.0687
 4073TIP3   OH233709   0.194   4.768   2.039 -0.5838  0.0403  0.2070
 4073TIP3    H133710   0.122   4.823   2.069 -0.3330 -0.2488  1.3489
 4073TIP3    H233711   0.258   4.770   2.111  1.3366  1.6897 -1.4631
 4074TIP3   OH233712   5.033   1.366   4.180  0.4017  0.3142 -0.1738
 4074TIP3    H133713   5.018   1.439   4.240 -0.5213  0.2872 -0.3663
 4074TIP3    H233714   4.957   1.309   4.191  1.3090 -0.8276  0.2640
 4075TIP3   OH233715   5.277   5.489   2.078  0.6825 -0.8058  0.3751
 4075TIP3    H133716   5.293   5.560   2.016 -2.2667 -1.3733 -1.1522
 4075TIP3    H233717   5.329   5.416   2.046  1.0662 -0.3574 -0.0264
 4076TIP3   OH233718   3.371   5.345  16.920 -0.1720 -0.3892 -0.0898
 4076TIP3    H133719   3.359   5.431  16.880  2.5023 -0.1208 -0.4241
 4076TIP3    H233720   3.379   5.363  17.014  0.5988 -0.2461 -0.1821
 4077TIP3   OH233721   2.537   5.113  12.070 -0.1355 -0.4438 -0.2485
 4077TIP3    H133722   2.483   5.073  12.139 -1.1277 -0.9814 -1.3261
 4077TIP3    H233723   2.572   5.038  12.021  2.7216 -0.1759  1.2349
 4078TIP3   OH233724   1.356   4.360  12.777 -0.5260 -0.7394 -0.3719
 4078TIP3    H133725   1.430   4.418  12.795 -0.9105 -0.3316 -0.0808
 4078TIP3    H233726   1.329   4.382  12.688  1.3558 -2.7290 -1.4780
 4079TIP3   OH233727   0.116   6.670   5.664  0.3696  0.0573  0.4679
 4079TIP3    H133728   0.031   6.714   5.672  0.6972  0.5766  1.2041
 4079TIP3    H233729   0.177   6.740   5.639  0.0194 -0.9125 -3.3365
 4080TIP3   OH233730   0.552   6.137  11.486  0.1545 -0.2505 -0.0931
 4080TIP3    H133731   0.501   6.153  11.566 -0.9714 -1.1708 -0.6174
 4080TIP3    H233732   0.535   6.045  11.464  0.9761 -0.1901 -1.0382
 4081TIP3   OH233733   2.087   0.713  16.985 -0.1202  0.5256  0.5513
 4081TIP3    H133734   2.055   0.624  16.997 -0.5811  0.7082  0.6815
 4081TIP3    H233735   2.012   0.769  17.007  0.2242  0.9474  0.6581
 4082TIP3   OH233736   5.035   1.857   2.809  0.4025  0.4244 -0.6775
 4082TIP3    H133737   5.074   1.857   2.896 -0.3613 -0.1429 -0.3396
 4082TIP3    H233738   5.088   1.920   2.760  0.5053  1.1395  0.3378
 4083TIP3   OH233739   0.950   1.018  16.458  0.0134 -0.1941  0.3235
 4083TIP3    H133740   0.895   0.943  16.437  0.3705 -0.6170  0.9103
 4083TIP3    H233741   1.035   0.981  16.482 -0.5444  0.2409  3.0911
 4084TIP3   OH233742   4.597   4.347   5.361 -0.3481 -0.4194 -0.1846
 4084TIP3    H133743   4.649   4.403   5.419  0.2975 -1.7636  0.5806
 4084TIP3    H233744   4.560   4.406   5.296  0.9814  0.7688  0.1242
 4085TIP3   OH233745   2.758   1.325  12.111  0.3589 -0.0969  0.1095
 4085TIP3    H133746   2.725   1.385  12.045  1.2076  1.2239  0.8625
 4085TIP3    H233747   2.755   1.239  12.069 -0.9949  0.4498 -0.9248
 4086TIP3   OH233748   1.683   1.758   3.085 -0.3482  0.8619  0.3591
 4086TIP3    H133749   1.776   1.736   3.077 -0.7979 -0.5953 -1.0345
 4086TIP3    H233750   1.652   1.765   2.995 -1.4934  1.8122  0.8174
 4087TIP3   OH233751   4.539   5.146  13.317  0.0528  0.3132 -0.0093
 4087TIP3    H133752   4.457   5.100  13.299  0.7019 -1.1135  0.5376
 4087TIP3    H233753   4.524   5.189  13.402  0.4326 -1.4037  0.9627
 4088TIP3   OH233754   3.567   4.482   4.248  0.1015 -0.3321 -0.1168
 4088TIP3    H133755   3.570   4.407   4.307 -0.3443 -0.7051 -0.5620
 4088TIP3    H233756   3.598   4.449   4.164 -2.2631 -0.6173 -0.9251
 4089TIP3   OH233757   0.874   2.942   5.596 -0.3006  0.3981 -0.1044
 4089TIP3    H133758   0.785   2.965   5.623 -0.6868  0.8164 -1.7393
 4089TIP3    H233759   0.870   2.848   5.579  0.0845  0.0096  1.7763
 4090TIP3   OH233760   1.424   3.454   6.559 -0.0807 -0.2610  0.3765
 4090TIP3    H133761   1.400   3.506   6.635  0.6485 -0.4169  0.7101
 4090TIP3    H233762   1.481   3.510   6.507 -0.5323 -0.1739 -0.0346
 4091TIP3   OH233763   2.005   0.439  17.019 -0.1340 -0.5193  0.0452
 4091TIP3    H133764   1.923   0.394  16.999 -1.0687  0.6758  1.1378
 4091TIP3    H233765   2.067   0.405  16.954 -1.2513 -2.0969 -0.2180
 4092TIP3   OH233766   6.508   5.602   2.095  0.1257 -0.0474  0.2079
 4092TIP3    H133767   6.456   5.523   2.108 -0.7454  0.5070  0.2144
 4092TIP3    H233768   6.520   5.609   2.001  1.1423 -0.7658  0.2772
 4093TIP3   OH233769   4.756   4.363   0.380 -0.2722  0.1239 -0.2131
 4093TIP3    H133770   4.756   4.384   0.286  1.2113  0.7712 -0.0817
 4093TIP3    H233771   4.838   4.400   0.413 -1.0794  0.4478  1.4705
 4094TIP3   OH233772   6.500   1.478  13.436 -0.2391  0.3940 -0.1693
 4094TIP3    H133773   6.547   1.402  13.402 -0.6148 -0.4193  1.1190
 4094TIP3    H233774   6.566   1.529  13.482 -0.2736  0.1276  0.1734
 4095TIP3   OH233775   2.782   1.527   5.782 -0.1432 -0.3609 -0.6078
 4095TIP3    H133776   2.691   1.535   5.810  0.4804  0.1135  1.3461
 4095TIP3    H233777   2.806   1.436   5.802 -0.1079 -0.4019 -0.8384
 4096TIP3   OH233778   5.471   1.731   5.676 -0.0649  0.1125 -0.3287
 4096TIP3    H133779   5.551   1.783   5.680 -0.1026  0.0465  1.8489
 4096TIP3    H233780   5.500   1.642   5.695 -0.4203 -0.2126 -1.2715
 4097TIP3   OH233781   1.992   3.340   2.028  0.2724  0.2683 -0.2364
 4097TIP3    H133782   2.037   3.409   2.078  0.6858  0.5367 -0.9658
 4097TIP3    H233783   2.052   3.321   1.956 -0.4898  0.1488 -0.8419
 4098TIP3   OH233784   2.355   6.386   3.914 -0.0002  0.2396 -0.2617
 4098TIP3    H133785   2.363   6.470   3.867 -1.4289  0.9232  0.6931
 4098TIP3    H233786   2.261   6.372   3.922  0.2321 -0.8116  0.7644
 4099TIP3   OH233787   3.836   3.499   3.892  0.6408  0.3189  0.2903
 4099TIP3    H133788   3.819   3.445   3.815 -3.0841  0.6198  0.7832
 4099TIP3    H233789   3.798   3.584   3.870 -1.1642  0.1891  2.6669
 4100TIP3   OH233790   6.033   4.742  13.173 -0.6154 -0.4609 -0.2991
 4100TIP3    H133791   6.064   4.732  13.263  0.0119 -0.0542 -0.4720
 4100TIP3    H233792   6.046   4.656  13.134  1.2330 -0.0259 -0.6670
 4101TIP3   OH233793   5.306   4.651  10.672 -0.1749 -0.3908 -0.1643
 4101TIP3    H133794   5.247   4.584  10.707 -0.8543  0.8393  1.1118
 4101TIP3    H233795   5.388   4.605  10.657 -0.7521 -1.6106  0.2780
 4102TIP3   OH233796   2.354   4.387   3.625 -0.9154 -0.0831  0.4536
 4102TIP3    H133797   2.299   4.435   3.563  0.9008 -1.3669 -2.2401
 4102TIP3    H233798   2.328   4.295   3.612 -0.7404 -0.3462  1.8727
 4103TIP3   OH233799   1.326   4.719   2.583 -0.2038 -0.6502  0.1263
 4103TIP3    H133800   1.235   4.745   2.595  0.5477  1.4312  1.7382
 4103TIP3    H233801   1.368   4.795   2.544  0.7499 -1.7748 -1.0843
 4104TIP3   OH233802   3.921   5.627  14.545  0.6537 -0.1531 -0.1035
 4104TIP3    H133803   3.937   5.721  14.537  0.6992 -0.2426 -1.2146
 4104TIP3    H233804   3.972   5.589  14.473 -2.1174 -0.7182 -1.8487
 4105TIP3   OH233805   0.572   0.407   3.279  0.1469 -0.5527 -0.2024
 4105TIP3    H133806   0.549   0.320   3.245 -0.7863 -0.1200 -0.6874
 4105TIP3    H233807   0.502   0.428   3.340  0.2944 -0.0763 -0.1995
 4106TIP3   OH233808   5.152   3.192  12.196 -0.1491 -0.6424 -0.3330
 4106TIP3    H133809   5.223   3.145  12.241 -0.9462 -1.8132 -0.2789
 4106TIP3    H233810   5.180   3.194  12.104  0.5926  0.0961 -0.0963
 4107TIP3   OH233811   1.639   5.197   0.998 -0.5597  0.5170  1.2318
 4107TIP3    H133812   1.731   5.221   1.005 -0.1743 -0.4733 -0.1971
 4107TIP3    H233813   1.592   5.278   1.017  0.6273  1.2169  1.2273
 4108TIP3   OH233814   5.654   4.179   1.377 -0.2013  0.3004 -0.0589
 4108TIP3    H133815   5.726   4.116   1.376  0.6288  1.2362  0.3075
 4108TIP3    H233816   5.696   4.265   1.377 -1.3199  0.8730 -0.6384
 4109TIP3   OH233817   3.886   5.847  15.321 -0.2543 -0.4101  0.5786
 4109TIP3    H133818   3.911   5.934  15.291  0.0654 -0.9078 -0.6200
 4109TIP3    H233819   3.968   5.798  15.326 -0.4575 -0.7165  1.0354
 4110TIP3   OH233820   0.118   5.743  13.457 -0.1587  0.5126 -0.0301
 4110TIP3    H133821   0.204   5.773  13.428  0.2354  0.2503  0.8498
 4110TIP3    H233822   0.130   5.650  13.476 -1.3923 -0.2649 -2.8148
 4111TIP3   OH233823   4.789   6.074  16.828 -0.6029  0.5549 -0.3623
 4111TIP3    H133824   4.855   6.134  16.863  1.2017 -2.6017  1.8952
 4111TIP3    H233825   4.819   6.055  16.739  0.1457  1.0955 -0.2255
 4112TIP3   OH233826   2.841   1.690  10.832  0.8372  0.2415 -0.3116
 4112TIP3    H133827   2.893   1.734  10.765  0.4601 -1.0189 -1.4675
 4112TIP3    H233828   2.900   1.625  10.870  0.7538  0.2569 -0.1570
 4113TIP3   OH233829   0.284   5.261   1.683 -0.0686  0.2513 -0.1887
 4113TIP3    H133830   0.309   5.333   1.625 -1.6062 -0.1499 -1.4019
 4113TIP3    H233831   0.289   5.184   1.627 -0.4103 -0.3130  0.5594
 4114TIP3   OH233832   5.875   5.379  16.059 -0.0146 -0.0234  0.2538
 4114TIP3    H133833   5.913   5.326  16.130 -0.8465 -0.8770  0.0771
 4114TIP3    H233834   5.881   5.322  15.982  0.5841  0.7765 -0.2922
 4115TIP3   OH233835   1.335   1.766  14.341  0.7991  0.3783  0.0545
 4115TIP3    H133836   1.300   1.798  14.258  2.3868  0.4149 -0.6066
 4115TIP3    H233837   1.299   1.826  14.407 -1.4991 -0.4008 -0.4274
 4116TIP3   OH233838   4.692   4.069  17.140 -0.3710 -0.0391  0.3094
 4116TIP3    H133839   4.622   4.115  17.094 -0.6369 -0.4585  0.2899
 4116TIP3    H233840   4.744   4.028  17.071  0.3892  0.9698  0.2797
 4117TIP3   OH233841   3.404   0.584  14.702  0.4656  0.3049 -0.9243
 4117TIP3    H133842   3.332   0.603  14.642 -0.2694 -0.1423 -0.1787
 4117TIP3    H233843   3.370   0.518  14.762  1.5650 -0.0778 -0.7009
 4118TIP3   OH233844   6.078   1.765  14.694  0.4157  0.2374  0.1165
 4118TIP3    H133845   6.059   1.737  14.604 -0.6612 -0.3191  0.5002
 4118TIP3    H233846   6.156   1.715  14.719 -0.3480 -0.9805  0.1114
 4119TIP3   OH233847   6.762   2.673  16.881  0.3124 -0.5564 -0.3031
 4119TIP3    H133848   6.844   2.690  16.927 -0.9735  2.1386  1.0547
 4119TIP3    H233849   6.769   2.581  16.855  3.1595 -0.7698  0.9873
 4120TIP3   OH233850   3.357   3.158  11.298  0.1752 -0.2602 -0.2404
 4120TIP3    H133851   3.423   3.165  11.228  1.2324  2.7909  0.9638
 4120TIP3    H233852   3.314   3.244  11.299 -1.0687 -0.8708  1.6590
 4121TIP3   OH233853   5.182   2.167   5.032 -0.2242 -0.5462  0.3306
 4121TIP3    H133854   5.188   2.222   5.110  0.4307  3.6676 -2.5195
 4121TIP3    H233855   5.089   2.159   5.014 -0.4378 -2.5070  2.1072
 4122TIP3   OH233856   5.416   1.854  13.873  0.0708 -0.5415  0.2798
 4122TIP3    H133857   5.509   1.837  13.886  0.2843 -0.8976 -1.5085
 4122TIP3    H233858   5.413   1.935  13.822 -0.5863 -0.5934  0.2326
 4123TIP3   OH233859   5.522   5.843   5.883  0.3817  0.8217 -0.4586
 4123TIP3    H133860   5.574   5.807   5.811 -0.2870  1.0618 -1.0797
 4123TIP3    H233861   5.495   5.766   5.934 -0.2013  0.5265 -1.1984
 4124TIP3   OH233862   2.722   0.181  16.829 -0.3839 -0.1143  0.3964
 4124TIP3    H133863   2.633   0.147  16.820 -0.9558  1.1046  1.2317
 4124TIP3    H233864   2.750   0.151  16.916  1.0294 -2.7225 -0.9228
 4125TIP3   OH233865   3.872   2.416   6.738  0.7009  0.8219 -0.5853
 4125TIP3    H133866   3.851   2.337   6.688 -0.0839  0.1598  0.7686
 4125TIP3    H233867   3.961   2.400   6.770  0.7723  0.7527 -0.8160
 4126TIP3   OH233868   2.867   4.968   1.905 -0.5344 -0.0709  0.3095
 4126TIP3    H133869   2.854   4.937   1.995  0.6830 -1.2291  0.1093
 4126TIP3    H233870   2.957   4.943   1.884 -0.3956  1.3165 -0.8000
 4127TIP3   OH233871   2.347   3.417  13.207  0.0075 -0.2487  0.1067
 4127TIP3    H133872   2.300   3.418  13.124  0.6901 -2.5557 -0.3658
 4127TIP3    H233873   2.361   3.324  13.225  0.4470  0.2400  2.4815
 4128TIP3   OH233874   6.670   4.028  13.479  0.2048 -0.0810  0.3316
 4128TIP3    H133875   6.746   3.973  13.460  2.3358  3.2934 -1.3025
 4128TIP3    H233876   6.602   3.995  13.419  2.1299  0.4625 -2.2323
 4129TIP3   OH233877   4.512   3.476  10.750 -0.2639  0.1247  0.3030
 4129TIP3    H133878   4.545   3.557  10.712  0.0911  1.1550  2.7007
 4129TIP3    H233879   4.583   3.413  10.739  1.4758  1.5449  2.8569
 4130TIP3   OH233880   6.401   6.101  11.319 -0.0246 -0.3440 -0.0765
 4130TIP3    H133881   6.455   6.141  11.251 -0.9022 -0.0357 -0.5923
 4130TIP3    H233882   6.400   6.165  11.390  0.2559 -0.3367 -0.0777
 4131TIP3   OH233883   3.785   5.750  10.630 -0.3396  0.5325 -0.1304
 4131TIP3    H133884   3.714   5.698  10.592 -0.7069  0.0983  1.1100
 4131TIP3    H233885   3.865   5.703  10.606 -0.8355 -3.2831  4.7121
 4132TIP3   OH233886   0.072   2.899   5.645 -0.2888  0.2750 -0.2654
 4132TIP3    H133887   0.099   2.908   5.736  1.4776  0.4093 -0.7742
 4132TIP3    H233888   0.048   2.988   5.619 -1.0258  0.1942  0.1396
 4133TIP3   OH233889   0.832   2.923   0.248 -0.1465  0.1973  0.2111
 4133TIP3    H133890   0.776   2.858   0.205 -0.3488 -0.6800  1.7653
 4133TIP3    H233891   0.908   2.931   0.190 -1.7989  1.3208 -1.8628
 4134TIP3   OH233892   0.009   0.688   0.219 -0.5555  0.0327  0.3769
 4134TIP3    H133893   0.054   0.750   0.277 -1.6806 -0.3282  1.6769
 4134TIP3    H233894  -0.077   0.727   0.205 -0.0779  0.4039 -1.5553
 4135TIP3   OH233895   0.998   3.765   4.502  0.0937 -0.1273  0.2407
 4135TIP3    H133896   1.049   3.685   4.515 -1.6026 -1.1935  0.5597
 4135TIP3    H233897   1.001   3.780   4.408  0.7270 -0.3477  0.2211
 4136TIP3   OH233898   3.507   6.721  16.433 -0.5246  0.2379  0.0711
 4136TIP3    H133899   3.510   6.652  16.367  2.0400  0.9599 -0.6248
 4136TIP3    H233900   3.414   6.744  16.440 -1.7386 -4.5944  1.7503
 4137TIP3   OH233901   1.692   2.143  14.627 -0.1246  0.2466  0.4301
 4137TIP3    H133902   1.753   2.108  14.692 -0.8203 -1.6082  0.0983
 4137TIP3    H233903   1.745   2.156  14.548 -0.3183 -2.1932 -0.1286
 4138TIP3   OH233904   0.411   2.623   1.565 -0.1674 -0.6602 -0.1914
 4138TIP3    H133905   0.399   2.555   1.498 -2.2579 -0.0337 -0.4815
 4138TIP3    H233906   0.401   2.576   1.648  1.2919 -1.2286 -0.3267
 4139TIP3   OH233907   3.846   4.398   4.306 -0.6390  0.3996 -0.4115
 4139TIP3    H133908   3.942   4.397   4.299 -0.7535 -1.4267 -2.4419
 4139TIP3    H233909   3.821   4.484   4.272  0.2286  0.3468 -1.2278
 4140TIP3   OH233910   5.048   0.141  15.732 -0.0280  0.6718  0.0516
 4140TIP3    H133911   5.105   0.183  15.667 -1.3633  2.2461 -0.1354
 4140TIP3    H233912   5.107   0.119  15.804  0.9613  1.6345 -0.4411
 4141TIP3   OH233913   5.688   3.904  16.394 -0.0090 -0.1763 -0.4320
 4141TIP3    H133914   5.730   3.976  16.441 -1.6375  0.5257 -0.0307
 4141TIP3    H233915   5.596   3.911  16.417 -0.5448 -0.9596 -2.2788
 4142TIP3   OH233916   2.698   4.710  11.561  0.2067 -0.2819 -0.0434
 4142TIP3    H133917   2.765   4.721  11.493 -0.6030 -0.1136 -0.8331
 4142TIP3    H233918   2.708   4.787  11.617  1.1487 -0.6236  0.2675
 4143TIP3   OH233919   6.818   2.667  10.640 -0.2643  0.6320 -0.2884
 4143TIP3    H133920   6.799   2.629  10.554  1.0045  0.2648 -0.4025
 4143TIP3    H233921   6.894   2.723  10.626 -1.4199  2.3545  0.1232
 4144TIP3   OH233922   6.704   5.585  12.690  0.0083 -0.7112 -0.5767
 4144TIP3    H133923   6.775   5.565  12.750 -0.1727  0.5185  0.0684
 4144TIP3    H233924   6.740   5.651  12.631 -1.3653  1.9044  1.3922
 4145TIP3   OH233925   6.246   6.820   1.381  0.3454 -0.0584  0.0460
 4145TIP3    H133926   6.256   6.884   1.310  1.6569 -1.1566 -0.8002
 4145TIP3    H233927   6.184   6.756   1.347  1.0581 -0.6458 -0.1842
 4146TIP3   OH233928   0.501   6.729   3.288  0.0583  0.5397  0.1725
 4146TIP3    H133929   0.469   6.639   3.288 -1.7550  1.1546  0.8278
 4146TIP3    H233930   0.576   6.729   3.228  0.2739 -1.4573  0.4187
 4147TIP3   OH233931   1.901   6.185   4.220  0.6155  0.0404  0.1245
 4147TIP3    H133932   1.906   6.280   4.205  0.2286 -0.1787 -1.4942
 4147TIP3    H233933   1.988   6.162   4.253  0.2655  1.1687  1.9337
 4148TIP3   OH233934   6.510   3.435  14.787  0.3633  0.2203 -0.5206
 4148TIP3    H133935   6.590   3.403  14.745  0.4027  0.5745 -0.7140
 4148TIP3    H233936   6.535   3.453  14.878  0.6048  0.7170 -0.6824
 4149TIP3   OH233937   1.683   5.331  11.535  0.4742 -0.2094  0.0436
 4149TIP3    H133938   1.651   5.397  11.596 -0.4741 -0.1576 -0.4938
 4149TIP3    H233939   1.646   5.249  11.567 -0.2237 -0.1510 -0.5705
 4150TIP3   OH233940   1.184   4.566   4.234 -0.1202 -0.5350 -0.3297
 4150TIP3    H133941   1.189   4.570   4.329  1.7413 -3.1508 -0.2869
 4150TIP3    H233942   1.125   4.493   4.215 -1.7157  0.9412 -1.2053
 4151TIP3   OH233943   5.354   3.589  15.956  0.3666 -0.4710 -0.4227
 4151TIP3    H133944   5.259   3.595  15.966 -0.0906  0.0453 -4.2464
 4151TIP3    H233945   5.387   3.573  16.044 -3.2977 -1.0531  0.9137
 4152TIP3   OH233946   5.662   6.079   6.582  0.4484  0.2847 -0.2088
 4152TIP3    H133947   5.741   6.082   6.636  0.6513  1.3430 -0.5434
 4152TIP3    H233948   5.590   6.087   6.644  0.6544  0.7416 -0.0278
 4153TIP3   OH233949   2.192   3.768   0.567 -0.1974 -0.0884 -0.4920
 4153TIP3    H133950   2.275   3.816   0.560  1.0976 -2.2812 -0.7995
 4153TIP3    H233951   2.176   3.762   0.661 -1.2279  2.3089 -0.4825
 4154TIP3   OH233952   2.252   2.645  11.311  0.4719 -0.4449 -0.1981
 4154TIP3    H133953   2.305   2.715  11.349 -2.1138  3.0455 -2.6085
 4154TIP3    H233954   2.315   2.584  11.273  2.8135  1.7194  0.1023
 4155TIP3   OH233955   2.996   1.737  12.696 -0.1878 -0.0189 -0.8973
 4155TIP3    H133956   2.999   1.824  12.735  0.1978 -0.1827 -0.5584
 4155TIP3    H233957   2.912   1.734  12.651 -0.3522  0.4067 -0.6220
 4156TIP3   OH233958   3.794   1.395   6.102 -0.5883 -0.5261 -0.0428
 4156TIP3    H133959   3.827   1.482   6.080  1.2947 -0.5146  2.5313
 4156TIP3    H233960   3.753   1.406   6.188 -0.4285 -2.1505  0.2537
 4157TIP3   OH233961   3.361   3.053   3.861 -0.1193  0.0603  0.1897
 4157TIP3    H133962   3.300   3.004   3.917 -0.7403  1.6997  0.9589
 4157TIP3    H233963   3.405   3.113   3.920  1.4203 -0.2893 -0.5739
 4158TIP3   OH233964   0.997   2.541  15.627 -0.3435 -0.0451  0.2037
 4158TIP3    H133965   1.064   2.472  15.624 -0.7856 -0.4802  0.1621
 4158TIP3    H233966   0.980   2.554  15.721  0.9265  1.1791  0.2685
 4159TIP3   OH233967   5.976   3.130   0.019  0.4826 -0.3699  0.1051
 4159TIP3    H133968   5.926   3.131  -0.063 -2.8981 -1.5185  2.0254
 4159TIP3    H233969   6.000   3.038   0.031 -1.6251 -0.7206  1.8368
 4160TIP3   OH233970   3.605   6.123   5.127  0.1238 -0.4548 -0.3016
 4160TIP3    H133971   3.568   6.057   5.069  1.7504  0.9891 -3.0510
 4160TIP3    H233972   3.561   6.205   5.103  1.4541  0.3199 -0.1586
 4161TIP3   OH233973   3.517   1.536  11.397  0.1090 -0.8831  0.5600
 4161TIP3    H133974   3.520   1.519  11.491  0.3381 -0.9014  0.5513
 4161TIP3    H233975   3.431   1.576  11.382 -0.0263 -1.1112  0.7350
 4162TIP3   OH233976   1.449   0.188  14.725 -0.3966 -0.2294  0.3731
 4162TIP3    H133977   1.526   0.185  14.782  0.1522  2.7615 -0.1303
 4162TIP3    H233978   1.382   0.232  14.777 -0.3181  1.2799 -0.7515
 4163TIP3   OH233979   2.159   1.449  17.119  0.1434 -0.6175  0.1662
 4163TIP3    H133980   2.170   1.393  17.196 -0.0261  0.2628  0.8357
 4163TIP3    H233981   2.248   1.464  17.088  0.2566 -0.4183  0.5869
 4164TIP3   OH233982   0.375   5.756  14.897 -0.0566  0.0392  0.2254
 4164TIP3    H133983   0.418   5.840  14.879  0.4230 -0.0121  1.1114
 4164TIP3    H233984   0.282   5.777  14.898  0.1198  0.8302  1.7744
 4165TIP3   OH233985   4.233   3.340  16.657 -0.0270  1.0143  0.1471
 4165TIP3    H133986   4.278   3.419  16.685 -1.3420  1.6415  0.5565
 4165TIP3    H233987   4.162   3.372  16.600 -0.9995  0.1999  0.8721
 4166TIP3   OH233988   3.554   0.883  16.821 -0.2840  0.5561 -0.3617
 4166TIP3    H133989   3.616   0.940  16.868  0.9951 -0.5930 -0.6291
 4166TIP3    H233990   3.570   0.903  16.728 -1.2173  1.1710 -0.4004
 4167TIP3   OH233991   6.663   1.926  10.827  0.0163 -0.2309 -0.4051
 4167TIP3    H133992   6.608   1.859  10.787  1.2449 -1.4182 -0.1625
 4167TIP3    H233993   6.747   1.882  10.843  0.8042  1.3224 -0.1099
 4168TIP3   OH233994   3.600   2.647  12.032 -0.1143  0.2280  0.6441
 4168TIP3    H133995   3.511   2.623  12.007 -0.5669  0.2620  2.1429
 4168TIP3    H233996   3.646   2.563  12.039 -0.2935  0.1394  0.7868
 4169TIP3   OH233997   2.650   3.316  14.438 -0.2252 -0.6018  0.1989
 4169TIP3    H133998   2.725   3.371  14.417  1.4024 -1.8016  2.7470
 4169TIP3    H233999   2.582   3.378  14.467  0.3633  0.3179 -0.3562
 4170TIP3   OH234000   6.627   4.959   2.889 -0.0783  0.0248  0.1820
 4170TIP3    H134001   6.557   4.919   2.838  0.3149 -0.2952 -0.1093
 4170TIP3    H234002   6.658   4.889   2.946 -0.5985  0.4154  0.9549
 4171TIP3   OH234003   4.554   2.077   4.492 -0.3183  0.3077  0.1929
 4171TIP3    H134004   4.526   2.043   4.408  0.2033  0.8291 -0.1999
 4171TIP3    H234005   4.480   2.061   4.551 -0.8931  0.4197 -0.4902
 4172TIP3   OH234006   3.095   6.090   3.764  0.0152 -0.2360  0.1682
 4172TIP3    H134007   3.119   6.013   3.713  0.7390 -0.6005  1.0500
 4172TIP3    H234008   3.002   6.079   3.783 -0.3108  0.0238 -1.2761
 4173TIP3   OH234009   0.603   6.343   0.526  0.5112 -0.3015  0.7162
 4173TIP3    H134010   0.609   6.270   0.587 -1.3146  0.3477  1.7089
 4173TIP3    H234011   0.520   6.329   0.480  0.6539  0.5906  0.1753
 4174TIP3   OH234012   6.058   5.673   2.520  0.0880  0.3081 -0.1718
 4174TIP3    H134013   5.990   5.738   2.509  0.0703  0.5938  1.5041
 4174TIP3    H234014   6.011   5.591   2.535  0.1197  0.0951 -1.1632
 4175TIP3   OH234015   2.563   4.323  17.012 -0.1408  0.4534  0.2263
 4175TIP3    H134016   2.644   4.291  16.973 -1.2569 -2.0218 -0.1535
 4175TIP3    H234017   2.503   4.335  16.938 -1.2953 -1.3265  0.8424
 4176TIP3   OH234018   0.720   1.898  15.832 -0.1975 -0.7292 -0.2423
 4176TIP3    H134019   0.670   1.938  15.903 -0.1465 -0.2859 -0.4545
 4176TIP3    H234020   0.792   1.959  15.816 -0.0760 -0.9454 -0.5149
 4177TIP3   OH234021   5.881   0.120   4.063  0.8974 -0.1214  0.1378
 4177TIP3    H134022   5.967   0.156   4.038  1.3165  0.2268  2.0130
 4177TIP3    H234023   5.848   0.180   4.130 -0.6337 -0.4957 -0.2616
 4178TIP3   OH234024   4.537   0.386  14.148 -0.2607 -0.4983 -0.2393
 4178TIP3    H134025   4.548   0.448  14.076  0.5561 -1.1134 -0.6405
 4178TIP3    H234026   4.448   0.353  14.138 -0.7779  0.7616  0.0994
 4179TIP3   OH234027   1.609   0.639   3.069 -0.4487  0.1810  0.9136
 4179TIP3    H134028   1.673   0.586   3.117  0.3750  1.0811  0.8352
 4179TIP3    H234029   1.542   0.577   3.042 -0.3192 -0.5443  2.2132
 4180TIP3   OH234030   1.767   2.115   3.123 -0.3708 -0.1893 -0.1565
 4180TIP3    H134031   1.722   2.197   3.144  0.5767  0.7313 -1.6317
 4180TIP3    H234032   1.714   2.074   3.055 -0.7633 -0.7272  0.4738
 4181TIP3   OH234033   6.228   0.762   5.548 -0.5625  0.1081  0.2815
 4181TIP3    H134034   6.278   0.834   5.511 -1.4684  0.6866  0.1748
 4181TIP3    H234035   6.263   0.684   5.505  0.5926  0.4412  0.5885
 4182TIP3   OH234036   4.637   2.720  15.673 -0.6217  0.2199 -0.3026
 4182TIP3    H134037   4.697   2.659  15.717 -0.9772  0.1099  0.0347
 4182TIP3    H234038   4.693   2.793  15.646 -0.1921 -0.2445 -0.6941
 4183TIP3   OH234039   3.521   1.875  16.211  0.0882  0.6557 -0.0573
 4183TIP3    H134040   3.445   1.822  16.236  0.7474 -0.2731  0.0238
 4183TIP3    H234041   3.587   1.857  16.278  0.8527  0.3834 -0.8590
 4184TIP3   OH234042   4.495   3.312   5.989  0.0700  0.1190  0.3404
 4184TIP3    H134043   4.506   3.351   6.075 -1.2167 -1.0036  1.0413
 4184TIP3    H234044   4.406   3.335   5.964 -0.1318 -0.9358  0.0432
 4185TIP3   OH234045   0.474   6.358   6.094  0.5513 -1.1384 -0.4189
 4185TIP3    H134046   0.448   6.283   6.148 -0.0702 -0.3848  0.3649
 4185TIP3    H234047   0.543   6.401   6.144 -0.7308  0.1443  0.2999
 4186TIP3   OH234048   0.919   6.221  13.870 -0.0011  0.1261  0.1128
 4186TIP3    H134049   0.869   6.142  13.890  0.4337 -0.6417 -1.7292
 4186TIP3    H234050   0.956   6.248  13.954 -1.2855 -0.8299  1.0033
 4187TIP3   OH234051   1.678   4.242   5.198  0.0612  0.3186 -0.1606
 4187TIP3    H134052   1.634   4.233   5.114 -2.3317  1.8162  0.8722
 4187TIP3    H234053   1.707   4.153   5.220 -4.2441 -1.1529  0.0108
 4188TIP3   OH234054   2.054   5.877   4.030  0.1192 -0.1723 -0.5709
 4188TIP3    H134055   2.017   5.950   3.979 -0.9541  0.0193  0.4516
 4188TIP3    H234056   1.980   5.846   4.083  1.1615 -0.5426  0.6644
 4189TIP3   OH234057   1.523   6.443   5.543 -0.2981  0.6700  0.1429
 4189TIP3    H134058   1.551   6.496   5.468 -0.6495 -0.2354 -0.6380
 4189TIP3    H234059   1.491   6.362   5.504  0.6221 -0.2878  1.3677
 4190TIP3   OH234060   5.294   0.838   2.955  0.5305  0.1635  0.1123
 4190TIP3    H134061   5.307   0.888   2.874 -0.0546 -2.4874 -1.6837
 4190TIP3    H234062   5.380   0.840   2.998  1.0799  0.8693 -0.9924
 4191TIP3   OH234063   1.789   0.219  11.928 -0.3840  0.0340 -0.2076
 4191TIP3    H134064   1.848   0.147  11.950 -0.3534  0.5366  1.4272
 4191TIP3    H234065   1.703   0.188  11.953 -0.6337 -0.1397 -1.2478
 4192TIP3   OH234066   4.374   3.542   1.884 -0.1186 -0.4806 -0.2650
 4192TIP3    H134067   4.305   3.559   1.949 -1.5011  2.8143 -2.4835
 4192TIP3    H234068   4.341   3.467   1.834 -0.7350 -0.7566  0.5268
 4193TIP3   OH234069   1.699   3.389   3.840 -0.5955  0.1382  0.3917
 4193TIP3    H134070   1.763   3.355   3.902 -0.7840 -2.4521 -0.7672
 4193TIP3    H234071   1.678   3.477   3.872  0.2387 -0.6692  3.2433
 4194TIP3   OH234072   5.410   0.470  17.094 -0.0878  0.9982  0.3792
 4194TIP3    H134073   5.452   0.506  17.016  0.2657  2.3213  1.1462
 4194TIP3    H234074   5.318   0.497  17.087 -0.1329  0.8025  0.2341
 4195TIP3   OH234075   2.615   1.446   0.878 -0.3322 -0.3757  0.3415
 4195TIP3    H134076   2.599   1.513   0.811 -0.6645  0.4515  1.2409
 4195TIP3    H234077   2.710   1.445   0.889 -0.4499  1.3581  1.7357
 4196TIP3   OH234078   1.753   0.279  12.845 -0.3397  0.6081  0.1009
 4196TIP3    H134079   1.667   0.287  12.888 -0.3842  1.6387 -0.1615
 4196TIP3    H234080   1.813   0.253  12.915 -0.7518  0.4800  0.4095
 4197TIP3   OH234081   3.472   3.569  14.815  0.0677 -0.3928  0.1903
 4197TIP3    H134082   3.448   3.661  14.825 -0.5449 -0.7470  2.0407
 4197TIP3    H234083   3.486   3.537  14.904 -0.7571 -2.3558 -0.3385
 4198TIP3   OH234084   3.022   3.692  11.497 -0.4075 -0.2708  0.3819
 4198TIP3    H134085   3.045   3.785  11.508 -1.5496  0.0862 -0.1329
 4198TIP3    H234086   2.927   3.693  11.481 -0.6004 -1.6214  1.4080
 4199TIP3   OH234087   3.719   3.448  11.057  0.2926 -0.0364 -0.0247
 4199TIP3    H134088   3.777   3.393  11.004  0.0982 -0.2342 -0.0335
 4199TIP3    H234089   3.778   3.508  11.103  0.5058 -0.2442 -0.0275
 4200TIP3   OH234090   3.118   6.409  16.214 -0.2771 -0.0625 -0.2622
 4200TIP3    H134091   3.040   6.418  16.159 -1.5551 -0.5830  1.4196
 4200TIP3    H234092   3.103   6.469  16.287  0.9630 -0.0841  0.0257
 4201TIP3   OH234093   3.646   3.961   2.787 -0.1985 -0.2257  0.5325
 4201TIP3    H134094   3.630   3.976   2.880 -0.9538  1.5127  0.1352
 4201TIP3    H234095   3.568   3.915   2.756 -0.4152  0.1413  0.5340
 4202TIP3   OH234096   1.868   3.078  17.187 -0.2351 -0.1002 -0.0357
 4202TIP3    H134097   1.789   3.132  17.195 -0.2997 -0.1796 -0.1392
 4202TIP3    H234098   1.865   3.021  17.263  1.0728  1.6625  1.3896
 4203TIP3   OH234099   0.466   6.802  10.505 -0.0684  0.1214 -0.2259
 4203TIP3    H134100   0.416   6.826  10.427  1.1585  0.7206 -0.8354
 4203TIP3    H234101   0.551   6.844  10.493  0.0923  0.3121  1.4976
 4204TIP3   OH234102   5.021   2.181  13.013 -0.5420 -0.4575 -0.3636
 4204TIP3    H134103   4.947   2.220  13.061  0.0697 -0.8388  0.8817
 4204TIP3    H234104   4.979   2.134  12.940 -1.5124 -0.4038  0.1451
 4205TIP3   OH234105   3.225   3.527   0.663 -0.0082 -0.5540  0.5082
 4205TIP3    H134106   3.272   3.570   0.734 -0.0065 -0.5132  0.4819
 4205TIP3    H234107   3.133   3.551   0.677  0.0580 -0.1153  0.1877
 4206TIP3   OH234108   3.503   3.643   3.205 -0.1413  0.2913 -0.2633
 4206TIP3    H134109   3.499   3.600   3.290 -0.4640  0.6933 -0.0721
 4206TIP3    H234110   3.428   3.608   3.156  0.5329 -0.5801 -0.6943
 4207TIP3   OH234111   6.642   6.712   5.619  0.1417 -0.3421  0.2229
 4207TIP3    H134112   6.561   6.744   5.659 -1.4866 -4.0952  0.1206
 4207TIP3    H234113   6.631   6.730   5.526  1.5696  3.4555  0.7073
 4208TIP3   OH234114   1.777   4.900   0.256  0.1399 -0.1893 -0.4579
 4208TIP3    H134115   1.691   4.923   0.222 -0.3689 -0.4903  0.6137
 4208TIP3    H234116   1.776   4.804   0.261 -0.4544 -0.0770  2.0917
 4209TIP3   OH234117   0.667   0.385  13.929 -0.2140 -0.5162 -0.4373
 4209TIP3    H134118   0.741   0.414  13.875 -0.1678 -0.1779 -0.1942
 4209TIP3    H234119   0.666   0.290  13.919 -0.1390 -0.4678 -0.9486
 4210TIP3   OH234120   5.970   5.416   3.368  0.4511  0.1167 -0.3208
 4210TIP3    H134121   5.913   5.485   3.334  2.5796  2.2666  0.2708
 4210TIP3    H234122   5.911   5.353   3.409 -1.4483  2.7957  1.2148
 4211TIP3   OH234123   2.261   2.480   4.066  0.0222 -0.1018  0.0233
 4211TIP3    H134124   2.332   2.525   4.020  0.4388 -1.4136 -0.6324
 4211TIP3    H234125   2.184   2.494   4.011  0.3252 -0.8836 -0.6070
 4212TIP3   OH234126   1.820   1.706   1.301  0.0892  0.2836  0.0895
 4212TIP3    H134127   1.765   1.628   1.288  0.9075 -0.5063  1.2816
 4212TIP3    H234128   1.793   1.740   1.386  0.0774  1.0293 -0.2143
 4213TIP3   OH234129   0.119   2.755   2.165  0.4240 -0.0211  0.3778
 4213TIP3    H134130   0.051   2.752   2.232  0.8144  0.4145  0.8007
 4213TIP3    H234131   0.104   2.677   2.112 -0.5692  0.2161  0.3026
 4214TIP3   OH234132   4.245   4.883   3.215 -0.3514 -0.2206 -0.2787
 4214TIP3    H134133   4.187   4.920   3.283  1.4832 -1.7472  2.2053
 4214TIP3    H234134   4.194   4.811   3.177 -0.8636 -0.2796  0.4919
 4215TIP3   OH234135   0.072   5.379  17.076 -0.1916 -0.0002  1.4051
 4215TIP3    H134136   0.075   5.457  17.132 -2.1719  2.1969 -1.4525
 4215TIP3    H234137   0.162   5.371  17.043  0.1431  0.7778  2.0833
 4216TIP3   OH234138   6.128   2.757  12.755 -0.2869 -0.8534  0.4091
 4216TIP3    H134139   6.160   2.844  12.779  1.4714 -1.1510 -0.7468
 4216TIP3    H234140   6.049   2.745  12.808 -0.9108  1.6927  0.1320
 4217TIP3   OH234141   0.411   5.174  12.025  0.0684 -0.1113  0.2950
 4217TIP3    H134142   0.444   5.157  12.113 -1.9966  0.0634  1.1425
 4217TIP3    H234143   0.329   5.124  12.020 -0.6481  1.1390 -0.9401
 4218TIP3   OH234144   6.415   5.218  12.746  0.5517  0.0097  0.6084
 4218TIP3    H134145   6.350   5.149  12.753 -1.1840  1.4177 -1.0566
 4218TIP3    H234146   6.373   5.295  12.785  0.3930  1.4325 -2.2191
 4219TIP3   OH234147   0.116   6.624   0.817 -0.3606  0.7944  0.1952
 4219TIP3    H134148   0.059   6.551   0.793 -0.7850  1.0302  0.4828
 4219TIP3    H234149   0.129   6.672   0.735 -0.5199  0.7016  0.1161
 4220TIP3   OH234150   4.317   3.306   5.347  0.3717  0.3281  0.1101
 4220TIP3    H134151   4.245   3.333   5.404  0.5466 -0.1677  0.5739
 4220TIP3    H234152   4.332   3.214   5.370  1.8512  0.7189  0.7550
 4221TIP3   OH234153   5.588   5.745   4.897 -0.1998  0.4925 -0.0636
 4221TIP3    H134154   5.656   5.718   4.835  0.2992 -0.4725  0.8849
 4221TIP3    H234155   5.629   5.815   4.948 -0.3084  0.6766 -0.2274
 4222TIP3   OH234156   3.999   2.549  13.775 -0.3640  0.9058  0.7823
 4222TIP3    H134157   4.020   2.488  13.846  2.1211  0.5717 -0.1684
 4222TIP3    H234158   4.078   2.604  13.767  0.3211 -0.4911 -3.1276
 4223TIP3   OH234159   5.623   2.038   4.311  0.2695 -0.2077  0.3015
 4223TIP3    H134160   5.683   2.113   4.309 -0.8702  0.7469  0.9111
 4223TIP3    H234161   5.544   2.072   4.354 -0.9601 -1.2335 -1.0799
 4224TIP3   OH234162   4.052   3.929  12.830 -0.8817 -0.0520  0.3179
 4224TIP3    H134163   4.002   4.009  12.813 -0.2249  0.2903 -0.0056
 4224TIP3    H234164   4.113   3.953  12.900  0.4124  0.1947 -0.8659
 4225TIP3   OH234165   5.784   4.865  14.170 -0.3853 -0.1095 -0.0163
 4225TIP3    H134166   5.825   4.950  14.156 -2.4249  0.7838 -0.7339
 4225TIP3    H234167   5.758   4.865  14.262  2.1947 -1.1473  0.7592
 4226TIP3   OH234168   4.058   5.379   5.112 -0.2702 -0.0339 -0.3899
 4226TIP3    H134169   4.043   5.324   5.035  1.2558 -0.4123 -0.4255
 4226TIP3    H234170   4.036   5.468   5.083  1.3163 -0.0135 -1.6071
 4227TIP3   OH234171   3.500   4.704   5.156  0.2357 -0.2269  0.0629
 4227TIP3    H134172   3.458   4.706   5.242  0.7895 -2.2607  0.3895
 4227TIP3    H234173   3.545   4.620   5.153  1.0433  0.2540 -1.8356
 4228TIP3   OH234174   0.516   5.518   3.365  0.6160 -0.5683 -0.1437
 4228TIP3    H134175   0.554   5.452   3.307 -0.0139 -1.3654  0.3407
 4228TIP3    H234176   0.423   5.496   3.370  0.6222 -0.4004  1.0036
 4229TIP3   OH234177   5.438   3.921   5.790 -0.1197  0.0544 -0.5119
 4229TIP3    H134178   5.365   3.981   5.808 -1.2548 -2.0917  2.4875
 4229TIP3    H234179   5.492   3.926   5.869 -1.1978 -4.1485  0.5795
 4230TIP3   OH234180   4.097   4.169   0.262  0.3611 -0.4408 -0.0041
 4230TIP3    H134181   4.006   4.188   0.239  1.1900  1.8679 -1.5056
 4230TIP3    H234182   4.097   4.162   0.358 -1.7545 -2.5959 -0.1182
 4231TIP3   OH234183   1.569   4.816  15.132  0.0833  0.1282 -0.2993
 4231TIP3    H134184   1.565   4.905  15.097 -0.5268  0.9210  1.7064
 4231TIP3    H234185   1.656   4.809  15.171 -0.0588  0.0116 -0.0034
 4232TIP3   OH234186   6.153   3.687  16.669  0.4443 -0.0835 -0.2346
 4232TIP3    H134187   6.215   3.652  16.733  1.2210  0.5523 -0.6175
 4232TIP3    H234188   6.135   3.776  16.700  0.6303  0.1372 -0.7539
 4233TIP3   OH234189   2.164   5.380  16.021  0.1245  0.4262  0.1311
 4233TIP3    H134190   2.098   5.412  16.083 -0.7181  2.4291 -1.7381
 4233TIP3    H234191   2.132   5.408  15.936  1.3815 -2.1128 -1.2200
 4234TIP3   OH234192   4.222   0.380  15.450 -0.2730 -0.2159  0.3154
 4234TIP3    H134193   4.291   0.333  15.496  0.8819  0.2883 -0.8914
 4234TIP3    H234194   4.205   0.458  15.504  1.1462  0.4325 -0.1700
 4235TIP3   OH234195   1.788   2.854   3.339  0.5160 -0.2475  0.0335
 4235TIP3    H134196   1.807   2.762   3.324  0.5246 -0.4676  1.3463
 4235TIP3    H234197   1.845   2.901   3.278 -1.4435 -1.1732 -2.5949
 4236TIP3   OH234198   3.698   6.673   1.417 -0.5080 -0.0521  0.2401
 4236TIP3    H134199   3.700   6.630   1.331 -2.7001  0.5878 -0.1657
 4236TIP3    H234200   3.616   6.643   1.457  0.2492  0.0585  1.9043
 4237TIP3   OH234201   4.998   2.344   2.361 -0.5230 -0.3106 -0.2211
 4237TIP3    H134202   5.071   2.285   2.343  0.8452  0.7312  1.6893
 4237TIP3    H234203   4.960   2.362   2.276  2.0747 -0.1037 -1.3724
 4238TIP3   OH234204   5.611   2.445  14.289 -0.5931 -0.3584 -0.6476
 4238TIP3    H134205   5.642   2.366  14.246 -2.2389 -0.5098 -1.6011
 4238TIP3    H234206   5.518   2.429  14.306 -0.2283  0.1380  1.9967
 4239TIP3   OH234207   3.023   3.737   1.725 -0.7196 -0.8335 -0.0462
 4239TIP3    H134208   3.001   3.653   1.765 -0.9532 -0.7086  0.0911
 4239TIP3    H234209   3.101   3.719   1.673  1.0982 -0.4708  2.4289
 4240TIP3   OH234210   1.025   0.045   3.038  0.4070  0.0457 -0.1470
 4240TIP3    H134211   1.064   0.023   3.123  1.1645  2.1565  0.0544
 4240TIP3    H234212   1.064  -0.018   2.978  0.4942 -0.9432  0.9140
 4241TIP3   OH234213   4.345   0.424   1.585  0.2793  0.1535 -0.0606
 4241TIP3    H134214   4.371   0.332   1.576  0.5986  0.5139 -3.2968
 4241TIP3    H234215   4.426   0.469   1.611 -0.0752 -0.5482  2.4360
 4242TIP3   OH234216   3.660   6.413   2.084 -0.8177  0.2282 -0.1160
 4242TIP3    H134217   3.652   6.505   2.110  0.3165  0.2076  0.3209
 4242TIP3    H234218   3.655   6.416   1.988 -1.2809  0.6921 -0.0837
 4243TIP3   OH234219   6.108   1.676  15.394 -0.0982 -0.2531  0.0160
 4243TIP3    H134220   6.161   1.731  15.338  0.5116  1.3536  2.1236
 4243TIP3    H234221   6.018   1.703  15.376  0.1605  1.0130  0.5963
 4244TIP3   OH234222   4.973   1.591   5.385  0.0042  0.4659 -0.3198
 4244TIP3    H134223   4.954   1.613   5.293 -0.0750  1.2511 -0.1176
 4244TIP3    H234224   5.066   1.608   5.394 -0.1348  1.0903 -0.0581
 4245TIP3   OH234225   2.743   5.823   1.092  0.1855 -0.6179 -0.0399
 4245TIP3    H134226   2.836   5.821   1.116  0.1976  0.4065  0.0224
 4245TIP3    H234227   2.725   5.915   1.074 -1.3119 -0.5112  1.8684
 4246TIP3   OH234228   4.869   4.938   0.665  0.9969 -0.1193  0.2714
 4246TIP3    H134229   4.951   4.984   0.684  2.2319 -1.7126 -1.0806
 4246TIP3    H234230   4.829   4.925   0.751  0.9722  2.7490  0.7608
 4247TIP3   OH234231   1.697   4.217  11.666  0.0247  0.2014  0.6243
 4247TIP3    H134232   1.776   4.223  11.719 -0.1327  0.0534  0.8746
 4247TIP3    H234233   1.691   4.302  11.623  1.7921 -0.7235 -1.5089
 4248TIP3   OH234234   4.249   3.156  11.788 -0.3315  0.0083 -0.2415
 4248TIP3    H134235   4.304   3.100  11.735  1.1234  1.1993 -0.0180
 4248TIP3    H234236   4.183   3.190  11.727  1.1033  1.0691 -1.2270
 4249TIP3   OH234237   5.408   1.314   3.035  0.0446 -0.0403 -0.1126
 4249TIP3    H134238   5.485   1.270   3.070  0.1530  2.0959  2.4761
 4249TIP3    H234239   5.441   1.368   2.963  0.4843 -1.2860 -0.8533
 4250TIP3   OH234240   2.492   6.710   0.662  1.3470  0.0259 -0.1594
 4250TIP3    H134241   2.518   6.777   0.599  1.3218 -2.1231 -2.5247
 4250TIP3    H234242   2.570   6.655   0.672  0.8719 -0.5317  0.5582
 4251TIP3   OH234243   1.919   3.377  15.803 -0.9212  0.1165 -0.1198
 4251TIP3    H134244   1.830   3.394  15.833 -0.2383 -0.6911  2.4527
 4251TIP3    H234245   1.973   3.442  15.849 -0.0483 -0.0842 -0.8352
 4252TIP3   OH234246   4.484   0.307  11.464 -0.3932  0.3450  0.2733
 4252TIP3    H134247   4.482   0.314  11.369 -0.6699 -3.2305 -0.0761
 4252TIP3    H234248   4.392   0.297  11.489 -0.2970  0.9465  0.8708
 4253TIP3   OH234249   5.684   4.930  14.430  0.1375  0.3642 -0.3988
 4253TIP3    H134250   5.712   5.002  14.486  1.5982  0.4722 -1.2317
 4253TIP3    H234251   5.605   4.896  14.472  0.3119  1.4484  0.8463
 4254TIP3   OH234252   1.977   4.519   3.965  0.7410 -0.1583 -0.3926
 4254TIP3    H134253   2.065   4.542   3.935  0.4843  1.8766  0.3325
 4254TIP3    H234254   1.919   4.545   3.893  0.7223 -1.7874 -1.0019
 4255TIP3   OH234255   4.097   2.005   1.499 -0.0017  0.1626  0.0153
 4255TIP3    H134256   4.179   1.987   1.546  0.4963 -0.0814 -0.9425
 4255TIP3    H234257   4.088   2.100   1.503  0.4026  0.2034  0.0060
 4256TIP3   OH234258   4.917   4.465  14.636 -0.0834 -0.0586 -0.0417
 4256TIP3    H134259   4.980   4.413  14.586 -0.1309  0.4909 -0.6826
 4256TIP3    H234260   4.869   4.401  14.688 -0.7014 -0.7555 -1.4346
 4257TIP3   OH234261   3.669   1.330   0.058 -0.1067 -0.0647 -0.4116
 4257TIP3    H134262   3.710   1.277   0.127  0.2282 -0.9977 -1.3077
 4257TIP3    H234263   3.739   1.348  -0.004 -0.8644 -1.0455 -1.5818
 4258TIP3   OH234264   3.324   6.370  12.330 -0.1086 -0.1514  0.0216
 4258TIP3    H134265   3.352   6.279  12.329 -1.0322 -0.4390 -1.0976
 4258TIP3    H234266   3.371   6.411  12.258  1.3990  0.6122  1.4117
 4259TIP3   OH234267   0.062   5.496   0.100  0.0980  0.4377  0.7691
 4259TIP3    H134268   0.149   5.470   0.070 -0.1499  1.4928 -0.9252
 4259TIP3    H234269   0.079   5.558   0.170  0.6855 -1.6584  2.5376
 4260TIP3   OH234270   6.731   3.391   0.209 -0.2272 -0.3344 -0.1870
 4260TIP3    H134271   6.747   3.466   0.266 -1.2432 -0.6542  0.5392
 4260TIP3    H234272   6.763   3.316   0.258 -0.5312 -0.5407 -0.2989
 4261TIP3   OH234273   6.745   3.009  14.328 -0.2375  0.4260 -0.1747
 4261TIP3    H134274   6.734   3.023  14.233 -0.3532  2.2022  0.0935
 4261TIP3    H234275   6.670   2.954  14.352  0.6629 -1.4129 -1.3855
 4262TIP3   OH234276   0.487   5.341   3.720 -0.1735  0.8818 -0.0107
 4262TIP3    H134277   0.517   5.264   3.768 -1.9283  0.5262  0.5556
 4262TIP3    H234278   0.553   5.407   3.737  0.5104 -0.0111  0.8448
 4263TIP3   OH234279   4.842   3.663  16.815 -0.3034 -0.8706  0.4242
 4263TIP3    H134280   4.935   3.686  16.816 -0.5189  0.0035  1.9182
 4263TIP3    H234281   4.824   3.633  16.904 -2.0321  1.4699  0.9278
 4264TIP3   OH234282   0.474   5.427  12.202  0.4141 -0.0616 -0.3752
 4264TIP3    H134283   0.454   5.368  12.130  1.8186  1.7025 -2.2612
 4264TIP3    H234284   0.560   5.398  12.234 -0.3046 -0.9799  0.7562
 4265TIP3   OH234285   4.152   0.309  14.612 -0.2166  0.3892  0.4521
 4265TIP3    H134286   4.245   0.293  14.628 -0.3596 -0.3955  0.4808
 4265TIP3    H234287   4.149   0.400  14.580  0.6870  0.0364 -0.6790
 4266TIP3   OH234288   3.742   0.765   6.434 -0.0969 -0.0282  0.3846
 4266TIP3    H134289   3.651   0.743   6.418 -0.0886  0.5399 -0.5171
 4266TIP3    H234290   3.759   0.736   6.523 -0.6843 -1.6478 -0.0140
 4267TIP3   OH234291   4.968   3.982  11.580 -0.3868  0.3216 -0.4102
 4267TIP3    H134292   4.910   4.040  11.629 -0.9603 -0.1464 -0.5279
 4267TIP3    H234293   5.048   3.978  11.632 -0.9604 -0.1056  0.4336
 4268TIP3   OH234294   4.934   2.037   5.011 -0.2294 -0.4594  0.0579
 4268TIP3    H134295   4.856   2.061   5.061  0.7987 -0.8967  1.9151
 4268TIP3    H234296   4.905   1.968   4.951 -1.1814 -0.8853  1.0058
 4269TIP3   OH234297   4.728   4.221   2.604  0.5579 -0.1444  0.4188
 4269TIP3    H134298   4.634   4.237   2.617  0.4745 -0.0967 -0.2206
 4269TIP3    H234299   4.770   4.302   2.634  0.3335  0.1571 -0.0515
 4270TIP3   OH234300   1.685   6.429  16.328 -0.2185 -0.1667  0.0442
 4270TIP3    H134301   1.663   6.382  16.247 -0.5666 -1.4218  0.8560
 4270TIP3    H234302   1.669   6.521  16.307  0.1126 -0.4353 -1.4541
 4271TIP3   OH234303   0.710   1.315   1.289  0.7229  0.3303  0.1766
 4271TIP3    H134304   0.782   1.317   1.353  1.8265  1.8506 -1.0624
 4271TIP3    H234305   0.691   1.222   1.277  3.3795 -0.1988 -0.4215
 4272TIP3   OH234306   3.498   5.574  11.783  0.5553  0.5817 -0.0603
 4272TIP3    H134307   3.441   5.497  11.781  0.3411  0.7648 -1.5334
 4272TIP3    H234308   3.586   5.539  11.794  0.3655  0.1868  0.2227
 4273TIP3   OH234309   6.341   6.806  16.211 -0.6806 -0.2623 -0.5208
 4273TIP3    H134310   6.276   6.841  16.150  2.3510  2.6536 -2.2428
 4273TIP3    H234311   6.358   6.879  16.272  1.6516 -0.6111 -0.7056
 4274TIP3   OH234312   3.104   0.873  11.637 -0.4683 -0.6221 -0.2817
 4274TIP3    H134313   3.168   0.941  11.615 -1.5439  0.3096 -0.5874
 4274TIP3    H234314   3.021   0.921  11.649 -0.2120 -1.1153  4.7770
 4275TIP3   OH234315   1.286   4.070  11.423 -0.3464 -0.8354  0.2963
 4275TIP3    H134316   1.379   4.092  11.428 -0.3327 -0.7202 -0.4185
 4275TIP3    H234317   1.268   4.064  11.329 -1.4392  0.8286  0.3763
 4276TIP3   OH234318   1.844   3.784   6.043  0.4150  0.1268 -0.4344
 4276TIP3    H134319   1.887   3.761   6.125 -0.2916  0.1562 -0.0554
 4276TIP3    H234320   1.757   3.816   6.069  0.5285  1.0219 -1.1129
 4277TIP3   OH234321   4.220   4.921   2.455 -0.7764  0.5192 -0.0958
 4277TIP3    H134322   4.282   4.959   2.517 -1.1520 -1.3325  1.4662
 4277TIP3    H234323   4.226   4.977   2.377  3.7447 -0.3155 -0.4794
 4278TIP3   OH234324   0.013   5.377  16.088 -0.3042 -0.0415  0.3977
 4278TIP3    H134325   0.008   5.360  15.994  1.0708  2.3109 -0.1156
 4278TIP3    H234326  -0.075   5.407  16.112 -0.5375 -0.2559 -0.1852
 4279TIP3   OH234327   3.063   1.770   2.434 -0.3260  0.8560 -0.0915
 4279TIP3    H134328   3.020   1.775   2.519  0.3232  0.1782  0.2913
 4279TIP3    H234329   3.133   1.835   2.439  0.2208  0.2530  0.2022
 4280TIP3   OH234330   6.644   5.329   1.898  0.6538 -0.1509 -0.4762
 4280TIP3    H134331   6.586   5.261   1.862 -0.1585 -0.0559  0.6348
 4280TIP3    H234332   6.718   5.330   1.838 -1.2022  0.8544 -2.8669
 4281TIP3   OH234333   1.280   0.714  14.176  0.8616  0.4462  0.5028
 4281TIP3    H134334   1.257   0.657  14.103  0.8899 -0.2302  1.0255
 4281TIP3    H234335   1.311   0.655  14.244  2.7214  1.2335  0.3591
 4282TIP3   OH234336   5.521   0.808  11.300  0.2171  0.1734  0.1781
 4282TIP3    H134337   5.601   0.790  11.350  0.8063  0.7174 -0.5453
 4282TIP3    H234338   5.452   0.760  11.345  1.1838 -1.2982  0.1124
 4283TIP3   OH234339   4.516   0.668  16.186  0.3148  0.2787 -0.3152
 4283TIP3    H134340   4.486   0.614  16.260  0.6931  0.1207 -0.2748
 4283TIP3    H234341   4.551   0.604  16.124  0.3836  0.4444 -0.4471
 4284TIP3   OH234342   2.293   6.586  15.139  0.8314 -0.1664 -0.2490
 4284TIP3    H134343   2.327   6.519  15.197 -0.6819 -0.6134  0.1405
 4284TIP3    H234344   2.236   6.639  15.194  1.1873  0.7989 -0.7988
 4285TIP3   OH234345   0.090   0.252   0.705 -0.3565 -0.0190 -0.4621
 4285TIP3    H134346   0.184   0.268   0.692 -0.7124  2.0831 -0.6668
 4285TIP3    H234347   0.073   0.280   0.794 -0.8223 -0.2556 -0.4763
 4286TIP3   OH234348   0.291   6.201   0.697 -0.2788 -0.2430  0.0736
 4286TIP3    H134349   0.264   6.237   0.781 -1.5659 -1.5001  0.2151
 4286TIP3    H234350   0.217   6.216   0.639  0.4258  0.2188 -0.7268
 4287TIP3   OH234351   1.215   0.045  11.263 -0.0855 -0.5524 -0.1551
 4287TIP3    H134352   1.134   0.012  11.223 -0.5839  0.6244 -0.1333
 4287TIP3    H234353   1.254   0.101  11.196  0.3647 -0.5876  0.0809
 4288TIP3   OH234354   2.657   5.479  13.134 -0.0267  0.0295 -0.3216
 4288TIP3    H134355   2.571   5.437  13.127  0.5260 -1.3409  0.6810
 4288TIP3    H234356   2.639   5.566  13.169 -1.1044  0.1901 -1.2505
 4289TIP3   OH234357   5.174   3.744   1.798  0.5815 -0.1273 -0.6170
 4289TIP3    H134358   5.110   3.678   1.822  1.6685 -1.6385 -1.7104
 4289TIP3    H234359   5.229   3.754   1.876 -0.6971  0.8703  0.1779
 4290TIP3   OH234360   0.231   0.582   2.546  0.3329  0.3724 -0.0422
 4290TIP3    H134361   0.267   0.493   2.551 -0.6524  0.0291  1.0605
 4290TIP3    H234362   0.136   0.570   2.544  0.2018  1.3944 -0.1502
 4291TIP3   OH234363   0.469   6.382   7.080 -0.1302 -0.9254  0.7113
 4291TIP3    H134364   0.451   6.289   7.075 -3.0864 -0.3974  0.4107
 4291TIP3    H234365   0.382   6.423   7.087  0.8138  1.9919 -2.6615
 4292TIP3   OH234366   5.125   6.092   2.262 -0.0724 -0.1499 -0.2368
 4292TIP3    H134367   5.199   6.122   2.315 -1.1057 -0.9344  1.7223
 4292TIP3    H234368   5.047   6.122   2.310 -1.0876 -3.4306  0.3141
 4293TIP3   OH234369   3.362   2.589   0.137 -0.4461  0.4641  0.2464
 4293TIP3    H134370   3.286   2.632   0.097 -0.7265 -0.9875 -0.8352
 4293TIP3    H234371   3.424   2.660   0.153 -0.7094  1.2248 -1.9480
 4294TIP3   OH234372   0.211   5.238   1.192  0.4498  0.4945 -0.3740
 4294TIP3    H134373   0.173   5.279   1.269 -0.5813 -0.3203 -0.4389
 4294TIP3    H234374   0.221   5.310   1.129  0.1387  0.9303  0.0739
 4295TIP3   OH234375   5.060   5.319   1.275  0.0169  0.0945 -0.2681
 4295TIP3    H134376   4.968   5.343   1.262 -0.4585 -2.0178 -1.0135
 4295TIP3    H234377   5.058   5.225   1.290  2.0560  0.0622 -0.0932
 4296TIP3   OH234378   1.933   6.569  14.219 -0.5832  0.1180  0.5648
 4296TIP3    H134379   1.878   6.506  14.174 -1.2039  1.6179 -0.8308
 4296TIP3    H234380   1.933   6.541  14.310  1.2436 -3.3642 -0.4224
 4297TIP3   OH234381   3.390   4.711   1.119 -0.0482  0.1468 -0.1090
 4297TIP3    H134382   3.353   4.725   1.207 -1.4283  3.4345 -1.1222
 4297TIP3    H234383   3.360   4.786   1.069  0.7030 -1.6950 -3.4472
 4298TIP3   OH234384   6.599   3.117  11.739 -0.0988  0.6436  0.6378
 4298TIP3    H134385   6.504   3.126  11.750 -0.7385 -2.4739 -1.8424
 4298TIP3    H234386   6.628   3.071  11.818 -0.7240  1.0718  1.1241
 4299TIP3   OH234387   0.609   1.347   0.779 -0.0867  0.2614 -0.4215
 4299TIP3    H134388   0.681   1.323   0.721  0.8602 -1.3375  1.3402
 4299TIP3    H234389   0.530   1.326   0.730  0.6445  1.4349 -2.1329
 4300TIP3   OH234390   5.464   0.700   4.191 -0.3915  0.2322  0.8342
 4300TIP3    H134391   5.429   0.756   4.261 -1.5690  0.8743 -0.2495
 4300TIP3    H234392   5.514   0.633   4.237  0.7008  1.9318  2.1774
 4301TIP3   OH234393   3.645   1.111   3.349  0.3241 -0.3042  0.6347
 4301TIP3    H134394   3.587   1.137   3.420 -0.9393 -0.4363 -0.3169
 4301TIP3    H234395   3.697   1.040   3.385 -0.8127 -0.8673  1.2114
 4302TIP3   OH234396   2.466   3.413  13.833  0.4573 -0.2014  0.1778
 4302TIP3    H134397   2.505   3.438  13.749 -0.5875 -0.1947 -0.3198
 4302TIP3    H234398   2.540   3.390  13.888  1.0903 -1.9380 -1.3171
 4303TIP3   OH234399   2.866   6.409  13.665  0.0132 -0.4036  0.1602
 4303TIP3    H134400   2.795   6.377  13.720  1.1930 -1.8443  0.8595
 4303TIP3    H234401   2.940   6.423  13.725  0.9429 -0.8324 -0.8579
 4304TIP3   OH234402   3.990   1.564   5.932  0.9126  0.1671  0.5274
 4304TIP3    H134403   3.932   1.640   5.931  1.1352  0.3291 -0.0737
 4304TIP3    H234404   4.021   1.555   5.842 -0.4548 -1.6729  0.1963
 4305TIP3   OH234405   5.139   5.981  11.438  0.4116 -1.0036  0.1756
 4305TIP3    H134406   5.207   5.989  11.506  0.4692 -0.6637  0.0777
 4305TIP3    H234407   5.186   5.995  11.356 -0.2741  2.1439  0.2583
 4306TIP3   OH234408   0.108   2.933   0.476  0.2263  0.2222 -0.2636
 4306TIP3    H134409   0.191   2.980   0.486  0.0577  0.5536 -0.4016
 4306TIP3    H234410   0.133   2.841   0.469  0.5777  0.3152 -0.2392
 4307TIP3   OH234411   3.699   2.264  11.288  0.2219  0.2078  0.2320
 4307TIP3    H134412   3.697   2.303  11.375  0.8165 -1.6159  1.0957
 4307TIP3    H234413   3.616   2.216  11.281  0.2991  0.1151 -0.0962
 4308TIP3   OH234414   2.967   4.592  15.717  0.1165 -0.4937 -0.5883
 4308TIP3    H134415   2.926   4.506  15.720 -0.3131 -0.2539  0.7967
 4308TIP3    H234416   2.985   4.614  15.809 -0.0410  1.0022 -0.8929
 4309TIP3   OH234417   4.376   4.391   4.886 -0.7070 -0.1859  0.3791
 4309TIP3    H134418   4.311   4.358   4.947  0.7180  1.0748  2.6436
 4309TIP3    H234419   4.442   4.322   4.880 -0.2559  0.1637  1.2096
 4310TIP3   OH234420   3.555   4.442   4.915  0.2819  0.4293  0.5338
 4310TIP3    H134421   3.502   4.373   4.875  1.8393 -0.4821 -0.0189
 4310TIP3    H234422   3.545   4.429   5.009  0.0726 -0.1636  0.4324
 4311TIP3   OH234423   0.929   5.760  11.384  0.2156  0.1314 -0.3316
 4311TIP3    H134424   0.874   5.689  11.350  1.2435 -2.2885  2.8010
 4311TIP3    H234425   1.017   5.739  11.353  0.4225  0.3730  0.0926
 4312TIP3   OH234426   3.076   1.579   3.962 -0.1281 -0.2847  0.2529
 4312TIP3    H134427   3.010   1.518   3.996 -0.6898  0.6273  0.8306
 4312TIP3    H234428   3.159   1.549   3.999  0.1527 -2.8450 -2.3400
 4313TIP3   OH234429   0.992   5.127  15.281 -0.1383 -0.2460 -0.0614
 4313TIP3    H134430   1.026   5.215  15.263  3.0649 -1.6876 -1.5136
 4313TIP3    H234431   0.937   5.107  15.205 -0.8673  0.4713  0.2667
 4314TIP3   OH234432   5.644   5.185  12.172  0.1652 -0.0044  0.1467
 4314TIP3    H134433   5.653   5.126  12.247  0.4519  1.4514  1.2955
 4314TIP3    H234434   5.552   5.177  12.146 -0.0827 -0.1329  1.0204
 4315TIP3   OH234435   6.164   1.221   0.067  0.2625 -0.1243 -0.1875
 4315TIP3    H134436   6.201   1.169  -0.004  0.8708 -0.6296  0.4998
 4315TIP3    H234437   6.178   1.312   0.040 -1.4383 -0.2876 -1.7226
 4316TIP3   OH234438   4.583   2.322  12.546  0.2486  0.5986 -0.2234
 4316TIP3    H134439   4.615   2.381  12.615 -0.0641 -1.3667  1.6340
 4316TIP3    H234440   4.612   2.235  12.573 -1.6558 -0.4701 -1.5135
 4317TIP3   OH234441   0.838   2.178  13.091 -0.0450  0.5054 -0.1926
 4317TIP3    H134442   0.916   2.189  13.036  0.5658 -0.1544  0.5162
 4317TIP3    H234443   0.770   2.149  13.030  0.1896  1.3436 -0.8633
 4318TIP3   OH234444   5.562   0.188  11.117  0.3888  0.2602 -0.0158
 4318TIP3    H134445   5.479   0.196  11.070 -0.3241  1.1203  1.3729
 4318TIP3    H234446   5.628   0.217  11.054 -0.4221  0.1770 -0.9146
 4319TIP3   OH234447   0.145   0.414  15.431 -0.0341 -0.2511 -0.3603
 4319TIP3    H134448   0.133   0.324  15.400 -1.3824  0.3209 -1.5642
 4319TIP3    H234449   0.224   0.444  15.387  0.1540 -0.6850 -0.3227
 4320TIP3   OH234450   6.798   3.217   4.121  0.2138  0.2218  0.3345
 4320TIP3    H134451   6.794   3.300   4.169 -0.0194 -0.0329  0.7611
 4320TIP3    H234452   6.805   3.242   4.029 -0.3268  0.7210  0.4238
 4321TIP3   OH234453   6.006   4.587   2.576  0.0024  0.3332  0.3185
 4321TIP3    H134454   6.088   4.620   2.539  0.7949 -0.6694  1.1655
 4321TIP3    H234455   5.941   4.601   2.506  0.6364  2.1824  0.0678
 4322TIP3   OH234456   2.605   5.994  16.470 -0.6643  0.1943  0.4347
 4322TIP3    H134457   2.617   5.899  16.465  0.9257  0.4269 -0.2290
 4322TIP3    H234458   2.602   6.022  16.379 -2.7992  0.6041  0.5931
 4323TIP3   OH234459   2.100   6.264   6.813  0.4242  0.2745  0.1487
 4323TIP3    H134460   2.086   6.170   6.816  1.1682  0.2045  1.3044
 4323TIP3    H234461   2.176   6.276   6.757 -0.1789  0.2557 -0.6958
 4324TIP3   OH234462   6.229   3.927  11.717 -0.3633  0.8393  0.1765
 4324TIP3    H134463   6.144   3.956  11.750 -1.0369  0.5696 -1.2539
 4324TIP3    H234464   6.216   3.835  11.696  0.9926  0.1672  2.1899
 4325TIP3   OH234465   0.528   0.418  14.862  0.3307 -0.5496 -1.0413
 4325TIP3    H134466   0.547   0.467  14.943 -0.2934 -0.2864 -1.0452
 4325TIP3    H234467   0.446   0.373  14.881 -1.2708  1.6470 -2.4321
 4326TIP3   OH234468   6.254   1.708  17.005  0.0410  0.6300 -0.3131
 4326TIP3    H134469   6.335   1.754  16.984 -0.6852  1.9027 -0.3922
 4326TIP3    H234470   6.209   1.700  16.921  0.2111 -0.3318 -0.3142
 4327TIP3   OH234471   4.496   2.812   2.017 -0.9961  0.2831 -0.0444
 4327TIP3    H134472   4.572   2.854   1.975 -0.8582  2.4502  2.2619
 4327TIP3    H234473   4.522   2.720   2.026  0.7258  0.6736 -0.7517
 4328TIP3   OH234474   5.588   0.609   2.258 -0.2334  0.6035 -0.4567
 4328TIP3    H134475   5.616   0.520   2.234 -0.6006  0.1184  0.8875
 4328TIP3    H234476   5.498   0.599   2.289 -0.2406  1.4315 -0.1970
 4329TIP3   OH234477   1.811   4.333  14.246 -0.5263  0.7029 -0.2375
 4329TIP3    H134478   1.793   4.331  14.340 -1.3982  0.6419 -0.4048
 4329TIP3    H234479   1.741   4.282  14.207  0.8867 -0.8779 -0.7641
 4330TIP3   OH234480   0.947   1.759  10.804 -0.2792 -0.4730  0.8657
 4330TIP3    H134481   0.990   1.749  10.719  0.0805  1.2830  0.8167
 4330TIP3    H234482   0.864   1.803  10.783 -0.5111 -0.6826  1.3400
 4331TIP3   OH234483   1.716   1.150  11.480 -0.1621  0.1427  0.0699
 4331TIP3    H134484   1.693   1.224  11.424  0.1491 -0.6162 -1.0862
 4331TIP3    H234485   1.718   1.075  11.421  0.5597 -0.6143  1.0297
 4332TIP3   OH234486   6.191   1.432  16.033 -0.0231  0.1710  0.2205
 4332TIP3    H134487   6.228   1.348  16.060  0.7492  0.2608 -0.5529
 4332TIP3    H234488   6.106   1.409  15.995  0.6442 -0.3952 -0.9825
 4333TIP3   OH234489   6.279   5.851  13.576 -1.0575 -0.4323  0.1254
 4333TIP3    H134490   6.185   5.855  13.556 -1.1009  2.7363  0.7299
 4333TIP3    H234491   6.321   5.899  13.505 -0.3403  2.0729  2.1461
 4334TIP3   OH234492   0.149   3.122   4.532 -0.1649  0.2027  0.6399
 4334TIP3    H134493   0.055   3.118   4.548 -0.2810 -0.0013 -0.0385
 4334TIP3    H234494   0.187   3.060   4.594 -0.5918 -0.5467  0.1728
 4335TIP3   OH234495   0.046   4.730  12.598  0.6511 -0.1135 -0.2417
 4335TIP3    H134496   0.135   4.753  12.627  0.0354 -0.6166  2.2181
 4335TIP3    H234497   0.038   4.637  12.620 -0.7722  0.1370  0.3542
 4336TIP3   OH234498   0.578   3.033  12.441  0.2202  0.1282  0.6083
 4336TIP3    H134499   0.613   3.114  12.405  0.0459 -0.5126 -1.0265
 4336TIP3    H234500   0.486   3.033  12.415 -0.1217  0.0491  1.7677
 4337TIP3   OH234501   6.391   5.835   4.513  0.5490  0.2545 -0.4848
 4337TIP3    H134502   6.341   5.916   4.521  2.8457  1.8306 -1.5950
 4337TIP3    H234503   6.325   5.768   4.497 -1.3678  1.9561  0.0637
 4338TIP3   OH234504   5.472   0.521  15.031 -0.0845 -0.1971  0.0904
 4338TIP3    H134505   5.471   0.428  15.054  0.2821 -0.3017 -0.3263
 4338TIP3    H234506   5.440   0.524  14.941  0.2118  0.0522 -0.0075
 4339TIP3   OH234507   1.104   1.936   4.511  0.0948  0.1155 -0.6748
 4339TIP3    H134508   1.105   1.843   4.532  1.2345  0.2380 -0.1644
 4339TIP3    H234509   1.041   1.944   4.439  0.8665 -1.2213 -1.5197
 4340TIP3   OH234510   0.855   4.933  14.099  0.0808  0.2527  0.3354
 4340TIP3    H134511   0.858   5.022  14.134  0.5524  0.1847  0.4779
 4340TIP3    H234512   0.787   4.936  14.032  1.1141  1.1068 -0.7051
 4341TIP3   OH234513   5.281   3.807   4.381  0.3828  0.2625 -0.4475
 4341TIP3    H134514   5.327   3.727   4.403  1.3516  0.8041 -0.4872
 4341TIP3    H234515   5.345   3.861   4.334 -1.3144 -0.4408 -3.7558
 4342TIP3   OH234516   1.193   3.380  12.134  0.1794  0.0658 -0.0251
 4342TIP3    H134517   1.169   3.468  12.163 -0.0918  0.4345 -1.3064
 4342TIP3    H234518   1.195   3.387  12.038  0.6099 -1.2075 -0.1141
 4343TIP3   OH234519   3.551   5.636   0.914 -0.0125  0.3958 -0.1455
 4343TIP3    H134520   3.503   5.612   0.835 -0.6624  1.1953 -0.0025
 4343TIP3    H234521   3.582   5.553   0.950 -0.0825 -0.0082 -1.0034
 4344TIP3   OH234522   3.217   1.196  15.730  0.0630 -0.7334 -0.3122
 4344TIP3    H134523   3.252   1.265  15.673  0.7229 -1.1427 -0.3951
 4344TIP3    H234524   3.252   1.115  15.694 -0.8506 -1.1383 -0.3172
 4345TIP3   OH234525   1.969   5.750  13.754  0.4413 -0.1213  0.5465
 4345TIP3    H134526   2.014   5.783  13.832  1.3033 -0.7779  0.3344
 4345TIP3    H234527   2.028   5.683  13.719 -0.1238 -0.1016 -0.4499
 4346TIP3   OH234528   1.454   5.923   0.182  0.0391  0.4650  0.1999
 4346TIP3    H134529   1.429   6.001   0.233  0.7101  0.5137  0.4514
 4346TIP3    H234530   1.518   5.878   0.237  0.5208  0.3413 -0.4682
 4347TIP3   OH234531   5.920   5.637   3.223  0.0597 -0.2182 -0.4272
 4347TIP3    H134532   5.945   5.570   3.159  1.5087 -0.3297  0.2370
 4347TIP3    H234533   5.992   5.700   3.220 -0.4489  0.3916  0.2350
 4348TIP3   OH234534   1.184   3.685  14.160 -0.2186 -0.5125 -0.4893
 4348TIP3    H134535   1.146   3.668  14.074  0.0996  0.4377 -0.8224
 4348TIP3    H234536   1.275   3.656  14.153 -0.6705 -2.1550  0.1039
 4349TIP3   OH234537   4.344   6.264   2.327 -0.1875  0.0851 -0.4118
 4349TIP3    H134538   4.281   6.268   2.399 -0.1451  0.9629 -0.4171
 4349TIP3    H234539   4.323   6.183   2.280 -0.5803 -0.1958  0.2473
 4350TIP3   OH234540   0.436   5.917  12.922 -0.4454  0.2495  0.4878
 4350TIP3    H134541   0.504   5.979  12.946 -0.3104  0.1571  0.3475
 4350TIP3    H234542   0.370   5.969  12.876  0.7113 -0.0809 -1.6205
 4351TIP3   OH234543   5.579   0.483   5.134 -0.6857 -0.3583 -0.3820
 4351TIP3    H134544   5.668   0.514   5.150 -1.6961  2.4805 -0.0269
 4351TIP3    H234545   5.566   0.413   5.199  1.1659 -0.5678 -0.2203
 4352TIP3   OH234546   3.915   0.473  15.254  0.3211  0.3694  0.5068
 4352TIP3    H134547   3.945   0.404  15.195  2.1788 -0.1691  2.0253
 4352TIP3    H234548   3.936   0.555  15.208  1.5156 -0.0438  0.2975
 4353TIP3   OH234549   4.324   0.610   1.854 -0.6930 -0.1805  0.0519
 4353TIP3    H134550   4.261   0.644   1.790 -1.8585  1.0051  1.7839
 4353TIP3    H234551   4.276   0.542   1.901 -0.0768 -0.5441  0.1551
 4354TIP3   OH234552   0.315   4.749  15.916 -0.1489 -0.0128 -0.1047
 4354TIP3    H134553   0.260   4.733  15.992  0.0642  0.2997  0.1164
 4354TIP3    H234554   0.391   4.797  15.950  0.1019 -0.1494 -0.4583
 4355TIP3   OH234555   3.950   0.267   3.738  0.2323 -0.1728 -0.2387
 4355TIP3    H134556   3.991   0.352   3.722 -1.6948  0.3704 -2.6560
 4355TIP3    H234557   3.957   0.221   3.655 -1.3551 -1.2083  0.1720
 4356TIP3   OH234558   3.205   4.021   1.566  0.2606 -0.2585  0.2569
 4356TIP3    H134559   3.261   3.994   1.494 -0.4722 -1.3901  0.0938
 4356TIP3    H234560   3.118   4.028   1.527  0.3760  2.0658  0.3658
 4357TIP3   OH234561   4.056   2.239  15.384  0.2267  0.0049 -1.0900
 4357TIP3    H134562   4.007   2.203  15.310 -1.3548  2.2778 -1.1890
 4357TIP3    H234563   3.994   2.297  15.428  1.3743 -0.7730  1.6282
 4358TIP3   OH234564   5.310   3.293   5.114 -0.0972 -0.5628  0.0962
 4358TIP3    H134565   5.318   3.254   5.027  0.1565 -1.0901  0.3533
 4358TIP3    H234566   5.305   3.218   5.173  0.7180 -0.2082  0.6291
 4359TIP3   OH234567   2.706   1.077   0.981  0.1388 -0.3117 -0.1488
 4359TIP3    H134568   2.712   1.086   0.886  0.4627 -0.2259 -0.1221
 4359TIP3    H234569   2.650   1.000   0.994 -1.3548  0.7308 -0.3849
 4360TIP3   OH234570   3.980   5.746  16.904 -0.0499 -0.1783  0.1448
 4360TIP3    H134571   4.035   5.802  16.849 -2.1098  0.9047 -0.8688
 4360TIP3    H234572   3.949   5.805  16.973 -0.3412 -0.6577  0.4235
 4361TIP3   OH234573   6.435   3.993  16.719 -0.5675  0.9163 -0.2388
 4361TIP3    H134574   6.460   3.920  16.775  0.3512  1.4894  0.1002
 4361TIP3    H234575   6.505   3.998  16.653  0.2123  2.4895  0.6855
 4362TIP3   OH234576   2.963   4.967   4.595 -0.4588 -0.3354  0.2003
 4362TIP3    H134577   3.038   4.986   4.651 -0.0340 -0.2173 -0.4017
 4362TIP3    H234578   2.937   5.052   4.559 -2.0022 -0.1128  1.7916
 4363TIP3   OH234579   5.778   1.273   1.305 -0.4358 -0.0812 -0.0202
 4363TIP3    H134580   5.732   1.211   1.361 -0.4492  0.4955  0.6088
 4363TIP3    H234581   5.713   1.339   1.283 -0.3587 -0.1624 -0.5031
 4364TIP3   OH234582   0.390   5.858  17.182 -0.4108  0.1838 -0.2004
 4364TIP3    H134583   0.391   5.852  17.277 -0.9313  0.2058 -0.1928
 4364TIP3    H234584   0.315   5.806  17.154 -1.7505  2.1875 -0.4434
 4365TIP3   OH234585   3.799   1.921  12.510  0.4243  0.8834  0.2351
 4365TIP3    H134586   3.858   1.853  12.545  0.5462  1.3341  0.9103
 4365TIP3    H234587   3.715   1.903  12.552 -0.2941 -0.5791 -1.7325
 4366TIP3   OH234588   3.345   4.509  17.083 -0.0571  0.4200  0.1915
 4366TIP3    H134589   3.418   4.536  17.140  0.3837 -0.3857  0.0158
 4366TIP3    H234590   3.276   4.483  17.143 -0.4929  1.9351  0.3691
 4367TIP3   OH234591   3.921   5.912   2.592  0.2954 -0.3175 -0.4017
 4367TIP3    H134592   3.891   5.988   2.643  1.6024 -0.3897  0.5149
 4367TIP3    H234593   3.851   5.896   2.529 -0.9620  0.3535  0.7783
 4368TIP3   OH234594   1.470   1.773   5.428 -0.2454 -0.5582 -0.2632
 4368TIP3    H134595   1.452   1.855   5.382  0.7229  0.8057  1.7762
 4368TIP3    H234596   1.384   1.741   5.454 -0.4969  0.7609  0.5589
 4369TIP3   OH234597   1.342   3.779   1.647  0.1755  0.0905 -0.0388
 4369TIP3    H134598   1.354   3.873   1.633 -0.8375  0.0969 -1.0013
 4369TIP3    H234599   1.289   3.751   1.572  0.4078 -1.2337  0.2821
 4370TIP3   OH234600   1.868   2.335  13.144 -0.3552 -0.2018  0.0667
 4370TIP3    H134601   1.943   2.386  13.175 -1.7250  1.7043  0.3247
 4370TIP3    H234602   1.895   2.304  13.057  0.4378  1.1068 -0.1592
 4371TIP3   OH234603   2.455   6.681   2.206 -0.8253  0.3597  0.1541
 4371TIP3    H134604   2.398   6.750   2.173 -2.8201 -1.8917 -1.2487
 4371TIP3    H234605   2.415   6.654   2.289  1.4767  2.6922  2.0957
 4372TIP3   OH234606   2.741   1.328   0.546 -0.0402 -0.5476  0.1360
 4372TIP3    H134607   2.695   1.410   0.527  0.2410 -0.7575 -1.5689
 4372TIP3    H234608   2.796   1.314   0.469  2.3969 -0.6509  1.8710
 4373TIP3   OH234609   5.108   1.198   3.695 -0.1889 -0.6617 -0.1180
 4373TIP3    H134610   5.161   1.251   3.635  1.8128 -0.7527  1.5077
 4373TIP3    H234611   5.077   1.125   3.642  0.1512  0.1554 -1.4585
 4374TIP3   OH234612   6.375   2.813  12.076 -0.1712  0.3047  0.3112
 4374TIP3    H134613   6.407   2.731  12.114  0.9462 -0.1220 -1.5030
 4374TIP3    H234614   6.345   2.789  11.988  0.8192  1.9687 -0.4984
 4375TIP3   OH234615   1.061   0.585  15.339  0.1591  0.4682 -0.4142
 4375TIP3    H134616   0.973   0.619  15.325 -0.3696 -0.1548  1.3678
 4375TIP3    H234617   1.112   0.620  15.266 -1.1757  2.2504 -0.5119
 4376TIP3   OH234618   6.698   6.447   3.864  0.0981  0.0541 -0.0435
 4376TIP3    H134619   6.609   6.459   3.895 -0.0507  0.5305 -0.6553
 4376TIP3    H234620   6.704   6.354   3.844 -0.3765  0.0977 -0.3764
 4377TIP3   OH234621   1.480   1.538   1.077 -0.2395  0.0352  0.9201
 4377TIP3    H134622   1.495   1.574   0.990 -0.8030 -0.7528  0.4961
 4377TIP3    H234623   1.494   1.613   1.136  1.8388  0.1664  0.3038
 4378TIP3   OH234624   4.875   2.329   2.115 -0.0384  0.2510 -0.4126
 4378TIP3    H134625   4.800   2.271   2.102 -2.0645  2.5588  0.4896
 4378TIP3    H234626   4.916   2.334   2.029 -0.7866 -1.2169 -0.8785
 4379TIP3   OH234627   6.663   6.241   5.589 -0.2637 -0.1231  0.3732
 4379TIP3    H134628   6.671   6.146   5.587 -1.5290 -0.2297  0.0798
 4379TIP3    H234629   6.601   6.259   5.660  1.4298  0.5935  1.7002
 4380TIP3   OH234630   3.848   6.547  11.999  0.0774  0.2547  0.1770
 4380TIP3    H134631   3.888   6.603  11.932  0.7129 -1.1888 -0.6878
 4380TIP3    H234632   3.805   6.477  11.949  0.5625 -0.8493  1.2735
 4381TIP3   OH234633   5.066   5.391   4.821 -0.4763 -0.7925  0.0607
 4381TIP3    H134634   5.044   5.454   4.890 -0.7958  0.4061 -1.1160
 4381TIP3    H234635   4.993   5.396   4.760  0.7221 -0.4107 -1.3634
 4382TIP3   OH234636   4.862   6.758  14.387  0.4283 -0.0455 -0.2250
 4382TIP3    H134637   4.817   6.798  14.461  1.3427  0.0166  0.3052
 4382TIP3    H234638   4.873   6.666  14.413  0.2083 -0.1629 -0.5446
 4383TIP3   OH234639   4.129   6.724  15.802  0.0266  0.3273 -0.1405
 4383TIP3    H134640   4.224   6.729  15.816  0.1359 -1.2210 -0.2795
 4383TIP3    H234641   4.104   6.638  15.835 -1.4122  0.8893  0.2880
 4384TIP3   OH234642   4.905   1.498  17.242 -0.4731  0.5128 -0.4097
 4384TIP3    H134643   4.908   1.407  17.213 -0.6342  0.6884 -0.9726
 4384TIP3    H234644   4.889   1.549  17.163 -0.0500  1.0620 -0.1490
 4385TIP3   OH234645   5.617   2.467  11.967 -0.7883 -0.5480  0.0723
 4385TIP3    H134646   5.619   2.530  12.038 -3.1009 -0.3490  0.0012
 4385TIP3    H234647   5.699   2.418  11.976  1.0614  2.3966  0.1384
 4386TIP3   OH234648   2.614   1.530   2.445  0.1049 -0.2562  0.2608
 4386TIP3    H134649   2.683   1.490   2.499  0.5543  0.6722  0.4006
 4386TIP3    H234650   2.662   1.586   2.384 -0.4360 -0.9231 -0.7887
 4387TIP3   OH234651   6.817   1.478  16.067  0.2083 -0.3293  0.0169
 4387TIP3    H134652   6.816   1.409  16.133 -2.7667  0.4815  0.9068
 4387TIP3    H234653   6.849   1.555  16.114  1.6496 -0.6075 -0.4789
 4388TIP3   OH234654   0.792   0.877  12.102 -0.2757 -0.0902 -0.2661
 4388TIP3    H134655   0.756   0.955  12.059 -1.8823 -0.9938 -0.5734
 4388TIP3    H234656   0.876   0.862  12.058  0.6971  2.2287  0.6821
 4389TIP3   OH234657   2.655   3.599   3.212 -0.1935 -0.1324  0.3377
 4389TIP3    H134658   2.741   3.559   3.200 -0.0864  0.6794 -1.7798
 4389TIP3    H234659   2.637   3.643   3.129 -2.1916  0.6001  1.1280
 4390TIP3   OH234660   3.392   3.491   4.012 -0.0636  0.4887 -0.3025
 4390TIP3    H134661   3.428   3.577   3.991 -0.9085  0.7181 -0.8148
 4390TIP3    H234662   3.381   3.493   4.107 -0.0254  0.9217 -0.3056
 4391TIP3   OH234663   4.186   2.258  11.895  0.4801  0.3897 -0.5179
 4391TIP3    H134664   4.251   2.218  11.837  1.0303 -0.3252  0.5731
 4391TIP3    H234665   4.187   2.203  11.973 -0.5500  1.1044  0.0038
 4392TIP3   OH234666   4.598   5.082  11.734 -0.2457  0.5355 -0.1604
 4392TIP3    H134667   4.526   5.116  11.680  0.2614  2.4407  0.3436
 4392TIP3    H234668   4.564   4.999  11.769 -1.3018  0.2347 -1.8243
 4393TIP3   OH234669   5.785   4.723   5.587  0.9332  0.1234 -0.0452
 4393TIP3    H134670   5.757   4.634   5.611  1.2177 -0.2629 -1.0974
 4393TIP3    H234671   5.792   4.769   5.670  0.7849 -0.8487  0.5188
 4394TIP3   OH234672   2.065   6.440  13.579 -0.0746 -0.5589 -0.2391
 4394TIP3    H134673   2.035   6.475  13.662 -0.1999 -2.7348  0.6750
 4394TIP3    H234674   2.160   6.455  13.579 -0.2604  0.6182 -0.2969
 4395TIP3   OH234675   1.141   1.215  13.896 -0.7635  0.4525 -1.0240
 4395TIP3    H134676   1.100   1.243  13.977 -0.5621 -0.3844 -0.6297
 4395TIP3    H234677   1.204   1.285  13.875 -0.5574  0.4960 -0.2710
 4396TIP3   OH234678   1.970   4.850   4.519 -0.4749 -0.3451  0.2887
 4396TIP3    H134679   1.971   4.765   4.474 -1.4317 -1.0925  1.6225
 4396TIP3    H234680   1.878   4.863   4.542  0.0599 -0.2107  2.4029
 4397TIP3   OH234681   0.333   0.233   1.684 -0.1109  0.3719  0.5547
 4397TIP3    H134682   0.369   0.321   1.696 -0.5186  0.7830 -1.0766
 4397TIP3    H234683   0.253   0.247   1.634 -0.1194 -0.9438  0.1950
 4398TIP3   OH234684   5.725   4.038  14.818  0.1701 -0.2955 -0.4566
 4398TIP3    H134685   5.672   4.117  14.807 -0.2272 -0.6863 -1.3690
 4398TIP3    H234686   5.806   4.069  14.859 -0.1898  0.5061 -0.3452
 4399TIP3   OH234687   2.947   6.698   6.198 -0.2621  0.2199 -0.2346
 4399TIP3    H134688   3.033   6.709   6.240  0.4761 -0.6303 -1.4923
 4399TIP3    H234689   2.896   6.647   6.261  0.0708  0.9179  0.6144
 4400TIP3   OH234690   1.622   0.013   2.815  0.5238  0.3361 -0.0775
 4400TIP3    H134691   1.657   0.090   2.771 -1.9506  1.8420  0.4769
 4400TIP3    H234692   1.528   0.030   2.822 -0.0297 -2.6055  0.3408
 4401TIP3   OH234693   0.775   3.630   6.328  0.1020  0.1894  0.1449
 4401TIP3    H134694   0.767   3.568   6.256 -3.6415  0.3125  0.3438
 4401TIP3    H234695   0.819   3.706   6.289  0.1063 -0.6040 -1.4514
 4402TIP3   OH234696   1.414   5.904  13.442  0.3755  0.0532  0.2096
 4402TIP3    H134697   1.370   5.871  13.364  1.4092 -0.6728 -0.0765
 4402TIP3    H234698   1.366   5.983  13.466 -1.5040 -1.1111  0.3199
 4403TIP3   OH234699   0.050   2.388  12.583 -0.4073 -0.0544 -0.0115
 4403TIP3    H134700   0.140   2.418  12.574 -0.1642 -0.9367 -0.5960
 4403TIP3    H234701  -0.000   2.442  12.522 -0.3372  0.6649  0.5548
 4404TIP3   OH234702   3.231   2.859   0.301  0.3376  0.0655  0.1949
 4404TIP3    H134703   3.322   2.874   0.328  0.4300  0.7465 -0.4858
 4404TIP3    H234704   3.182   2.857   0.383  0.8876  0.2215  0.5332
 4405TIP3   OH234705   0.863   6.201  15.051 -0.1994 -0.3644  0.6633
 4405TIP3    H134706   0.889   6.135  14.987  1.6484 -0.9420  1.9687
 4405TIP3    H234707   0.945   6.230  15.090 -1.1328  1.4913  1.2990
 4406TIP3   OH234708   5.327   5.397   4.291 -0.0037 -0.2460  0.3355
 4406TIP3    H134709   5.249   5.450   4.278 -0.1505 -0.6163 -0.3537
 4406TIP3    H234710   5.367   5.391   4.204 -0.4595 -1.9612  0.2137
 4407TIP3   OH234711   0.794   3.549  16.875  0.0006  0.4226  0.8308
 4407TIP3    H134712   0.863   3.528  16.939  0.0209  1.1414  1.0503
 4407TIP3    H234713   0.726   3.591  16.927 -0.6459 -0.3694  0.6225
 4408TIP3   OH234714   5.057   2.707  11.956 -0.4426 -0.0773  0.0411
 4408TIP3    H134715   5.142   2.739  11.924 -1.0116  2.0513  0.5991
 4408TIP3    H234716   5.044   2.624  11.911  2.2729 -0.7875  0.4683
 4409TIP3   OH234717   4.496   6.265  14.141 -0.1196  0.2997 -0.0505
 4409TIP3    H134718   4.506   6.172  14.161  0.4936  0.2969 -0.3548
 4409TIP3    H234719   4.402   6.276  14.124 -0.5043  0.1042  1.8109
 4410TIP3   OH234720   6.045   3.905  13.580 -0.3617 -0.1563 -0.4598
 4410TIP3    H134721   6.031   3.994  13.550 -0.4989  0.4691  1.4071
 4410TIP3    H234722   6.089   3.861  13.507  0.4134  1.6313 -1.0821
 4411TIP3   OH234723   4.427   0.090  13.367 -0.3110  0.3226 -0.3789
 4411TIP3    H134724   4.446   0.154  13.436  0.0720 -2.2990  2.0683
 4411TIP3    H234725   4.492   0.107  13.299  0.7559  1.5232  0.9125
 4412TIP3   OH234726   4.390   3.880   5.311  0.0292  0.4025 -0.1183
 4412TIP3    H134727   4.440   3.881   5.392  1.3057  4.0671 -0.8776
 4412TIP3    H234728   4.434   3.943   5.254 -1.4732 -1.2750 -3.2943
 4413TIP3   OH234729   4.720   3.700   3.986  0.5861 -0.0261 -0.0048
 4413TIP3    H134730   4.814   3.704   3.971  0.6701 -0.3129  0.4320
 4413TIP3    H234731   4.708   3.731   4.076  0.2430  0.1856 -0.1187
 4414TIP3   OH234732   1.026   0.699  13.652  0.0726 -0.3693  0.0299
 4414TIP3    H134733   1.079   0.716  13.575 -0.1403  1.1711  0.2016
 4414TIP3    H234734   0.953   0.760  13.646 -0.3677 -0.7658  1.0522
 4415TIP3   OH234735   4.871   4.341  12.403  0.2118 -0.3501 -0.2305
 4415TIP3    H134736   4.801   4.391  12.445  0.4527 -0.1043 -0.1207
 4415TIP3    H234737   4.828   4.260  12.374 -0.6956  0.8003 -2.2882
 4416TIP3   OH234738   0.531   4.587  16.593  0.1415  0.1164  0.2641
 4416TIP3    H134739   0.438   4.565  16.606  0.4425 -1.0110  0.5191
 4416TIP3    H234740   0.573   4.503  16.577  0.7797  0.8564 -1.9835
 4417TIP3   OH234741   3.945   0.167  11.496  0.2850  0.0082  0.5498
 4417TIP3    H134742   3.861   0.158  11.540 -0.6513 -0.2082 -1.2628
 4417TIP3    H234743   3.988   0.239  11.542 -2.1163  2.1233 -0.3910
 4418TIP3   OH234744   5.647   3.140   5.614 -0.1281  0.3112  0.2874
 4418TIP3    H134745   5.610   3.073   5.557  0.4791 -0.5595  0.8927
 4418TIP3    H234746   5.614   3.119   5.701  1.0377  0.0668  0.6804
 4419TIP3   OH234747   6.261   2.711   4.787 -0.5450  0.2791  0.2634
 4419TIP3    H134748   6.233   2.730   4.877  0.9726  0.0477  0.7945
 4419TIP3    H234749   6.182   2.677   4.745 -1.5221  1.2888  1.2273
 4420TIP3   OH234750   1.729   1.474   1.741  0.2677  0.0617 -0.4572
 4420TIP3    H134751   1.656   1.535   1.750  1.4849  1.3030  1.4063
 4420TIP3    H234752   1.703   1.415   1.670 -1.6070  1.7795 -1.2335
 4421TIP3   OH234753   6.745   2.271  11.454 -0.1927 -0.0850 -0.1594
 4421TIP3    H134754   6.807   2.313  11.515  0.8864 -0.1441 -1.1964
 4421TIP3    H234755   6.769   2.305  11.368 -0.1625 -1.7924 -0.8533
 4422TIP3   OH234756   2.615   1.682  14.260  0.7208  0.1778  0.2425
 4422TIP3    H134757   2.639   1.738  14.335 -0.5926  1.4422 -0.2551
 4422TIP3    H234758   2.530   1.715  14.232  1.4161  0.0276 -2.1380
 4423TIP3   OH234759   1.370   4.767   0.331  0.4889  0.1624 -0.9190
 4423TIP3    H134760   1.417   4.769   0.248  0.4454 -1.4523 -0.9961
 4423TIP3    H234761   1.395   4.684   0.371 -0.8611  0.1260 -0.1285
 4424TIP3   OH234762   4.177   0.721   6.466  0.3359 -0.2416  0.8367
 4424TIP3    H134763   4.128   0.648   6.505  0.5086 -1.1915 -0.6752
 4424TIP3    H234764   4.254   0.681   6.427  0.1353  0.6538 -0.5383
 4425TIP3   OH234765   0.527   4.471  17.010 -0.3413 -0.4715  0.5849
 4425TIP3    H134766   0.522   4.379  17.035  3.6236 -0.0782  3.2420
 4425TIP3    H234767   0.608   4.479  16.959  0.1010  1.7728  1.5636
 4426TIP3   OH234768   3.409   3.729   1.134 -0.5416  0.6390  0.0246
 4426TIP3    H134769   3.432   3.805   1.081 -2.6412  2.8506  2.1612
 4426TIP3    H234770   3.480   3.721   1.198  0.8459 -0.6826 -1.5936
 4427TIP3   OH234771   6.667   4.376  16.342 -0.4781 -0.5772 -0.5956
 4427TIP3    H134772   6.657   4.470  16.328 -1.1968 -0.3828  1.0229
 4427TIP3    H234773   6.761   4.363  16.356  0.0480 -0.5743 -3.7915
 4428TIP3   OH234774   6.182   3.542  12.874 -0.3629  0.3961 -0.3449
 4428TIP3    H134775   6.173   3.448  12.864 -0.7129  0.3461  0.4089
 4428TIP3    H234776   6.148   3.561  12.962 -0.1067  1.1935 -0.4074
 4429TIP3   OH234777   0.169   0.924   6.007 -0.6665 -0.1196 -0.0829
 4429TIP3    H134778   0.187   0.836   6.039 -0.3559  0.3269  1.0087
 4429TIP3    H234779   0.152   0.975   6.087  0.4188  1.0815 -0.6039
 4430TIP3   OH234780   0.845   3.381  13.429 -0.2825 -0.1502  0.8055
 4430TIP3    H134781   0.897   3.423  13.497  0.5602  1.1444 -0.6200
 4430TIP3    H234782   0.798   3.453  13.386  0.0525 -0.8112 -0.7047
 4431TIP3   OH234783   2.069   3.486   1.352 -0.3491 -0.1944 -0.3602
 4431TIP3    H134784   2.077   3.551   1.282 -0.0050 -1.1020 -1.1757
 4431TIP3    H234785   2.159   3.471   1.380 -0.3801 -0.6924 -0.5248
 4432TIP3   OH234786   6.384   1.650  14.110 -0.0651 -0.4081 -0.5776
 4432TIP3    H134787   6.391   1.595  14.188  1.6645  0.8254  0.1479
 4432TIP3    H234788   6.299   1.626  14.072 -0.0930 -2.3493  0.6458
 4433TIP3   OH234789   4.312   4.696  14.723 -0.0377 -0.0625  0.1047
 4433TIP3    H134790   4.231   4.737  14.694  0.8032  1.3044 -0.4207
 4433TIP3    H234791   4.342   4.647  14.646  0.8063  1.3544 -0.5060
 4434TIP3   OH234792   2.331   5.205  14.950 -1.0028  0.1264 -0.3182
 4434TIP3    H134793   2.396   5.154  14.902 -0.1094 -0.6370  1.6980
 4434TIP3    H234794   2.262   5.221  14.885  0.8385  0.3875 -2.2856
 4435TIP3   OH234795   2.399   1.027   0.715  0.0258  0.3289  0.6902
 4435TIP3    H134796   2.340   1.099   0.740 -0.9462 -0.0287 -0.4858
 4435TIP3    H234797   2.356   0.948   0.747 -0.5163  0.0037 -0.7741
 4436TIP3   OH234798   0.002   3.529   5.543  0.0432  0.2839  0.4208
 4436TIP3    H134799  -0.072   3.478   5.510 -0.9875  0.7539  1.8963
 4436TIP3    H234800   0.069   3.522   5.476 -0.8013 -1.4052 -0.2657
 4437TIP3   OH234801   1.869   2.001   1.773  0.2665 -0.2603  0.2871
 4437TIP3    H134802   1.818   1.979   1.851  0.7109 -1.0012  0.3778
 4437TIP3    H234803   1.866   2.096   1.768 -0.8996 -0.2765  0.4428
 4438TIP3   OH234804   4.986   3.532  11.462  0.4408  0.5883 -0.0441
 4438TIP3    H134805   4.946   3.486  11.389  0.6037 -0.0078  0.2379
 4438TIP3    H234806   5.053   3.471  11.495  0.1215  0.6951  0.8259
 4439TIP3   OH234807   4.985   2.523   6.242  1.0707  0.3146 -0.1088
 4439TIP3    H134808   4.900   2.562   6.224  2.3510  1.9763 -2.7160
 4439TIP3    H234809   5.036   2.593   6.282  0.9720 -0.9404  2.3238
 4440TIP3   OH234810   2.772   5.250  11.118  0.2357 -0.1374 -0.0728
 4440TIP3    H134811   2.694   5.290  11.157  1.1908  1.0779  0.6546
 4440TIP3    H234812   2.760   5.261  11.024 -0.7718 -0.5429  0.0006
 4441TIP3   OH234813   1.041   6.188  12.136 -0.0693 -0.1462 -0.3889
 4441TIP3    H134814   1.004   6.231  12.058  0.4881 -1.3829 -1.3584
 4441TIP3    H234815   1.135   6.184  12.118  0.2858  1.0973  1.1317
 4442TIP3   OH234816   0.049   1.620  12.288 -1.0255  0.2161 -0.5320
 4442TIP3    H134817  -0.009   1.619  12.211 -0.4474  1.4414 -0.9933
 4442TIP3    H234818   0.085   1.709  12.289  2.5426 -1.1604 -1.5111
 4443TIP3   OH234819   2.751   2.646  11.796  0.0576  0.1622 -0.5030
 4443TIP3    H134820   2.763   2.611  11.885 -0.4913  1.0375 -0.0777
 4443TIP3    H234821   2.836   2.635  11.755 -0.4969 -3.1291 -0.9136
 4444TIP3   OH234822   4.201   5.631   4.223  0.4128 -0.7765 -0.4055
 4444TIP3    H134823   4.219   5.539   4.201  0.4591 -1.0501  0.7597
 4444TIP3    H234824   4.128   5.628   4.284 -0.2585  0.0350 -1.1624
 4445TIP3   OH234825   5.588   0.398   4.882  0.1544  0.4523  0.1036
 4445TIP3    H134826   5.640   0.323   4.910 -1.9094 -1.0546 -0.0238
 4445TIP3    H234827   5.564   0.442   4.963 -0.5361 -0.3411  0.3403
 4446TIP3   OH234828   3.336   5.541  15.202  0.2762  0.1217 -0.3029
 4446TIP3    H134829   3.398   5.500  15.263 -0.2906  0.9917  0.8747
 4446TIP3    H234830   3.350   5.495  15.119  2.2951  0.0995  0.0237
 4447TIP3   OH234831   5.548   4.737  12.977 -0.1129 -0.4121  0.2616
 4447TIP3    H134832   5.470   4.691  12.945  0.2937 -0.6480 -0.3988
 4447TIP3    H234833   5.544   4.726  13.072 -0.9088 -0.3886  0.2389
 4448TIP3   OH234834   6.156   3.821   1.506 -0.3725 -0.4243  0.0416
 4448TIP3    H134835   6.165   3.870   1.424 -1.2812  1.9274  1.2917
 4448TIP3    H234836   6.237   3.839   1.554 -1.3855  1.2099  1.1841
 4449TIP3   OH234837   3.872   4.460  11.528  0.4998 -0.0666 -0.0603
 4449TIP3    H134838   3.860   4.494  11.439 -2.1862 -3.2195 -0.9974
 4449TIP3    H234839   3.829   4.525  11.584  0.9808  1.2291 -1.1432
 4450TIP3   OH234840   1.828   2.924   1.417  0.0598  0.0289  0.3080
 4450TIP3    H134841   1.754   2.937   1.476  1.5395 -0.9651  2.4734
 4450TIP3    H234842   1.836   2.829   1.409  1.5438  0.0893  0.7520
 4451TIP3   OH234843   0.363   4.671  15.437 -0.5835  0.5874  0.0477
 4451TIP3    H134844   0.307   4.613  15.490 -0.4887 -0.0927 -0.5865
 4451TIP3    H234845   0.304   4.708  15.372 -0.1894 -0.6645 -1.0611
 4452TIP3   OH234846   3.638   5.668   1.628  0.4178  0.1190  0.1341
 4452TIP3    H134847   3.611   5.619   1.551  0.6805  0.4507 -0.1673
 4452TIP3    H234848   3.698   5.734   1.595 -2.5862  2.9065  0.0161
 4453TIP3   OH234849   1.733   3.859   2.542 -0.2270 -0.0062 -0.2481
 4453TIP3    H134850   1.661   3.870   2.481 -1.4185 -0.6064  1.0117
 4453TIP3    H234851   1.721   3.928   2.607  2.5430  2.3062 -2.0684
 4454TIP3   OH234852   1.400   2.894   2.218 -0.1178 -0.0707 -0.6091
 4454TIP3    H134853   1.469   2.904   2.153  0.9900  0.0016  0.5634
 4454TIP3    H234854   1.437   2.835   2.283 -0.5396  1.2706  0.8778
 4455TIP3   OH234855   0.947   4.550  17.025 -0.1367 -0.4435  0.6248
 4455TIP3    H134856   0.879   4.486  17.005  0.0001 -0.6201  0.7181
 4455TIP3    H234857   0.971   4.586  16.940  0.9621 -1.7273  0.3746
 4456TIP3   OH234858   0.375   2.746   3.086  0.6451 -0.2654  0.7659
 4456TIP3    H134859   0.347   2.747   2.995  1.8634 -2.6905  0.3299
 4456TIP3    H234860   0.358   2.835   3.117  1.7802  1.0923 -2.3121
 4457TIP3   OH234861   1.403   0.499   1.798 -0.5626 -0.2763  0.4778
 4457TIP3    H134862   1.382   0.591   1.782 -0.3535 -0.7871 -3.0441
 4457TIP3    H234863   1.451   0.499   1.881 -1.4982  2.6428  1.0574
 4458TIP3   OH234864   2.664   2.060  12.796 -0.4197  0.2935 -0.5548
 4458TIP3    H134865   2.597   2.046  12.862 -0.7655  2.1817 -0.4707
 4458TIP3    H234866   2.623   2.118  12.732  0.0845 -1.0736 -2.1774
 4459TIP3   OH234867   3.675   1.874   0.615  0.2157 -0.0367  0.5116
 4459TIP3    H134868   3.685   1.966   0.589 -0.9567 -0.3489 -1.0709
 4459TIP3    H234869   3.764   1.847   0.640  0.7616  1.2183 -0.0196
 4460TIP3   OH234870   0.078   0.792  12.049 -0.3867  0.7708  0.8890
 4460TIP3    H134871  -0.012   0.763  12.035 -0.3882  0.7867  0.8644
 4460TIP3    H234872   0.116   0.726  12.107 -0.3447  0.6423  0.7152
 4461TIP3   OH234873   4.274   0.198   5.449 -0.2333  0.1143  0.7120
 4461TIP3    H134874   4.368   0.185   5.437 -0.5581 -1.8963  0.2437
 4461TIP3    H234875   4.241   0.218   5.362 -0.0871  1.9185  1.0554
 4462TIP3   OH234876   1.359   2.112  16.188 -0.6367 -0.5156 -0.5676
 4462TIP3    H134877   1.366   2.207  16.201 -2.0843 -0.5439  0.5812
 4462TIP3    H234878   1.279   2.088  16.234 -0.2759 -2.3088 -0.8560
 4463TIP3   OH234879   4.259   3.465  13.907 -0.6542 -0.5175  0.0651
 4463TIP3    H134880   4.172   3.437  13.878  0.5223 -1.7652 -2.3324
 4463TIP3    H234881   4.307   3.384  13.921  0.5407  0.1849  0.1182
 4464TIP3   OH234882   1.382   4.284  11.632  0.3683  0.0319  0.1857
 4464TIP3    H134883   1.294   4.265  11.601  0.3266 -1.6231  1.2698
 4464TIP3    H234884   1.434   4.207  11.607  1.2396  0.4721  0.6006
 4465TIP3   OH234885   2.217   3.848  12.440  0.5563  0.2712  0.6831
 4465TIP3    H134886   2.268   3.799  12.374  1.6324  0.2221  1.5319
 4465TIP3    H234887   2.233   3.801  12.522 -1.8564 -0.4646  0.7600
 4466TIP3   OH234888   2.527   0.750  16.988  0.5360  0.0902 -0.5155
 4466TIP3    H134889   2.555   0.839  16.967  0.9744 -0.9323 -4.7546
 4466TIP3    H234890   2.470   0.725  16.916 -1.5696 -2.2379  1.8426
 4467TIP3   OH234891   0.817   2.182  13.880 -0.1388  0.5506  0.1404
 4467TIP3    H134892   0.746   2.231  13.837  0.8137  1.3022 -0.5966
 4467TIP3    H234893   0.848   2.241  13.948 -1.1651 -0.3558  1.4218
 4468TIP3   OH234894   4.927   4.972  16.392 -0.3535 -0.2677  0.8682
 4468TIP3    H134895   4.874   5.051  16.398 -3.0102 -1.9615  0.6153
 4468TIP3    H234896   4.948   4.964  16.298  0.5346  0.5153  1.0011
 4469TIP3   OH234897   5.100   1.162   2.824 -0.1496 -0.2298 -0.3130
 4469TIP3    H134898   5.136   1.166   2.913  0.1369 -2.4161 -0.3084
 4469TIP3    H234899   5.113   1.071   2.797  0.5193  0.5897 -2.9082
 4470TIP3   OH234900   1.084   5.993  14.972  0.3191 -0.3180  0.2746
 4470TIP3    H134901   1.102   5.900  14.956  1.8292  0.2857 -1.7475
 4470TIP3    H234902   1.152   6.020  15.034  0.9434 -0.1928 -0.4434
 4471TIP3   OH234903   5.337   1.777  16.711  0.0347  0.2905  0.1300
 4471TIP3    H134904   5.429   1.749  16.704  0.0104 -0.1870  1.5745
 4471TIP3    H234905   5.288   1.708  16.666  0.2130 -0.5493  1.2158
 4472TIP3   OH234906   0.339   2.549  11.477 -0.3799  0.6548  0.1517
 4472TIP3    H134907   0.335   2.454  11.475  0.7525  0.6080 -0.2023
 4472TIP3    H234908   0.305   2.573  11.563 -0.8546 -0.0542  0.1653
 4473TIP3   OH234909   2.028   4.559  14.567  0.3619 -0.0656 -0.7945
 4473TIP3    H134910   1.937   4.569  14.596  0.5807 -0.9479  0.2214
 4473TIP3    H234911   2.066   4.496  14.628  2.0253  1.2739 -0.4305
 4474TIP3   OH234912   4.153   1.523   5.672  0.3227 -0.0407 -0.3446
 4474TIP3    H134913   4.210   1.584   5.718  0.3666  0.9238 -1.6763
 4474TIP3    H234914   4.204   1.492   5.598 -1.1365  1.4779 -2.0388
 4475TIP3   OH234915   2.491   4.648   0.142  0.1038 -0.1998  0.4432
 4475TIP3    H134916   2.417   4.594   0.171  0.1750 -0.8437 -0.5446
 4475TIP3    H234917   2.566   4.615   0.191  0.6279 -2.6541 -1.8747
 4476TIP3   OH234918   4.498   2.943  14.130 -0.0052 -0.0588  0.0729
 4476TIP3    H134919   4.433   3.010  14.151  0.4173 -0.1948  1.8573
 4476TIP3    H234920   4.460   2.862  14.163  0.7522 -0.2503  0.4757
 4477TIP3   OH234921   0.112   0.858   2.407 -0.4316 -0.1330 -0.5917
 4477TIP3    H134922   0.099   0.774   2.363 -2.4345 -0.0698 -0.2115
 4477TIP3    H234923   0.036   0.865   2.466  0.0877  1.6212 -0.1144
 4478TIP3   OH234924   1.216   2.576   4.837 -0.1544  0.8107  0.0243
 4478TIP3    H134925   1.156   2.549   4.907 -0.3085 -1.8780 -1.0623
 4478TIP3    H234926   1.301   2.542   4.865 -0.0858  0.3446 -0.7279
 4479TIP3   OH234927   5.466   5.428   1.578 -0.1068 -0.2889  0.1200
 4479TIP3    H134928   5.483   5.516   1.546 -0.8345 -0.2493 -0.1632
 4479TIP3    H234929   5.385   5.402   1.535 -0.4059 -0.7263  0.9448
 4480TIP3   OH234930   2.507   3.794   4.838  0.2869  0.1553 -0.5869
 4480TIP3    H134931   2.496   3.699   4.847 -1.9491  0.5349  1.1104
 4480TIP3    H234932   2.499   3.810   4.744 -0.5731 -1.1763 -0.7569
 4481TIP3   OH234933   1.340   3.441   4.258  0.0988 -0.0230 -0.0520
 4481TIP3    H134934   1.311   3.496   4.331  1.1168  0.3749  0.0498
 4481TIP3    H234935   1.432   3.423   4.275 -0.1714 -1.6237 -0.1821
 4482TIP3   OH234936   0.569   2.022  14.859  0.2610 -0.0888 -0.0050
 4482TIP3    H134937   0.522   2.076  14.923 -0.8133 -0.7548 -0.2133
 4482TIP3    H234938   0.641   2.077  14.829 -1.1007  1.4204 -0.5772
 4483TIP3   OH234939   2.656   4.354  12.656 -0.4888  0.6284 -0.4777
 4483TIP3    H134940   2.695   4.316  12.735  1.1865 -0.6946 -1.9089
 4483TIP3    H234941   2.653   4.448  12.675 -1.3854  0.1955  1.6834
 4484TIP3   OH234942   5.283   3.999   2.359  0.1303 -0.1463 -0.0026
 4484TIP3    H134943   5.265   3.916   2.315 -1.1541  0.4515 -0.6360
 4484TIP3    H234944   5.213   4.057   2.329  1.5067  1.4140 -0.2577
 4485TIP3   OH234945   0.699   3.747  15.797 -0.3107 -0.3354  0.4766
 4485TIP3    H134946   0.739   3.710  15.876 -1.9223 -1.4907  0.7646
 4485TIP3    H234947   0.686   3.672  15.739  2.2894  0.7002 -1.5805
 4486TIP3   OH234948   5.294   2.079   1.909  0.5669  0.3943 -0.3263
 4486TIP3    H134949   5.208   2.038   1.922  2.1090 -2.3450  1.5712
 4486TIP3    H234950   5.301   2.142   1.981  0.7440 -0.4175  0.3719
 4487TIP3   OH234951   2.496   5.584  15.582  0.8810 -0.4855 -0.1471
 4487TIP3    H134952   2.558   5.635  15.530 -0.0372  0.1269 -0.6611
 4487TIP3    H234953   2.529   5.494  15.578  1.7011 -0.1721 -0.4503
 4488TIP3   OH234954   1.297   1.734   3.293 -0.1909 -0.0789  0.4512
 4488TIP3    H134955   1.313   1.814   3.344  0.5171 -1.2027  2.0286
 4488TIP3    H234956   1.298   1.664   3.358 -1.0317 -1.3576 -0.8930
 4489TIP3   OH234957   4.187   4.170  15.807 -0.2320  0.4110 -0.3957
 4489TIP3    H134958   4.158   4.118  15.732  0.5370  0.0123 -0.4118
 4489TIP3    H234959   4.148   4.127  15.883 -0.2652  0.2891 -0.4826
 4490TIP3   OH234960   5.056   1.471  12.716 -0.6677 -0.0455  0.0821
 4490TIP3    H134961   4.991   1.401  12.722  0.5648 -1.2665 -0.6821
 4490TIP3    H234962   5.127   1.443  12.774  0.9945 -0.7142 -2.2236
 4491TIP3   OH234963   0.795   5.264   5.109  0.0111 -0.5934 -0.2342
 4491TIP3    H134964   0.760   5.200   5.048 -0.4789 -0.8848  0.3513
 4491TIP3    H234965   0.719   5.294   5.159  0.2996  0.1370 -0.2155
 4492TIP3   OH234966   6.696   1.450   6.158 -0.5892 -0.4080 -0.0287
 4492TIP3    H134967   6.791   1.460   6.172 -0.2402 -1.6720 -1.3697
 4492TIP3    H234968   6.666   1.398   6.233  0.0026 -1.0491 -0.2281
 4493TIP3   OH234969   2.610   5.382  12.434  0.4301  0.0401 -0.2458
 4493TIP3    H134970   2.619   5.328  12.513  3.0427  0.0600 -0.4934
 4493TIP3    H234971   2.641   5.468  12.460  1.1767  0.0817 -1.2636
 4494TIP3   OH234972   3.559   2.283  12.495  0.2983  0.6394  0.2606
 4494TIP3    H134973   3.599   2.354  12.444 -0.0027  0.9094  0.4033
 4494TIP3    H234974   3.482   2.258  12.444  2.2298 -1.9078 -1.5975
 4495TIP3   OH234975   1.568   6.744   4.047  0.1607  0.1670  0.1850
 4495TIP3    H134976   1.553   6.795   3.968 -0.8687 -1.6701 -0.8299
 4495TIP3    H234977   1.499   6.772   4.107 -1.1435 -0.8740 -0.8033
 4496TIP3   OH234978   6.625   3.664   0.516  0.2735 -0.6909  0.2592
 4496TIP3    H134979   6.538   3.628   0.534  1.1382 -3.4636 -0.8490
 4496TIP3    H234980   6.653   3.702   0.599 -1.8748  0.0676  0.6824
 4497TIP3   OH234981   3.407   3.841   2.715 -0.3845 -0.1920 -0.2136
 4497TIP3    H134982   3.370   3.757   2.686  0.3882 -0.4168 -0.5536
 4497TIP3    H234983   3.330   3.897   2.727 -1.0136 -1.3934  1.4922
 4498TIP3   OH234984   0.322   6.200   3.195 -0.2867  0.0503  0.3705
 4498TIP3    H134985   0.251   6.139   3.173  0.7983 -0.5119 -1.7341
 4498TIP3    H234986   0.278   6.277   3.230 -1.9586 -0.1802 -1.1597
 4499TIP3   OH234987   2.253   4.526  12.579 -0.2202  0.0536  0.1896
 4499TIP3    H134988   2.213   4.566  12.657 -0.4051 -1.0928  0.6947
 4499TIP3    H234989   2.258   4.597  12.515 -1.1160  0.7275  0.8621
 4500TIP3   OH234990   1.119   3.123   5.668  0.3345  0.8845  0.1520
 4500TIP3    H134991   1.167   3.159   5.594 -1.1637  0.7949 -0.8719
 4500TIP3    H234992   1.026   3.132   5.645 -0.1397 -0.1929  1.4972
 4501TIP3   OH234993   3.818   1.924  14.005 -0.3715 -0.0182  0.1491
 4501TIP3    H134994   3.782   1.903  13.919 -0.6497  0.1303  0.2303
 4501TIP3    H234995   3.812   2.019  14.011 -1.5650 -0.1376  0.8776
 4502TIP3   OH234996   0.550   3.096  17.292  0.4167 -0.3963 -0.1194
 4502TIP3    H134997   0.523   3.144  17.371  1.5711 -0.1964  0.1651
 4502TIP3    H234998   0.539   3.004  17.315 -1.1829 -0.3145 -0.4404
 4503TIP3   OH234999   4.676   3.089  17.288  0.4508 -0.1957 -0.0478
 4503TIP3    H135000   4.643   3.165  17.337  0.8522 -0.2592  0.3215
 4503TIP3    H235001   4.766   3.080  17.317  0.0471 -1.5604  0.8078
 4504TIP3   OH235002   1.003   2.792  14.691 -0.4520  0.3631 -0.5415
 4504TIP3    H135003   1.016   2.809  14.598 -0.0376  0.0449 -0.5442
 4504TIP3    H235004   0.911   2.767  14.698 -0.1920 -0.7496 -1.0361
 4505TIP3   OH235005   3.448   0.489  10.909 -0.7557 -0.5352  0.3344
 4505TIP3    H135006   3.381   0.424  10.885  0.5706 -1.2361 -1.5748
 4505TIP3    H235007   3.402   0.549  10.969 -2.5950 -1.9954  0.4548
 4506TIP3   OH235008   1.943   6.405  13.171 -0.0983 -0.4381  0.1166
 4506TIP3    H135009   2.035   6.431  13.158 -0.2568 -0.1804 -0.5137
 4506TIP3    H235010   1.896   6.488  13.176 -0.0845 -0.5372  2.0885
 4507TIP3   OH235011   5.569   1.190   4.141  0.3822 -0.4663  0.0017
 4507TIP3    H135012   5.502   1.195   4.073  1.2297  0.6089 -0.7680
 4507TIP3    H235013   5.604   1.101   4.133 -0.6758 -0.9018  0.1490
 4508TIP3   OH235014   5.978   3.957  14.082  0.0137  0.3019 -0.2226
 4508TIP3    H135015   5.901   3.952  14.026  1.0291 -0.8352 -1.5468
 4508TIP3    H235016   5.965   3.887  14.147  0.5294 -0.7489 -1.2325
 4509TIP3   OH235017   6.808   1.926   6.543 -0.0659  0.3108  0.2551
 4509TIP3    H135018   6.767   1.840   6.557 -0.4119  0.4355  0.0084
 4509TIP3    H235019   6.765   1.983   6.607  0.5458  0.1816  0.7882
 4510TIP3   OH235020   5.383   6.692   0.241 -0.1575  0.1365  0.0071
 4510TIP3    H135021   5.429   6.752   0.300  2.0783 -1.5525  0.0719
 4510TIP3    H235022   5.327   6.640   0.299 -1.0653  1.2088  0.1137
 4511TIP3   OH235023   0.340   3.276  11.210  0.5011 -0.3854  0.1419
 4511TIP3    H135024   0.250   3.261  11.179  0.5505  0.5007 -0.4430
 4511TIP3    H235025   0.375   3.188  11.224 -0.4652 -0.7429  0.3965
 4512TIP3   OH235026   1.675   1.046  14.221  0.3361 -0.6602  0.2457
 4512TIP3    H135027   1.585   1.016  14.218 -0.1565  0.4331  2.6391
 4512TIP3    H235028   1.700   1.057  14.129 -2.5602  0.8167 -0.4148
 4513TIP3   OH235029   1.875   5.764   4.194  0.6077 -0.2910  0.0491
 4513TIP3    H135030   1.898   5.753   4.286 -1.3084  0.2742  0.6150
 4513TIP3    H235031   1.847   5.677   4.166  1.4038 -0.5132 -0.0692
 4514TIP3   OH235032   2.043   2.815  12.415 -0.2733  0.0040 -0.5856
 4514TIP3    H135033   2.105   2.884  12.439 -0.9595  0.5920 -0.4950
 4514TIP3    H235034   2.068   2.791  12.326 -0.8637  1.2982 -1.1073
 4515TIP3   OH235035   1.119   3.936   1.262 -0.1720  0.7399 -0.4476
 4515TIP3    H135036   1.037   3.943   1.309  0.0331 -0.2824  0.0772
 4515TIP3    H235037   1.179   3.996   1.307 -0.2523  0.4867 -0.0026
 4516TIP3   OH235038   4.512   5.089  14.557  0.2656 -0.4314 -0.1271
 4516TIP3    H135039   4.421   5.067  14.536  0.2839  0.5247 -1.2198
 4516TIP3    H235040   4.522   5.060  14.648 -1.4178  0.3756  0.3454
 4517TIP3   OH235041   4.227   1.484  16.530 -0.2808  0.1117 -0.3095
 4517TIP3    H135042   4.294   1.552  16.534 -1.8562  1.6768 -0.2114
 4517TIP3    H235043   4.227   1.455  16.439 -1.4050  2.1229 -0.9915
 4518TIP3   OH235044   5.685   2.793  13.048 -0.1607  0.3371 -0.1214
 4518TIP3    H135045   5.615   2.761  12.992  0.8491 -2.3202  0.0729
 4518TIP3    H235046   5.680   2.888  13.041 -1.0081  0.0949 -3.5171
 4519TIP3   OH235047   4.130   4.248  11.126 -0.2870  0.0610 -0.2081
 4519TIP3    H135048   4.131   4.254  11.031 -0.9508 -1.0999 -0.2902
 4519TIP3    H235049   4.191   4.177  11.147  1.0344  1.3087  0.3296
 4520TIP3   OH235050   0.319   0.512  12.765 -0.0812  0.2790  0.1353
 4520TIP3    H135051   0.307   0.577  12.834  2.1496  0.7835  0.0841
 4520TIP3    H235052   0.314   0.562  12.684  1.0974  0.3114  0.0749
 4521TIP3   OH235053   1.343   1.902  16.840  0.9536 -0.0100 -0.3567
 4521TIP3    H135054   1.314   1.874  16.927 -0.7301  2.7435  0.0076
 4521TIP3    H235055   1.283   1.858  16.780  0.5483  0.0556  0.0019
 4522TIP3   OH235056   1.355   4.295   5.281  0.0626  0.4946  0.0366
 4522TIP3    H135057   1.266   4.298   5.315 -1.4074 -0.1098 -3.5402
 4522TIP3    H235058   1.367   4.204   5.254  1.5291  0.7208 -0.1301
 4523TIP3   OH235059   4.071   0.278  15.077 -0.4294  0.0375  0.2094
 4523TIP3    H135060   4.024   0.325  15.008 -0.0767  2.4068  1.5473
 4523TIP3    H235061   4.122   0.212  15.030 -1.8243  0.1888 -1.6048
 4524TIP3   OH235062   4.942   3.474   5.016 -0.4931  0.2358 -0.2140
 4524TIP3    H135063   4.850   3.481   5.042 -0.3388 -0.8571  0.6762
 4524TIP3    H235064   4.946   3.397   4.960 -0.5761  1.8176 -2.4353
 4525TIP3   OH235065   3.662   5.660   0.066  0.4615  0.0750  0.2168
 4525TIP3    H135066   3.652   5.568   0.043 -0.7924 -0.2404  1.9160
 4525TIP3    H235067   3.735   5.661   0.129  1.5011  0.4731 -0.9561
 4526TIP3   OH235068   5.682   2.340   5.854 -0.3391  0.0253 -0.0828
 4526TIP3    H135069   5.674   2.401   5.781  0.0076  0.5607  0.3318
 4526TIP3    H235070   5.632   2.379   5.925  1.3627  0.7254  0.7633
 4527TIP3   OH235071   6.675   2.688   4.213 -0.3881 -0.2240  0.1993
 4527TIP3    H135072   6.662   2.783   4.212  1.4484  0.0364  0.3309
 4527TIP3    H235073   6.742   2.673   4.279 -0.2745 -1.5746 -0.2064
 4528TIP3   OH235074   4.086   3.221   0.679  0.4683 -0.7104 -0.3101
 4528TIP3    H135075   4.158   3.176   0.633 -0.5431 -2.2473 -0.4588
 4528TIP3    H235076   4.086   3.183   0.767  0.4356 -0.0383 -0.0221
 4529TIP3   OH235077   3.068   6.739   3.977 -0.5390 -0.2048 -0.3298
 4529TIP3    H135078   3.060   6.834   3.968  0.8468  0.0814  1.2562
 4529TIP3    H235079   3.151   6.717   3.934 -0.4004 -0.5710  0.1210
 4530TIP3   OH235080   0.991   6.324  16.268  0.2699 -0.0073 -0.3374
 4530TIP3    H135081   1.045   6.378  16.326 -0.7187  1.2038 -0.5126
 4530TIP3    H235082   0.995   6.369  16.183  0.2096 -0.7376 -0.7301
 4531TIP3   OH235083   4.658   3.801   3.720 -0.7943 -0.7610  0.0715
 4531TIP3    H135084   4.670   3.712   3.686  1.3002 -1.1001  1.5795
 4531TIP3    H235085   4.678   3.793   3.814 -2.4771  0.9383  0.6085
 4532TIP3   OH235086   3.978   4.549   6.358  0.4442  0.1349  0.0072
 4532TIP3    H135087   4.002   4.540   6.266 -0.9324  0.4728 -0.4021
 4532TIP3    H235088   4.056   4.584   6.401  1.3388 -0.7553 -0.8908
 4533TIP3   OH235089   4.352   3.549   4.656 -0.1086 -0.4322 -0.2133
 4533TIP3    H135090   4.367   3.494   4.732 -1.2416 -0.4148  0.0273
 4533TIP3    H235091   4.393   3.633   4.678  1.8504 -1.2427 -0.6876
 4534TIP3   OH235092   4.029   2.399  13.111  0.1399  0.1837  0.1370
 4534TIP3    H135093   3.965   2.390  13.181  1.7911  0.0923  1.6740
 4534TIP3    H235094   3.980   2.382  13.030 -1.8577  0.6629  1.2396
 4535TIP3   OH235095   0.526   6.791  11.275  0.0058 -0.2654  0.6219
 4535TIP3    H135096   0.603   6.795  11.219  0.7637  0.8588  1.6904
 4535TIP3    H235097   0.513   6.698  11.293  0.9479 -0.4846  0.1903
 4536TIP3   OH235098   4.384   4.140  17.030  0.0931 -0.3231  0.0691
 4536TIP3    H135099   4.300   4.147  17.077 -0.0461  1.1962 -0.3713
 4536TIP3    H235100   4.435   4.215  17.062  0.7125 -0.3743 -0.7970
 4537TIP3   OH235101   4.230   4.315   5.130 -0.4378 -0.0758 -0.4587
 4537TIP3    H135102   4.240   4.237   5.185  1.3034 -0.6397 -1.5165
 4537TIP3    H235103   4.138   4.339   5.139 -0.4143 -0.7185  1.9182
 4538TIP3   OH235104   6.113   0.577  16.537  0.1195  0.5135 -0.1684
 4538TIP3    H135105   6.091   0.612  16.451 -2.6322  0.3242  0.4221
 4538TIP3    H235106   6.078   0.641  16.599  1.0513  0.0662  0.8463
 4539TIP3   OH235107   3.884   0.433  13.516 -0.2649  0.3569 -0.1199
 4539TIP3    H135108   3.941   0.362  13.544 -1.9602 -1.3932 -1.0286
 4539TIP3    H235109   3.881   0.492  13.592  1.0217 -0.6048  0.7075
 4540TIP3   OH235110   5.022   2.579  15.668 -0.1275 -0.2494  0.0614
 4540TIP3    H135111   5.106   2.605  15.707  0.2976 -1.3558 -0.1092
 4540TIP3    H235112   4.979   2.662  15.648  1.6828  0.3685 -1.4551
 4541TIP3   OH235113   6.349   3.547  13.562  0.0695  0.9164  0.3723
 4541TIP3    H135114   6.344   3.500  13.479 -0.0531  2.0024 -0.2561
 4541TIP3    H235115   6.440   3.576  13.567  0.5869 -0.8661  1.6051
 4542TIP3   OH235116   5.986   2.989  15.810 -0.3686 -0.0968  0.0253
 4542TIP3    H135117   6.081   2.973  15.811 -0.3621 -0.0332  0.4651
 4542TIP3    H235118   5.951   2.931  15.877 -0.4327  1.1094  1.0721
 4543TIP3   OH235119   1.203   6.517  11.662 -0.2193  0.0150  0.0641
 4543TIP3    H135120   1.109   6.533  11.673 -0.5194 -1.6722 -0.0055
 4543TIP3    H235121   1.231   6.586  11.601 -0.8806  2.0770  2.0485
 4544TIP3   OH235122   1.435   4.605   1.851 -0.0253  0.6858 -0.4550
 4544TIP3    H135123   1.521   4.638   1.878  0.4472 -1.7897  1.1941
 4544TIP3    H235124   1.425   4.635   1.761  2.9113  0.3750 -0.9314
 4545TIP3   OH235125   6.685   6.044  14.925 -0.0803  0.1652  0.5574
 4545TIP3    H135126   6.705   6.128  14.966 -0.9126  0.4026  0.4863
 4545TIP3    H235127   6.752   6.034  14.857 -0.8846  1.4919 -0.4428
 4546TIP3   OH235128   6.442   5.569  16.558 -0.7524  0.1155 -0.0757
 4546TIP3    H135129   6.445   5.589  16.652  0.1796  2.0810 -0.4874
 4546TIP3    H235130   6.371   5.624  16.524 -0.8228 -0.2862 -0.5801
 4547TIP3   OH235131   2.243   6.385  16.601  0.4698 -0.2889 -0.0562
 4547TIP3    H135132   2.309   6.316  16.607  0.3222 -0.3961  0.3541
 4547TIP3    H235133   2.179   6.364  16.670 -0.3609 -0.5750 -0.9092
 4548TIP3   OH235134   3.753   2.565  13.645  0.3722 -0.1265  0.2469
 4548TIP3    H135135   3.777   2.599  13.559  0.7727 -0.1735  0.3385
 4548TIP3    H235136   3.835   2.561  13.694  0.2505 -0.6978  0.4214
 4549TIP3   OH235137   4.950   3.526  13.422  0.5340  0.0254 -0.1403
 4549TIP3    H135138   5.023   3.588  13.428 -0.0575  0.6363  0.8797
 4549TIP3    H235139   4.875   3.575  13.456  0.1508 -1.4153  1.1187
 4550TIP3   OH235140   5.761   6.511  15.865 -0.1960  0.6212  0.5690
 4550TIP3    H135141   5.766   6.545  15.776  0.0489  0.1418  0.3968
 4550TIP3    H235142   5.782   6.418  15.856  3.2765  1.2462  1.6005
 4551TIP3   OH235143   1.929   3.643   3.797 -0.0225 -0.1230 -0.1784
 4551TIP3    H135144   1.875   3.658   3.720 -0.5933  1.5053  0.5032
 4551TIP3    H235145   2.005   3.700   3.786  0.3474 -0.5649  0.0343
 4552TIP3   OH235146   5.837   5.364   3.900  0.4997  0.1085  0.7264
 4552TIP3    H135147   5.749   5.348   3.863  0.9150  1.4688 -0.9183
 4552TIP3    H235148   5.873   5.276   3.913 -1.0894 -0.4767  1.4185
 4553TIP3   OH235149   3.806   2.950  14.942 -0.3708  0.2321 -0.1876
 4553TIP3    H135150   3.775   2.981  14.857 -1.6484  0.0011  0.1752
 4553TIP3    H235151   3.746   2.991  15.006  0.8507  0.7707  0.6356
 4554TIP3   OH235152   2.886   1.355   6.008  0.1297  0.6585 -0.5055
 4554TIP3    H135153   2.903   1.337   6.100 -0.1454  0.5430 -0.4765
 4554TIP3    H235154   2.881   1.451   6.002 -0.8401  0.6330 -0.2229
 4555TIP3   OH235155   0.857   0.088  12.917  0.4006  0.4913  0.0485
 4555TIP3    H135156   0.928   0.128  12.866 -0.0646 -1.0386 -1.8518
 4555TIP3    H235157   0.884   0.100  13.008  3.0932 -0.0094 -0.6364
 4556TIP3   OH235158   3.546   5.946  14.237  0.4984  0.1055 -0.3729
 4556TIP3    H135159   3.503   6.016  14.189  0.5597 -0.7787 -1.7263
 4556TIP3    H235160   3.498   5.939  14.320 -0.1194  1.0640 -0.6568
 4557TIP3   OH235161   6.319   0.533   1.288  0.2684  0.3939 -0.1502
 4557TIP3    H135162   6.259   0.587   1.339  0.5094  1.2818 -0.7972
 4557TIP3    H235163   6.323   0.450   1.336 -0.5122  0.7612  0.5633
 4558TIP3   OH235164   5.962   3.701  12.771 -0.2122 -0.0209 -0.3848
 4558TIP3    H135165   5.992   3.706  12.680  0.5868 -0.5968 -0.1610
 4558TIP3    H235166   6.031   3.653  12.816 -0.0396  1.2870  0.7730
 4559TIP3   OH235167   1.402   5.258   5.011  0.1295  0.1865  0.3777
 4559TIP3    H135168   1.395   5.229   5.102  1.4954  0.8105  0.6933
 4559TIP3    H235169   1.439   5.182   4.964 -0.8741 -0.2440  0.2795
 4560TIP3   OH235170   6.721   5.078   1.599  0.1250 -0.1650 -0.6461
 4560TIP3    H135171   6.783   5.058   1.669  1.8766 -0.5128 -2.2707
 4560TIP3    H235172   6.751   5.162   1.563 -0.6474 -0.0862 -1.1241
 4561TIP3   OH235173   0.623   0.852   5.227 -0.1905  0.2515  0.2319
 4561TIP3    H135174   0.651   0.773   5.273  2.2291  0.8723 -0.1346
 4561TIP3    H235175   0.569   0.899   5.291  0.3431 -0.5386  1.2705
 4562TIP3   OH235176   6.166   5.149  14.063  0.0496 -0.1404  0.0261
 4562TIP3    H135177   6.225   5.175  14.134  0.0688 -1.9330  0.7020
 4562TIP3    H235178   6.156   5.055  14.074 -1.8800 -0.0649 -0.9026
 4563TIP3   OH235179   5.372   4.749  12.635  0.0346 -0.1234 -0.5432
 4563TIP3    H135180   5.338   4.838  12.628 -0.4951 -0.2285  0.5135
 4563TIP3    H235181   5.360   4.726  12.727  3.5353  0.0330  0.0046
 4564TIP3   OH235182   0.820   3.204   2.732 -0.6416 -1.1533  0.3086
 4564TIP3    H135183   0.915   3.209   2.742 -0.7555  0.8627  0.6655
 4564TIP3    H235184   0.794   3.127   2.782  0.7237 -1.2021  0.9570
 4565TIP3   OH235185   4.678   5.729  11.127  0.3529 -1.1797 -0.3202
 4565TIP3    H135186   4.695   5.661  11.061  2.5956 -0.8321 -0.1150
 4565TIP3    H235187   4.675   5.681  11.209 -0.8726 -1.3951 -0.4791
 4566TIP3   OH235188   3.673   5.998   0.219  0.7092 -0.0104 -0.7067
 4566TIP3    H135189   3.623   6.017   0.139  0.0436  1.0930 -0.0351
 4566TIP3    H235190   3.677   5.902   0.222 -5.3452 -0.3821  1.6036
 4567TIP3   OH235191   0.537   0.169   4.302  0.3557 -0.4087 -0.0290
 4567TIP3    H135192   0.480   0.092   4.296 -0.6965  0.3824 -0.1617
 4567TIP3    H235193   0.543   0.202   4.213  0.2865  0.0536  0.1376
 4568TIP3   OH235194   3.627   1.548  15.367 -0.0434  0.4811 -0.2960
 4568TIP3    H135195   3.577   1.622  15.333  1.0743  0.9926 -0.8719
 4568TIP3    H235196   3.605   1.544  15.460 -0.0576  1.5821 -0.2474
 4569TIP3   OH235197   2.637   0.074   0.416 -0.2167  0.3074 -0.5038
 4569TIP3    H135198   2.704   0.005   0.418 -1.9800 -1.4805 -1.4450
 4569TIP3    H235199   2.658   0.125   0.338 -0.3397 -0.6575 -1.1725
 4570TIP3   OH235200   3.224   3.022  16.523  0.1497 -0.2074 -0.6519
 4570TIP3    H135201   3.313   3.027  16.489  0.6522 -0.8445  0.5831
 4570TIP3    H235202   3.193   2.936  16.497  0.4852 -0.6412  0.3767
 4571TIP3   OH235203   3.355   5.146   0.052 -0.0500 -0.4115 -0.1022
 4571TIP3    H135204   3.261   5.147   0.039 -0.2038  1.9195  1.0119
 4571TIP3    H235205   3.388   5.220   0.001  0.7482  0.9732  2.3121
 4572TIP3   OH235206   5.250   3.614  14.843 -0.0216 -0.3609 -0.4028
 4572TIP3    H135207   5.211   3.594  14.758 -0.5814 -1.2184  0.0536
 4572TIP3    H235208   5.200   3.562  14.905  0.9687 -0.4224  0.3532
 4573TIP3   OH235209   2.149   5.829  14.938  0.4274 -0.1550  0.1727
 4573TIP3    H135210   2.208   5.891  14.981  1.4609 -0.9279 -0.1154
 4573TIP3    H235211   2.123   5.769  15.007  1.4837 -0.9369 -0.0838
 4574TIP3   OH235212   3.597   0.530  11.232  0.7397 -0.3192  0.5840
 4574TIP3    H135213   3.571   0.496  11.318  1.8053 -0.9251  0.6763
 4574TIP3    H235214   3.516   0.565  11.195  0.0231 -1.1481  1.3290
 4575TIP3   OH235215   3.923   3.637   0.117 -0.1429 -0.2440 -0.6490
 4575TIP3    H135216   4.018   3.621   0.116 -0.1133 -0.0036 -2.0248
 4575TIP3    H235217   3.915   3.732   0.124 -0.2820 -0.2197 -1.1475
 4576TIP3   OH235218   5.179   2.282  16.175  0.1907 -0.0511  0.2274
 4576TIP3    H135219   5.174   2.187  16.167  1.6453 -0.0293 -1.2634
 4576TIP3    H235220   5.097   2.314  16.137 -0.4075 -0.7033  0.9515
 4577TIP3   OH235221   3.850   4.657  15.926 -0.1231  0.1162 -0.3806
 4577TIP3    H135222   3.844   4.622  15.837 -0.6062 -1.2838  0.1805
 4577TIP3    H235223   3.829   4.582  15.982  2.1775  0.4513  0.9890
 4578TIP3   OH235224   6.073   1.601  13.153  0.2459 -0.1137 -0.8939
 4578TIP3    H135225   6.000   1.555  13.195 -0.0267  0.5746 -0.6023
 4578TIP3    H235226   6.047   1.693  13.154  1.0603  0.1220 -0.9145
 4579TIP3   OH235227   2.670   4.519  14.847 -0.4282 -0.5600  0.3969
 4579TIP3    H135228   2.739   4.578  14.818  0.1085 -1.8676 -1.0540
 4579TIP3    H235229   2.589   4.569  14.838 -0.0128 -0.1525 -1.1202
 4580TIP3   OH235230   6.159   3.087  14.620 -0.0026 -0.1563  0.2582
 4580TIP3    H135231   6.187   3.177  14.602 -1.8993  0.3732 -0.0887
 4580TIP3    H235232   6.231   3.050  14.672  0.7126  1.6045  0.5572
 4581TIP3   OH235233   2.901   1.869  16.002 -0.2399 -0.2310 -0.4051
 4581TIP3    H135234   2.878   1.793  15.949 -1.1013 -0.9691  1.0006
 4581TIP3    H235235   2.819   1.893  16.046  0.3454  0.6716  0.2106
 4582TIP3   OH235236   3.779   1.262   2.296 -0.1682 -0.5099  0.1375
 4582TIP3    H135237   3.814   1.181   2.333  0.9078 -0.5606 -0.9629
 4582TIP3    H235238   3.717   1.233   2.229  1.0528 -0.4502 -1.0427
 4583TIP3   OH235239   4.897   6.532  16.645  0.3882  0.3722 -0.2655
 4583TIP3    H135240   4.876   6.603  16.706 -0.2700 -0.7562  0.8577
 4583TIP3    H235241   4.870   6.565  16.560  1.9827  2.2586 -0.0774
 4584TIP3   OH235242   3.919   4.311   5.910 -0.0162  0.1199 -0.1152
 4584TIP3    H135243   3.831   4.296   5.875 -0.0875 -1.4366  0.6863
 4584TIP3    H235244   3.978   4.292   5.836 -0.3148  0.3003 -0.3992
 4585TIP3   OH235245   6.480   2.566   2.004  0.3834 -0.2029 -0.3524
 4585TIP3    H135246   6.470   2.478   1.966 -1.1837 -0.3996  0.4665
 4585TIP3    H235247   6.393   2.604   1.998  1.2197  1.5962 -1.3584
 4586TIP3   OH235248   4.283   6.122   2.944 -0.0005 -0.0160 -0.0545
 4586TIP3    H135249   4.338   6.183   2.994  0.0602  0.5839 -0.8477
 4586TIP3    H235250   4.234   6.074   3.011  1.1170 -0.2065  0.6334
 4587TIP3   OH235251   0.728   4.569  12.029 -0.0790 -0.3751 -0.3688
 4587TIP3    H135252   0.641   4.586  11.994 -0.5975 -0.0074  1.0903
 4587TIP3    H235253   0.764   4.656  12.047  0.5742 -0.5278 -0.9031
 4588TIP3   OH235254   6.767   2.034  14.039 -0.2255 -0.6531  0.0853
 4588TIP3    H135255   6.802   1.949  14.064 -1.2054 -0.5655  1.8397
 4588TIP3    H235256   6.830   2.068  13.975  1.2828 -1.7725  0.9461
 4589TIP3   OH235257   3.054   3.852  16.485  0.3959  0.0235 -0.3170
 4589TIP3    H135258   2.992   3.845  16.412  0.2855 -0.9018 -0.1360
 4589TIP3    H235259   3.059   3.946  16.503 -0.6872  0.1355 -0.5678
 4590TIP3   OH235260   3.754   5.586   5.797 -0.2390  0.2971  0.0513
 4590TIP3    H135261   3.798   5.605   5.880 -0.0066  0.7064 -0.1676
 4590TIP3    H235262   3.784   5.654   5.737 -0.0269 -0.2868 -0.5073
 4591TIP3   OH235263   5.902   5.785  16.613 -0.3140  0.0559  0.2220
 4591TIP3    H135264   5.921   5.845  16.685  0.8975 -2.1029  1.7645
 4591TIP3    H235265   5.874   5.841  16.541  0.0789  2.3847  1.8459
 4592TIP3   OH235266   1.370   4.300  16.074 -0.2470  0.8023  0.5346
 4592TIP3    H135267   1.308   4.359  16.032  1.0708  2.4313  0.8164
 4592TIP3    H235268   1.324   4.268  16.152 -1.6362  0.0232 -0.6003
 4593TIP3   OH235269   3.955   4.815  16.638 -0.1682  0.4088  0.2201
 4593TIP3    H135270   3.955   4.756  16.714 -2.3105 -1.3598 -1.1019
 4593TIP3    H235271   3.864   4.846  16.632  0.7245  3.1513  0.3382
 4594TIP3   OH235272   5.417   1.016   2.786  0.2387 -0.1100  0.4143
 4594TIP3    H135273   5.451   1.102   2.759 -0.2775  0.6662  2.1504
 4594TIP3    H235274   5.493   0.958   2.782  1.0012  0.8303  0.9005
 4595TIP3   OH235275   1.217   1.356  15.604  0.7505 -0.0404 -0.3467
 4595TIP3    H135276   1.154   1.284  15.606  0.2013  0.4200 -0.7655
 4595TIP3    H235277   1.281   1.331  15.537  1.8579 -1.1956  1.1114
 4596TIP3   OH235278   4.119   2.703  16.826  0.1579  0.3041 -0.0004
 4596TIP3    H135279   4.134   2.627  16.769  2.3040  1.2914 -0.8343
 4596TIP3    H235280   4.151   2.675  16.912  0.4351  0.0586 -0.1805
 4597TIP3   OH235281   2.991   2.828  16.911  0.5206  0.0676 -0.4599
 4597TIP3    H135282   3.082   2.841  16.884  0.7637 -0.1926  0.2090
 4597TIP3    H235283   2.943   2.900  16.871  0.9325 -0.1095 -1.2728
 4598TIP3   OH235284   3.817   0.208   2.347 -0.1737 -0.3349  0.1446
 4598TIP3    H135285   3.738   0.263   2.350 -0.9066 -1.3476 -0.3211
 4598TIP3    H235286   3.856   0.219   2.434 -1.2156 -0.3781  0.6334
 4599TIP3   OH235287   1.785   2.954   5.903  0.6304 -0.2844  0.3246
 4599TIP3    H135288   1.695   2.944   5.934 -0.1091 -0.4706 -1.7411
 4599TIP3    H235289   1.800   3.049   5.903  1.5892 -0.3897  3.6795
 4600TIP3   OH235290   0.430   4.053   6.652  0.3119 -0.2553 -0.6151
 4600TIP3    H135291   0.417   3.961   6.630 -1.5937 -0.3753  0.9439
 4600TIP3    H235292   0.358   4.098   6.609 -1.1914 -0.0210  2.0696
 4601TIP3   OH235293   3.544   4.500  14.739 -0.6113 -0.4012 -0.5220
 4601TIP3    H135294   3.579   4.527  14.654 -0.5673  0.4588 -0.2404
 4601TIP3    H235295   3.465   4.553  14.750 -1.1511 -1.2132 -0.4609
 4602TIP3   OH235296   4.837   2.297   0.828 -0.2920  0.0143 -0.1393
 4602TIP3    H135297   4.849   2.287   0.733  1.7476 -0.2010  0.1205
 4602TIP3    H235298   4.882   2.222   0.866 -0.3444  0.5757  1.0438
 4603TIP3   OH235299   5.744   4.326  15.972  0.2028  0.6831  0.1279
 4603TIP3    H135300   5.824   4.326  16.024 -0.2003  0.9270  0.7531
 4603TIP3    H235301   5.769   4.367  15.889  1.3257 -1.4118 -0.6115
 4604TIP3   OH235302   1.165   4.636  12.863  0.6444 -0.6536  0.0868
 4604TIP3    H135303   1.165   4.560  12.804  0.4661 -1.8795  1.6384
 4604TIP3    H235304   1.258   4.657  12.875  0.7841 -1.7947  1.1028
 4605TIP3   OH235305   5.385   5.348   3.558 -0.7536 -0.4746 -0.1674
 4605TIP3    H135306   5.345   5.430   3.528 -0.2408 -0.3099 -0.4102
 4605TIP3    H235307   5.365   5.285   3.490  0.1828 -0.1658 -0.7343
 4606TIP3   OH235308   2.327   0.832  12.566  0.1827  0.0381 -0.6006
 4606TIP3    H135309   2.291   0.898  12.507 -1.0394  0.2868  0.3928
 4606TIP3    H235310   2.404   0.874  12.605 -0.1164  0.5699 -0.5814
 4607TIP3   OH235311   1.207   4.581   5.555  0.2888  0.4167 -0.8406
 4607TIP3    H135312   1.276   4.525   5.592  0.8182  1.3618 -0.3732
 4607TIP3    H235313   1.167   4.528   5.486 -1.2745 -1.7123  1.6004
 4608TIP3   OH235314   0.991   5.558   6.397 -0.3031  0.3845 -0.6562
 4608TIP3    H135315   1.033   5.480   6.436  0.6114  1.5371  0.7386
 4608TIP3    H235316   1.032   5.566   6.311  0.0547 -0.3293 -0.5656
 4609TIP3   OH235317   2.261   3.787   3.143  0.2609 -0.6319 -0.4914
 4609TIP3    H135318   2.193   3.807   3.208 -0.1614  0.7872 -1.3297
 4609TIP3    H235319   2.343   3.804   3.189 -0.0376  0.4882 -0.3368
 4610TIP3   OH235320   3.578   4.231  16.518  0.0953 -0.0838  0.1194
 4610TIP3    H135321   3.556   4.299  16.455  0.1463  0.4083  0.6293
 4610TIP3    H235322   3.625   4.277  16.588  0.9256 -0.7926  0.0307
 4611TIP3   OH235323   1.934   0.721   1.812 -0.2145  0.4235  0.3611
 4611TIP3    H135324   1.953   0.811   1.783 -1.2715  0.5434  0.0386
 4611TIP3    H235325   1.910   0.674   1.732 -0.2117 -0.0094  0.6134
 4612TIP3   OH235326   3.278   4.426   3.584  0.2435 -0.9975  0.0743
 4612TIP3    H135327   3.223   4.347   3.580  0.6689 -1.2378 -1.2859
 4612TIP3    H235328   3.323   4.428   3.499  0.3735  0.6082  0.1656
 4613TIP3   OH235329   3.464   3.078   4.609 -0.3889  0.0777 -0.2592
 4613TIP3    H135330   3.478   3.155   4.554 -1.0915  0.9889  0.8003
 4613TIP3    H235331   3.420   3.015   4.552 -1.5369  1.1859 -0.6247
 4614TIP3   OH235332   2.009   6.021  15.529  0.2933 -0.0302 -0.2713
 4614TIP3    H135333   1.979   5.970  15.454  0.5754 -1.3733  0.5189
 4614TIP3    H235334   1.950   5.998  15.600 -0.9625  2.4434 -0.4447
 4615TIP3   OH235335   1.792   1.382  16.342 -0.0494  0.7042  0.8929
 4615TIP3    H135336   1.796   1.420  16.430 -2.4042  0.9402  0.9178
 4615TIP3    H235337   1.706   1.408  16.309 -0.7195 -2.5514 -0.0227
 4616TIP3   OH235338   5.111   2.467   5.627  0.2293  0.3469  0.4761
 4616TIP3    H135339   5.020   2.497   5.630  0.3726  1.4356 -3.6387
 4616TIP3    H235340   5.161   2.539   5.665 -0.3829  0.9284  0.1891
 4617TIP3   OH235341   5.674   4.497  13.876  0.4274  0.0201  0.4275
 4617TIP3    H135342   5.669   4.588  13.905 -1.2168 -0.0864  0.4936
 4617TIP3    H235343   5.627   4.447  13.943 -0.6371 -0.6066 -0.7693
 4618TIP3   OH235344   1.215   4.739   5.235  0.6753 -0.0311 -0.8116
 4618TIP3    H135345   1.128   4.779   5.235  0.2326 -0.9360  1.3570
 4618TIP3    H235346   1.205   4.659   5.185  0.3651  0.0718 -0.9146
 4619TIP3   OH235347   4.562   0.025   0.965  0.0718 -0.4831  0.8628
 4619TIP3    H135348   4.627   0.027   1.035  0.4416  0.2383  0.5041
 4619TIP3    H235349   4.498  -0.041   0.993  0.7575 -0.9280  1.3903
 4620TIP3   OH235350   2.638   4.306   4.963  0.3695  0.4793 -0.2471
 4620TIP3    H135351   2.563   4.248   4.975  0.9489 -0.7442 -2.3624
 4620TIP3    H235352   2.601   4.394   4.974 -0.8987 -0.2013  1.0536
 4621TIP3   OH235353   3.788   4.459  11.104  0.4526 -0.0916  0.3839
 4621TIP3    H135354   3.810   4.393  11.038  0.4414 -0.2561  0.5420
 4621TIP3    H235355   3.873   4.481  11.144  0.3856 -0.4412  0.7285
 4622TIP3   OH235356   0.352   6.553   0.940 -0.0622 -0.0005  0.0202
 4622TIP3    H135357   0.431   6.573   0.890  0.4210  0.6717  1.0373
 4622TIP3    H235358   0.281   6.563   0.877  0.5041  1.2067 -0.4531
 4623TIP3   OH235359   1.959   1.424  11.437 -0.3121  0.6001 -0.0704
 4623TIP3    H135360   2.029   1.441  11.499 -0.4652  2.8286 -0.4557
 4623TIP3    H235361   1.893   1.376  11.488 -0.2500  2.0144  1.3935
 4624TIP3   OH235362   3.009   2.332  14.964  0.8566 -0.0664  0.6377
 4624TIP3    H135363   2.948   2.285  14.907 -1.4352  3.7914 -0.2384
 4624TIP3    H235364   3.051   2.396  14.907  0.7393  1.8543  2.6535
 4625TIP3   OH235365   3.810   0.407   5.994  1.0544  0.6421 -0.0451
 4625TIP3    H135366   3.779   0.433   6.080 -2.3639 -0.4846 -0.8700
 4625TIP3    H235367   3.796   0.484   5.939  0.3217  0.3407 -0.2802
 4626TIP3   OH235368   4.863   4.901   4.801 -0.5337  0.2978  0.6953
 4626TIP3    H135369   4.913   4.863   4.873  0.2590 -1.2666 -0.6467
 4626TIP3    H235370   4.926   4.909   4.730 -1.7023  0.2498 -0.3601
 4627TIP3   OH235371   5.893   2.057   2.893  0.5011  0.4040  0.3019
 4627TIP3    H135372   5.831   2.019   2.955 -0.2721  0.3138 -0.5090
 4627TIP3    H235373   5.907   2.146   2.923 -0.7492  0.7152 -0.0417
 4628TIP3   OH235374   1.966   2.768  15.375 -0.0382  0.0466 -0.0716
 4628TIP3    H135375   1.874   2.743  15.363 -0.2444  0.2549  1.0658
 4628TIP3    H235376   1.971   2.798  15.465  0.9473  0.9611 -0.4286
 4629TIP3   OH235377   1.576   2.930  16.583  0.2035 -0.6505 -0.4760
 4629TIP3    H135378   1.595   2.847  16.540 -1.1381 -0.9777 -0.4491
 4629TIP3    H235379   1.599   2.996  16.518 -0.4563 -1.0965 -1.1735
 4630TIP3   OH235380   2.012   5.505  12.978  0.0106  0.5956  0.1127
 4630TIP3    H135381   1.955   5.532  12.906 -0.5778  0.7550  0.6209
 4630TIP3    H235382   1.997   5.411  12.986  0.2825  0.5307 -0.1507
 4631TIP3   OH235383   0.440   6.587   4.846  0.1356 -0.0283 -0.0773
 4631TIP3    H135384   0.435   6.565   4.939  0.5747 -0.4117 -0.1407
 4631TIP3    H235385   0.366   6.646   4.831 -0.6706 -0.9670  0.2258
 4632TIP3   OH235386   6.711   5.603  15.610  0.1805 -0.2237  0.2698
 4632TIP3    H135387   6.700   5.663  15.536  0.6771 -0.4086  0.0427
 4632TIP3    H235388   6.656   5.528  15.588 -0.9461  0.4086  0.8519
 4633TIP3   OH235389   5.164   3.287   4.301 -0.0525 -0.3164  0.4842
 4633TIP3    H135390   5.212   3.286   4.218  1.3520 -2.1616  1.2706
 4633TIP3    H235391   5.093   3.349   4.287  2.6956  2.7236 -0.6720
 4634TIP3   OH235392   4.371   2.726  11.242 -0.4898 -0.1738  0.8524
 4634TIP3    H135393   4.461   2.707  11.267 -0.0697 -0.3459 -0.7516
 4634TIP3    H235394   4.354   2.671  11.166 -1.4651  0.9362  0.2393
 4635TIP3   OH235395   1.655   3.412   1.771 -0.2854 -0.1077 -0.2657
 4635TIP3    H135396   1.626   3.367   1.691 -0.0750  0.6861 -0.7876
 4635TIP3    H235397   1.655   3.504   1.748 -3.6776  0.4994  1.7189
 4636TIP3   OH235398   6.343   2.992   5.997 -0.5122 -0.1524 -0.2700
 4636TIP3    H135399   6.310   2.963   6.082  1.4283 -3.0475 -0.4295
 4636TIP3    H235400   6.328   3.086   5.997 -2.2067 -0.3371  2.5242
 4637TIP3   OH235401   4.825   3.376  11.140  0.2274 -0.4218 -0.0316
 4637TIP3    H135402   4.811   3.362  11.046  1.2539  1.7094 -0.5327
 4637TIP3    H235403   4.901   3.434  11.145  0.3683 -0.7452  2.1411
 4638TIP3   OH235404   3.612   6.319  15.150 -0.7001  0.8590  0.5116
 4638TIP3    H135405   3.666   6.342  15.075 -1.1584  0.0241 -0.0837
 4638TIP3    H235406   3.672   6.319  15.224  0.9881 -3.6087 -0.6657
 4639TIP3   OH235407   5.654   0.666  10.885  0.4676 -0.1859  0.2083
 4639TIP3    H135408   5.715   0.705  10.823  0.1053 -0.1069 -0.0997
 4639TIP3    H235409   5.695   0.584  10.911  0.8281 -0.0077  0.2042
 4640TIP3   OH235410   3.002   0.432   3.738  0.1375 -0.1339 -0.0074
 4640TIP3    H135411   3.082   0.476   3.710 -0.1459  0.8630  0.7202
 4640TIP3    H235412   3.031   0.346   3.769  0.7152 -0.4093 -1.2964
 4641TIP3   OH235413   4.739   1.468  14.578  0.3829 -0.2276  0.8581
 4641TIP3    H135414   4.698   1.385  14.601  0.4712  0.0821  2.2206
 4641TIP3    H235415   4.793   1.490  14.655 -0.6633  1.7328  1.0714
 4642TIP3   OH235416   1.213   1.482   2.859 -0.2152  0.0882  0.0171
 4642TIP3    H135417   1.178   1.410   2.912 -2.1319  0.0316 -1.2803
 4642TIP3    H235418   1.239   1.548   2.923 -2.5943  0.0702  1.0423
 4643TIP3   OH235419   4.825   2.111   2.960  0.7328 -0.0761 -0.1085
 4643TIP3    H135420   4.793   2.030   2.923 -2.5227  0.4302  1.4446
 4643TIP3    H235421   4.780   2.180   2.912  0.8527  0.7196  0.8865
 4644TIP3   OH235422   5.462   3.206  14.379  0.5526  0.2366 -0.5282
 4644TIP3    H135423   5.396   3.136  14.383  0.8451 -0.0970 -1.5264
 4644TIP3    H235424   5.523   3.186  14.450  0.3752 -0.2443 -0.5124
 4645TIP3   OH235425   3.741   2.469  14.038  0.1595 -0.3197 -0.0154
 4645TIP3    H135426   3.733   2.562  14.018 -0.5254 -0.3180  0.2515
 4645TIP3    H235427   3.807   2.465  14.107 -1.3117  0.1632  1.4361
 4646TIP3   OH235428   2.854   2.190   3.652  0.0356  0.0240  1.0141
 4646TIP3    H135429   2.878   2.125   3.718  2.2732  0.0058  0.2321
 4646TIP3    H235430   2.917   2.176   3.581 -2.9252 -0.6120 -1.5740
 4647TIP3   OH235431   1.329   0.038  13.987  0.1202  0.0517 -0.0414
 4647TIP3    H135432   1.368   0.075  13.908  0.0386 -0.9327 -0.5472
 4647TIP3    H235433   1.383   0.073  14.058  0.5597  0.4682 -0.5722
 4648TIP3   OH235434   4.900   4.760  11.925 -0.5779 -0.5863  0.0599
 4648TIP3    H135435   4.885   4.682  11.979  1.4741 -0.4228  0.9113
 4648TIP3    H235436   4.848   4.828  11.968 -0.7493 -0.9969  0.5160
 4649TIP3   OH235437   5.318   4.715  12.104 -0.1597  0.0908  0.4848
 4649TIP3    H135438   5.241   4.765  12.076  0.3815  0.2844 -0.7043
 4649TIP3    H235439   5.286   4.625  12.115 -0.5561  0.1679 -0.0105
 4650TIP3   OH235440   6.540   0.963  12.206  0.6749 -0.0170  0.2243
 4650TIP3    H135441   6.552   1.035  12.268 -0.2380  2.3120 -2.2242
 4650TIP3    H235442   6.498   0.894  12.257 -0.7309  2.1026  2.0131
 4651TIP3   OH235443   4.442   1.591  12.063  0.4126  0.3732  0.3089
 4651TIP3    H135444   4.482   1.543  12.135  0.1095 -3.3195 -1.8776
 4651TIP3    H235445   4.349   1.596  12.086  0.0988 -1.9036 -0.3565
 4652TIP3   OH235446   4.399   1.685  12.364 -0.0889  0.1877  0.0626
 4652TIP3    H135447   4.467   1.741  12.326  0.2591  0.2064  0.7122
 4652TIP3    H235448   4.319   1.738  12.357  0.1644  0.6093  0.3160
 4653TIP3   OH235449   0.285   0.223   4.123  0.0019  0.0985 -0.0316
 4653TIP3    H135450   0.208   0.166   4.126  0.4932 -0.6557 -1.3420
 4653TIP3    H235451   0.323   0.207   4.036  0.4877  1.9657 -0.1737
 4654TIP3   OH235452   0.624   1.266  11.575 -0.0917 -0.1768  0.3240
 4654TIP3    H135453   0.582   1.350  11.558  0.6966  0.1455 -0.0575
 4654TIP3    H235454   0.583   1.205  11.513 -0.8052 -0.1238  0.7420
 4655TIP3   OH235455   0.826   1.424   5.173  0.1461 -0.2857  0.1713
 4655TIP3    H135456   0.800   1.363   5.103  2.3556 -0.2460 -0.7036
 4655TIP3    H235457   0.838   1.368   5.250 -0.2007 -0.6132 -0.0085
 4656TIP3   OH235458   1.121   1.842  14.916 -0.4280  0.2820 -0.3224
 4656TIP3    H135459   1.064   1.871  14.987 -0.5494 -0.1839 -0.2291
 4656TIP3    H235460   1.153   1.923  14.876 -2.0603  0.5450 -1.1074
 4657TIP3   OH235461   1.842   3.602  12.258 -0.0149  0.0343 -0.0691
 4657TIP3    H135462   1.929   3.598  12.217 -0.3677 -0.9362 -0.7526
 4657TIP3    H235463   1.781   3.580  12.187 -0.8188  0.6896  0.4062
 4658TIP3   OH235464   2.971   6.568  16.921  0.4373 -0.1072  0.2272
 4658TIP3    H135465   2.889   6.526  16.947  0.4634  0.8210  1.8969
 4658TIP3    H235466   2.964   6.578  16.826 -1.4279  0.0518  0.3541
 4659TIP3   OH235467   3.083   5.958   2.249 -0.2595 -0.2142  0.8628
 4659TIP3    H135468   3.126   5.920   2.325 -1.7934 -1.3895  1.1547
 4659TIP3    H235469   3.089   5.891   2.181  0.3576  0.4995  0.1949
 4660TIP3   OH235470   5.822   4.678   0.731  0.3480  0.1800 -0.3383
 4660TIP3    H135471   5.739   4.713   0.763 -0.0726 -0.2976 -0.9076
 4660TIP3    H235472   5.800   4.594   0.692  1.0047  0.3229 -1.0353
 4661TIP3   OH235473   2.810   5.000  15.879 -0.3772  0.1409  0.1418
 4661TIP3    H135474   2.880   5.015  15.943  0.2231 -2.1467  0.0871
 4661TIP3    H235475   2.849   5.023  15.794 -0.9188  2.4134  0.4812
 4662TIP3   OH235476   6.255   0.839  16.161 -0.9754  0.4607 -0.1858
 4662TIP3    H135477   6.170   0.825  16.203 -0.4853 -0.0732  0.6459
 4662TIP3    H235478   6.275   0.756  16.119 -0.3262  0.2000  0.6171
 4663TIP3   OH235479   5.459   3.471  13.613 -0.1238  0.8832 -0.2322
 4663TIP3    H135480   5.432   3.380  13.625 -0.1451  0.8551 -0.4889
 4663TIP3    H235481   5.448   3.487  13.519  0.3458  1.0001 -0.2658
 4664TIP3   OH235482   4.782   5.786   4.075  0.2640  0.8583  0.4341
 4664TIP3    H135483   4.770   5.692   4.085 -0.0346  0.9157  0.6126
 4664TIP3    H235484   4.866   5.795   4.030  0.3854  0.5131  0.5916
 4665TIP3   OH235485   4.251   5.534  11.147 -0.8745 -0.0219 -0.7680
 4665TIP3    H135486   4.181   5.550  11.084  0.4643  0.3432 -2.1602
 4665TIP3    H235487   4.317   5.484  11.099  0.0619  0.0628  0.3985
 4666TIP3   OH235488   2.327   4.294   4.717 -0.1613  0.6368  0.3216
 4666TIP3    H135489   2.298   4.234   4.786  0.8887 -0.4509 -0.1679
 4666TIP3    H235490   2.270   4.275   4.643  1.2438 -0.9683 -0.3883
 4667TIP3   OH235491   4.734   3.201   3.983  0.3554 -0.2471  0.2145
 4667TIP3    H135492   4.820   3.218   4.020  1.2211 -1.3280 -1.2483
 4667TIP3    H235493   4.687   3.154   4.051  1.0780 -0.0728  0.8390
 4668TIP3   OH235494   4.341   3.910  11.685 -0.3159  0.2857  0.0698
 4668TIP3    H135495   4.274   3.890  11.620 -0.5934 -1.1771  0.8017
 4668TIP3    H235496   4.380   3.992  11.654 -1.1511  0.1558 -1.3702
 4669TIP3   OH235497   4.688   3.254  13.449 -0.3965 -0.4339  0.2835
 4669TIP3    H135498   4.603   3.298  13.445  0.0818  0.4672  0.0369
 4669TIP3    H235499   4.730   3.275  13.366 -0.4220 -1.9001 -0.1178
 4670TIP3   OH235500   1.823   4.984   1.259 -0.2668  0.0622  0.2786
 4670TIP3    H135501   1.855   4.921   1.324 -0.8469 -0.0762  0.4272
 4670TIP3    H235502   1.902   5.008   1.210  0.1876  0.2240  1.0714
 4671TIP3   OH235503   3.719   6.394  16.975 -0.2073 -0.2568  0.3184
 4671TIP3    H135504   3.735   6.458  17.044  2.3437 -0.2097 -0.2827
 4671TIP3    H235505   3.806   6.365  16.947 -1.2097 -1.1491 -2.0625
 4672TIP3   OH235506   3.971   2.185  16.413  0.1020  0.5945 -0.5640
 4672TIP3    H135507   4.003   2.177  16.323 -0.9161 -1.7501 -0.7526
 4672TIP3    H235508   3.891   2.237  16.405  1.0309  2.0238 -0.7494
 4673TIP3   OH235509   2.317   2.065   0.766  0.5111 -0.2351 -0.3212
 4673TIP3    H135510   2.311   2.158   0.746  1.9427 -0.3983 -1.5866
 4673TIP3    H235511   2.278   2.057   0.853  0.0269  1.4839 -0.3635
 4674TIP3   OH235512   0.791   0.688   4.728  0.5421  0.0156  0.4761
 4674TIP3    H135513   0.848   0.618   4.695 -0.2858 -1.1639  1.4766
 4674TIP3    H235514   0.721   0.642   4.773  0.6143  1.5310  2.1905
 4675TIP3   OH235515   2.501   4.681   5.433 -0.4895 -0.5603  0.0661
 4675TIP3    H135516   2.414   4.674   5.392 -0.4701  2.0256 -0.4647
 4675TIP3    H235517   2.562   4.676   5.360 -0.2286 -1.1238  0.3196
 4676TIP3   OH235518   1.519   1.490  14.226 -0.2094 -0.4416  0.2170
 4676TIP3    H135519   1.543   1.528  14.141  0.9185 -0.7986  0.3603
 4676TIP3    H235520   1.550   1.555  14.290  0.2224 -0.8239  0.4004
 4677TIP3   OH235521   5.825   0.794  11.132 -0.2572 -0.0735 -0.5356
 4677TIP3    H135522   5.804   0.886  11.122  0.6280  0.0396 -1.4265
 4677TIP3    H235523   5.821   0.758  11.044  0.7955 -0.5733 -0.3884
 4678TIP3   OH235524   4.021   2.887  15.814 -0.2202 -0.1853 -0.0942
 4678TIP3    H135525   4.061   2.814  15.862 -0.5243  0.8466  1.7780
 4678TIP3    H235526   4.091   2.952  15.808 -0.5487  0.1857  0.0669
 4679TIP3   OH235527   4.372   0.021  16.031  0.1114  1.0991  0.2682
 4679TIP3    H135528   4.347  -0.004  16.120  1.2266  0.7574  0.4960
 4679TIP3    H235529   4.460  -0.016  16.019 -0.7388 -0.3703 -1.6110
 4680TIP3   OH235530   4.126   5.903   5.717  0.7398 -0.0592 -0.3498
 4680TIP3    H135531   4.206   5.851   5.707  2.3246  2.1177  0.3878
 4680TIP3    H235532   4.131   5.968   5.647 -0.6254 -0.1591 -0.5579
 4681TIP3   OH235533   3.341   1.871  14.573  0.0821  0.1228 -0.0724
 4681TIP3    H135534   3.371   1.925  14.647 -1.3282 -0.2126  0.7547
 4681TIP3    H235535   3.395   1.900  14.499  1.0920  0.8925  0.9454
 4682TIP3   OH235536   1.138   6.607   2.789 -0.7508 -0.7278  0.3835
 4682TIP3    H135537   1.192   6.581   2.714  0.3130 -0.8349  1.1698
 4682TIP3    H235538   1.057   6.638   2.751  0.6912  1.5272 -0.9675
 4683TIP3   OH235539   6.108   0.052   5.080 -0.1295  0.1071  0.1276
 4683TIP3    H135540   6.187   0.005   5.056 -0.1561  0.0201  0.2098
 4683TIP3    H235541   6.075   0.087   4.997  0.5462  1.0042  0.2296
 4684TIP3   OH235542   5.957   0.224   0.860 -0.1027 -0.0697 -0.4754
 4684TIP3    H135543   5.977   0.210   0.953  0.5435 -0.8841 -0.7233
 4684TIP3    H235544   6.005   0.154   0.816 -2.1236 -0.9919 -1.2592
 4685TIP3   OH235545   1.072   5.540   1.894  0.4911  0.1962  0.3901
 4685TIP3    H135546   1.039   5.554   1.805 -1.2579 -2.5742  0.5153
 4685TIP3    H235547   1.161   5.507   1.883  1.0961  2.0077 -0.2218
 4686TIP3   OH235548   0.919   2.331  12.689 -0.5755 -0.2691 -0.1567
 4686TIP3    H135549   0.839   2.383  12.694 -1.7407 -2.0115 -0.0751
 4686TIP3    H235550   0.936   2.323  12.595  0.6962  1.8363 -0.1309
 4687TIP3   OH235551   0.954   2.684   0.018  0.6019  0.1828  0.2883
 4687TIP3    H135552   1.027   2.641  -0.027  1.7090  1.1266  1.1558
 4687TIP3    H235553   0.892   2.614   0.037  0.9457 -0.5110 -1.1111
 4688TIP3   OH235554   1.229   3.590   4.511 -0.1386  0.2374  0.5359
 4688TIP3    H135555   1.255   3.679   4.487  1.0976 -0.0479  0.8177
 4688TIP3    H235556   1.305   3.554   4.556 -0.4314 -1.1619 -0.0768
 4689TIP3   OH235557   6.762   6.374  12.481 -0.1758 -0.5495  0.1299
 4689TIP3    H135558   6.786   6.341  12.568  2.8406  0.4557 -0.2779
 4689TIP3    H235559   6.743   6.295  12.430 -0.1538 -1.2498  1.1832
 4690TIP3   OH235560   4.053   0.380  11.676 -0.6829  0.5340 -0.2405
 4690TIP3    H135561   4.008   0.463  11.660 -0.9035  0.5166  0.2802
 4690TIP3    H235562   4.074   0.381  11.769 -0.5713  0.0665 -0.2576
 4691TIP3   OH235563   3.911   6.543   1.193 -0.3626 -0.0275 -0.4064
 4691TIP3    H135564   3.987   6.507   1.146 -0.9290 -1.3698 -0.3135
 4691TIP3    H235565   3.919   6.510   1.282 -0.5107  0.6730 -0.1264
 4692TIP3   OH235566   4.134   2.763   2.412 -0.1171  0.5312 -0.0002
 4692TIP3    H135567   4.173   2.844   2.445  0.3222  0.2698  0.1248
 4692TIP3    H235568   4.182   2.693   2.456 -1.5081  0.2030  1.0475
 4693TIP3   OH235569   3.578   2.356  11.542  0.4537 -0.0189 -0.0805
 4693TIP3    H135570   3.507   2.297  11.517  0.0570  0.3330  0.2279
 4693TIP3    H235571   3.599   2.332  11.632 -2.2887  2.8377  1.4226
 4694TIP3   OH235572   4.312   0.794  16.915 -0.4034  0.1066 -0.0791
 4694TIP3    H135573   4.275   0.706  16.910 -1.1485  0.4408 -0.5667
 4694TIP3    H235574   4.378   0.789  16.984 -1.8192 -0.3587  1.2685
 4695TIP3   OH235575   6.229   2.615   1.902 -0.2858  0.0130  0.0687
 4695TIP3    H135576   6.137   2.590   1.895 -0.3943  0.1694  0.8965
 4695TIP3    H235577   6.232   2.703   1.865 -0.3244 -0.3052 -0.6940
 4696TIP3   OH235578   0.078   1.119   0.644 -0.4039  0.1029  0.4443
 4696TIP3    H135579   0.093   1.123   0.549  0.7846  2.3363  0.6795
 4696TIP3    H235580   0.030   1.038   0.658 -0.7305 -0.1725 -2.0996
 4697TIP3   OH235581   0.230   3.395  12.550  0.5941 -0.2175 -0.4787
 4697TIP3    H135582   0.297   3.418  12.614  1.8820  0.9412 -2.1920
 4697TIP3    H235583   0.152   3.442  12.579  1.6744  1.8404 -0.7591
 4698TIP3   OH235584   6.135   4.241  12.799 -0.4208  0.1011 -0.4311
 4698TIP3    H135585   6.123   4.237  12.705 -0.3533  2.1006 -0.5398
 4698TIP3    H235586   6.081   4.314  12.828  0.4065  0.2070  0.9211
 4699TIP3   OH235587   0.213   3.380  14.248 -0.2052 -0.5133  0.9322
 4699TIP3    H135588   0.208   3.396  14.154  0.1789 -1.4769  0.7413
 4699TIP3    H235589   0.307   3.375  14.267 -0.2933 -1.2787  1.1944
 4700TIP3   OH235590   0.308   5.628  11.963 -0.2592 -0.1396 -0.4303
 4700TIP3    H135591   0.391   5.590  11.935  0.0911  2.1990 -2.6904
 4700TIP3    H235592   0.333   5.691  12.031 -0.1544  0.6447 -1.1884
 4701TIP3   OH235593   3.150   3.736  14.065 -0.1278  0.1630 -0.1480
 4701TIP3    H135594   3.057   3.738  14.040 -0.2109 -0.6256  0.1134
 4701TIP3    H235595   3.197   3.752  13.983 -0.4208 -1.8175 -0.7107
 4702TIP3   OH235596   2.770   4.722   5.242 -0.3305 -0.1659  0.0245
 4702TIP3    H135597   2.842   4.699   5.183  0.9454 -0.1690  1.5635
 4702TIP3    H235598   2.743   4.809   5.214 -0.3349 -0.5313 -1.1371
 4703TIP3   OH235599   2.045   4.959  13.317 -0.4320 -0.3112  0.2948
 4703TIP3    H135600   1.962   5.005  13.302  0.5878  1.8403  1.1071
 4703TIP3    H235601   2.111   5.028  13.314  1.0506 -1.6083  2.3558
 4704TIP3   OH235602   6.354   0.475   5.549  0.4106  0.2118  0.6918
 4704TIP3    H135603   6.279   0.448   5.497  1.9066 -0.6013 -1.0827
 4704TIP3    H235604   6.351   0.419   5.627 -0.8984  0.3067  0.7163
 4705TIP3   OH235605   0.773   2.628  15.125  0.9849  0.5136 -0.7289
 4705TIP3    H135606   0.830   2.632  15.202 -0.9358  0.1183  0.7460
 4705TIP3    H235607   0.788   2.711  15.080  1.1440  1.3338  0.7988
 4706TIP3   OH235608   3.496   6.701   2.848  0.5991  0.7649  0.1909
 4706TIP3    H135609   3.578   6.681   2.802  0.0426 -0.6764 -0.1993
 4706TIP3    H235610   3.450   6.618   2.852 -0.5407  1.4225  1.0470
 4707TIP3   OH235611   4.140   3.732  15.609  0.1041 -0.0334 -0.8805
 4707TIP3    H135612   4.156   3.768  15.696 -1.2223 -0.1072 -0.5969
 4707TIP3    H235613   4.216   3.678  15.591  0.7640  0.6356 -0.1077
 4708TIP3   OH235614   2.752   5.883   3.292  0.3294 -0.0277 -0.3110
 4708TIP3    H135615   2.745   5.967   3.338  0.8581  1.4898 -2.8966
 4708TIP3    H235616   2.722   5.818   3.355 -1.4546  2.2665  1.2522
 4709TIP3   OH235617   2.757   5.730  11.726  0.5021 -0.8931 -0.5037
 4709TIP3    H135618   2.734   5.763  11.639 -1.0404 -1.9535 -0.5164
 4709TIP3    H235619   2.835   5.677  11.711  0.8022 -0.2996 -1.0792
 4710TIP3   OH235620   5.581   6.332   4.651  0.3563  0.0146  0.3615
 4710TIP3    H135621   5.559   6.374   4.734 -1.1887 -0.1666  0.0446
 4710TIP3    H235622   5.627   6.399   4.601  1.3733  0.0988  1.3861
 4711TIP3   OH235623   3.028   1.587  11.648 -0.2967 -0.2100 -0.1658
 4711TIP3    H135624   3.080   1.514  11.613 -0.7428 -0.2252 -0.7996
 4711TIP3    H235625   2.963   1.604  11.581 -0.6424  0.3083  0.3013
 4712TIP3   OH235626   3.065   3.530  14.978  0.4934 -0.1352  0.4168
 4712TIP3    H135627   3.085   3.570  14.894 -1.4475  2.1532  0.9999
 4712TIP3    H235628   2.987   3.477  14.962 -0.7864  1.5161  1.0874
 4713TIP3   OH235629   2.311   0.332  15.434 -0.0804 -0.1449  0.1687
 4713TIP3    H135630   2.323   0.409  15.489  1.1479 -0.2322  0.0355
 4713TIP3    H235631   2.230   0.292  15.466  0.9367 -0.5285  2.3212
 4714TIP3   OH235632   4.624   0.275   5.817  0.2561 -0.0186 -0.6309
 4714TIP3    H135633   4.595   0.186   5.799 -0.1606  0.0445 -0.2872
 4714TIP3    H235634   4.675   0.300   5.740  1.4936 -1.0297 -0.1465
 4715TIP3   OH235635   1.958   3.354   6.161  0.9522  0.8437  0.0208
 4715TIP3    H135636   1.985   3.266   6.189  0.2547  1.3594  2.4110
 4715TIP3    H235637   2.030   3.410   6.189 -0.4453  1.5816  2.2048
 4716TIP3   OH235638   5.925   4.052   1.393 -0.6430 -0.1785 -0.1516
 4716TIP3    H135639   6.003   4.022   1.347 -2.6634 -2.6302 -2.1710
 4716TIP3    H235640   5.957   4.115   1.457  2.8541 -0.4438 -1.5354
 4717TIP3   OH235641   0.391   4.925   5.649 -0.2777  0.2319  0.0011
 4717TIP3    H135642   0.329   4.854   5.632 -0.3865  0.6755 -1.5480
 4717TIP3    H235643   0.338   5.005   5.642  0.8432  0.7632 -3.5998
 4718TIP3   OH235644   6.359   2.473   3.453  0.1658 -0.1303 -0.3093
 4718TIP3    H135645   6.345   2.568   3.443  0.8651  0.3005  2.2459
 4718TIP3    H235646   6.272   2.435   3.451 -0.3894  0.9593  1.7494
 4719TIP3   OH235647   0.280   1.042  14.004  0.0938 -0.2169 -0.0442
 4719TIP3    H135648   0.293   0.969  14.065  2.2644 -0.0433 -0.2674
 4719TIP3    H235649   0.368   1.078  13.991 -0.6157  0.8840 -1.8759
 4720TIP3   OH235650   5.176   0.691   3.798  0.0975  0.0061  0.3541
 4720TIP3    H135651   5.169   0.681   3.703 -0.4384  0.4354  0.3480
 4720TIP3    H235652   5.251   0.637   3.822 -1.8462 -2.8757  0.1464
 4721TIP3   OH235653   2.496   1.456  15.734  0.2693 -0.3516 -0.0429
 4721TIP3    H135654   2.550   1.459  15.655 -1.6500  0.7623 -1.3550
 4721TIP3    H235655   2.510   1.541  15.775  0.5571 -0.5787  0.3270
 4722TIP3   OH235656   0.320   2.756   2.805 -0.1622 -0.0940  0.4560
 4722TIP3    H135657   0.402   2.783   2.765 -0.8333  1.7138  0.2503
 4722TIP3    H235658   0.260   2.828   2.788 -1.0568 -0.1985  2.8869
 4723TIP3   OH235659   2.030   5.128  12.464  0.4279  0.2393 -0.4750
 4723TIP3    H135660   1.996   5.066  12.400 -1.2485 -0.7355  1.3145
 4723TIP3    H235661   1.996   5.213  12.436  0.5281 -0.0227 -1.4168
 4724TIP3   OH235662   2.905   5.625   0.511 -0.0310 -0.0194 -0.2129
 4724TIP3    H135663   2.824   5.651   0.555  1.1070  0.4394  1.6691
 4724TIP3    H235664   2.951   5.572   0.576  1.8481  0.9547 -0.7227
 4725TIP3   OH235665   0.344   4.488  12.216 -0.5635 -0.4919  0.1821
 4725TIP3    H135666   0.299   4.524  12.293 -0.8569 -0.0526 -0.1856
 4725TIP3    H235667   0.430   4.460  12.249 -0.5896 -0.0737  0.6180
 4726TIP3   OH235668   1.135   3.791   3.097  0.4865  0.0611  0.6532
 4726TIP3    H135669   1.229   3.784   3.081  0.0163  0.2768 -2.4662
 4726TIP3    H235670   1.099   3.707   3.069 -0.4600  0.6401  0.0961
 4727TIP3   OH235671   1.304   1.606   5.927 -0.0455  0.1580  0.0764
 4727TIP3    H135672   1.371   1.628   5.863 -0.2646  1.3128  0.2293
 4727TIP3    H235673   1.258   1.531   5.889 -0.3524  1.0016 -1.2638
 4728TIP3   OH235674   0.288   5.005   5.903 -0.0228 -0.3286 -0.5676
 4728TIP3    H135675   0.312   5.037   5.816  1.0644  0.2483 -0.0695
 4728TIP3    H235676   0.363   5.027   5.958 -1.2477  0.5285  0.8125
 4729TIP3   OH235677   3.520   5.613   3.837 -0.6795  0.0901 -0.1157
 4729TIP3    H135678   3.554   5.632   3.749 -1.6981  1.6710 -0.1842
 4729TIP3    H235679   3.597   5.622   3.894 -0.0979 -0.5364 -0.7921
 4730TIP3   OH235680   0.330   2.752  17.065 -0.3249 -0.3842 -0.7026
 4730TIP3    H135681   0.259   2.816  17.057  1.1283  1.1426 -1.6911
 4730TIP3    H235682   0.315   2.690  16.995 -2.6551 -2.0890  1.2265
 4731TIP3   OH235683   6.469   6.343  12.072  0.6779 -0.2856 -0.2183
 4731TIP3    H135684   6.378   6.317  12.061  0.8219 -0.7180 -0.3964
 4731TIP3    H235685   6.470   6.394  12.152  0.7307 -2.4827  1.2307
 4732TIP3   OH235686   4.000   3.744   1.596  0.6056 -0.1889  0.5903
 4732TIP3    H135687   4.067   3.752   1.664  1.9067  0.7328 -0.7483
 4732TIP3    H235688   4.009   3.655   1.563  0.8335 -0.2414  0.7951
 4733TIP3   OH235689   6.571   5.027  15.828 -0.1673 -0.2245  0.0468
 4733TIP3    H135690   6.518   4.948  15.831  1.0760 -1.0797 -0.4449
 4733TIP3    H235691   6.548   5.075  15.907 -1.7624 -0.5311 -0.2236
 4734TIP3   OH235692   3.349   3.188   2.032  0.0579  0.2184 -0.0678
 4734TIP3    H135693   3.316   3.198   1.942  0.9697  0.2820 -0.4017
 4734TIP3    H235694   3.382   3.099   2.035  1.1580  0.6057 -0.1863
 4735TIP3   OH235695   6.426   3.666  14.634 -0.3829 -0.0723  0.0199
 4735TIP3    H135696   6.427   3.578  14.671 -1.1508 -0.6701 -1.3572
 4735TIP3    H235697   6.414   3.653  14.540 -4.0665  1.6145  0.1683
 4736TIP3   OH235698   0.875   0.192  17.259 -0.5423 -0.1977  0.2016
 4736TIP3    H135699   0.963   0.187  17.222 -0.3869  0.8116  0.4202
 4736TIP3    H235700   0.838   0.105  17.245  0.4688 -0.6090  0.0498
 4737TIP3   OH235701   2.497   1.361  11.662 -0.2146 -0.2995 -0.1999
 4737TIP3    H135702   2.490   1.449  11.698 -1.6422  0.2505 -1.7467
 4737TIP3    H235703   2.517   1.305  11.737  0.5900  1.3288  0.8038
 4738TIP3   OH235704   2.960   2.386   2.715 -0.1714 -1.0236  0.0384
 4738TIP3    H135705   2.870   2.373   2.685 -0.8811 -0.2796  1.7822
 4738TIP3    H235706   2.967   2.481   2.728  1.2532 -0.9304 -1.2258
 4739TIP3   OH235707   5.704   4.097   3.777  0.0559 -0.4837  0.1203
 4739TIP3    H135708   5.672   4.181   3.742  0.5260 -0.7978 -1.0954
 4739TIP3    H235709   5.729   4.117   3.867 -0.6135  0.4910  0.1048
 4740TIP3   OH235710   3.190   0.217  16.638 -0.0123 -0.2919  0.3748
 4740TIP3    H135711   3.111   0.261  16.608 -1.6591 -2.3523  1.5136
 4740TIP3    H235712   3.236   0.282  16.691 -1.4118  0.6667  0.4316
 4741TIP3   OH235713   4.807   5.534   2.255 -0.3992  0.5262 -0.8440
 4741TIP3    H135714   4.809   5.528   2.159 -0.2911  0.6744 -0.8516
 4741TIP3    H235715   4.714   5.535   2.277 -0.4725  2.7324 -1.0937
 4742TIP3   OH235716   2.532   2.856  13.907  0.1701 -0.0612  0.2982
 4742TIP3    H135717   2.487   2.893  13.982 -1.2208 -1.2034  0.0571
 4742TIP3    H235718   2.462   2.841  13.843  0.9469 -1.5099 -0.2272
 4743TIP3   OH235719   4.750   2.368   1.620  0.2460  0.7138  0.2083
 4743TIP3    H135720   4.695   2.304   1.664  0.3555 -0.3716 -1.2102
 4743TIP3    H235721   4.840   2.345   1.645  0.2765  0.4228 -0.1791
 4744TIP3   OH235722   1.618   6.665  12.231  0.0737  0.3668  0.0641
 4744TIP3    H135723   1.666   6.689  12.309  0.0246 -3.0332  1.2225
 4744TIP3    H235724   1.681   6.617  12.177 -0.9585 -0.8332 -0.1110
 4745TIP3   OH235725   0.207   3.281   3.427  0.1666 -0.1060  0.1629
 4745TIP3    H135726   0.207   3.317   3.516 -1.6199  0.0174  0.1473
 4745TIP3    H235727   0.151   3.342   3.378  0.6691 -0.5043 -0.9067
 4746TIP3   OH235728   0.905   0.737  14.773  0.6437  0.1958 -0.4131
 4746TIP3    H135729   0.823   0.775  14.802  0.1022 -1.0888 -0.2263
 4746TIP3    H235730   0.971   0.804  14.791 -0.2250  0.8536  0.3106
 4747TIP3   OH235731   2.592   1.357   3.851  0.3642  0.3072  0.1397
 4747TIP3    H135732   2.560   1.287   3.794  1.9744 -0.1208 -0.2620
 4747TIP3    H235733   2.528   1.362   3.922 -0.2908 -0.8945 -0.3577
 4748TIP3   OH235734   0.808   3.374  14.416 -0.2165  0.1088 -0.5452
 4748TIP3    H135735   0.889   3.377  14.364  1.1860 -2.7175  1.3504
 4748TIP3    H235736   0.762   3.296  14.384  1.6438 -2.9301  3.6138
 4749TIP3   OH235737   4.950   1.871   4.623 -0.1641  0.7532  0.0237
 4749TIP3    H135738   4.975   1.960   4.600 -0.5193  0.8905  0.1505
 4749TIP3    H235739   4.894   1.882   4.700 -1.1910  0.5145 -0.6822
 4750TIP3   OH235740   4.596   2.910   1.161  0.1928  0.3037  0.0479
 4750TIP3    H135741   4.613   2.897   1.067  1.0781 -1.5219  0.4318
 4750TIP3    H235742   4.565   2.824   1.191  1.2728  0.4850  1.7079
 4751TIP3   OH235743   6.776   6.055   1.658 -0.1730  0.2237  0.2473
 4751TIP3    H135744   6.738   6.127   1.708  0.4068  0.0056  0.9994
 4751TIP3    H235745   6.786   5.984   1.721 -0.0409 -0.2692 -0.3244
 4752TIP3   OH235746   2.917   5.202  13.549  0.1472 -0.6274 -0.1334
 4752TIP3    H135747   2.981   5.250  13.602  2.6104 -1.9385 -1.8159
 4752TIP3    H235748   2.941   5.110  13.561 -0.9092 -1.0869 -1.4792
 4753TIP3   OH235749   2.407   5.318  15.299 -0.2926  0.2468 -0.6362
 4753TIP3    H135750   2.335   5.381  15.305 -1.1956 -0.6208 -2.0490
 4753TIP3    H235751   2.366   5.238  15.268  0.6793 -1.3358  2.0019
 4754TIP3   OH235752   3.717   3.372   4.974 -0.3403  0.9692  0.9665
 4754TIP3    H135753   3.654   3.320   5.023  0.0454 -0.9293 -0.4852
 4754TIP3    H235754   3.799   3.362   5.022 -0.5025  1.1448  1.2842
 4755TIP3   OH235755   4.174   0.722   4.009  0.5554  0.2344 -0.0248
 4755TIP3    H135756   4.112   0.791   4.032  0.2487  0.0813 -0.3666
 4755TIP3    H235757   4.239   0.723   4.078 -0.4404 -0.3448  0.9418
 4756TIP3   OH235758   2.291   0.770   5.793 -0.1560  0.2621 -0.4010
 4756TIP3    H135759   2.211   0.782   5.844 -0.9272  2.9727 -2.1373
 4756TIP3    H235760   2.270   0.699   5.733 -0.1223 -1.2137  1.2970
 4757TIP3   OH235761   2.695   1.485  12.347 -0.0544 -0.0562  0.2166
 4757TIP3    H135762   2.747   1.437  12.282  0.3521 -2.1665  2.0248
 4757TIP3    H235763   2.608   1.494  12.307 -0.6767 -3.9461  0.4970
 4758TIP3   OH235764   2.418   5.674  12.356 -0.0994 -0.3429 -0.0375
 4758TIP3    H135765   2.426   5.757  12.308  1.0880  0.1579  1.0079
 4758TIP3    H235766   2.452   5.693  12.443 -2.2192 -1.2546  1.0305
 4759TIP3   OH235767   1.107   5.113  13.874 -0.1693  0.2624  0.4203
 4759TIP3    H135768   1.103   5.018  13.879  0.2956  0.1726 -0.9305
 4759TIP3    H235769   1.118   5.141  13.965 -0.1029 -0.9750  0.8011
 4760TIP3   OH235770   3.147   4.578  13.835  0.3362  0.1095 -0.2548
 4760TIP3    H135771   3.200   4.502  13.858  0.2885 -0.1605 -0.9955
 4760TIP3    H235772   3.208   4.636  13.789  0.4302  0.6314  0.5277
 4761TIP3   OH235773   4.256   5.830  14.433 -0.3160  0.1548 -0.0984
 4761TIP3    H135774   4.347   5.856  14.443 -0.4884  0.6943  0.0979
 4761TIP3    H235775   4.251   5.795  14.344  0.1287 -0.0771 -0.0319
 4762TIP3   OH235776   4.173   6.464   2.678 -0.8966  0.6454  0.1818
 4762TIP3    H135777   4.147   6.481   2.587  0.5404 -2.1570 -0.7875
 4762TIP3    H235778   4.269   6.465   2.676 -0.8323 -1.5165  1.2251
 4763TIP3   OH235779   0.941   4.066   5.866 -0.1592 -0.4594  0.4037
 4763TIP3    H135780   0.977   4.048   5.953  0.2235  2.9451  1.0121
 4763TIP3    H235781   0.850   4.091   5.883 -0.1774 -0.1037 -0.2100
 4764TIP3   OH235782   6.025   2.553   2.114 -0.1557  0.1027  0.0513
 4764TIP3    H135783   6.077   2.630   2.134  1.3220 -0.6858 -0.7236
 4764TIP3    H235784   5.951   2.586   2.063  0.9620  0.8855 -1.0817
 4765TIP3   OH235785   0.204   1.309  10.335  0.0663  0.1397 -0.2355
 4765TIP3    H135786   0.117   1.347  10.322 -0.8421 -1.8276 -0.1742
 4765TIP3    H235787   0.200   1.225  10.288  1.7371 -0.2326  0.2532
 4766TIP3   OH235788   5.407   2.529   1.613 -0.5108  0.5721  0.2049
 4766TIP3    H135789   5.317   2.527   1.646 -0.3782 -0.7544  0.5254
 4766TIP3    H235790   5.430   2.437   1.598  1.0060  0.8414  0.7200
 4767TIP3   OH235791   0.750   4.861   2.184 -0.0910 -0.2906 -0.2143
 4767TIP3    H135792   0.805   4.820   2.252 -1.3330  0.7172  1.4331
 4767TIP3    H235793   0.808   4.867   2.108  2.8809  2.7842  2.1164
 4768TIP3   OH235794   3.631   1.162  15.382 -0.0735  0.1291 -0.2620
 4768TIP3    H135795   3.551   1.214  15.380 -0.6888 -0.7717  0.7757
 4768TIP3    H235796   3.678   1.193  15.459  0.0017 -0.2030 -0.1752
 4769TIP3   OH235797   5.436   0.414   6.148  0.8726  0.1906  0.1352
 4769TIP3    H135798   5.394   0.366   6.077  2.1806 -0.1129 -0.4491
 4769TIP3    H235799   5.404   0.371   6.228  1.5684 -1.2698 -0.3647
 4770TIP3   OH235800   0.299   2.405   2.899  0.5121 -0.3051 -0.6067
 4770TIP3    H135801   0.210   2.437   2.910  0.8140  0.5727 -0.6518
 4770TIP3    H235802   0.290   2.323   2.850 -0.4463 -1.4503  1.4025
 4771TIP3   OH235803   0.341   6.812   3.502 -0.7674 -0.0579  0.2374
 4771TIP3    H135804   0.380   6.886   3.548 -2.6007 -0.6896  2.8854
 4771TIP3    H235805   0.383   6.813   3.416  0.4080  3.0697  0.7824
 4772TIP3   OH235806   5.914   1.468  15.925 -0.1232 -0.2122  0.0236
 4772TIP3    H135807   5.861   1.414  15.983  0.6178 -0.5468  0.4025
 4772TIP3    H235808   5.853   1.499  15.858 -1.3848  1.6847  1.9973
 4773TIP3   OH235809   1.019   4.572   1.513 -0.0933 -0.1059 -0.1475
 4773TIP3    H135810   0.952   4.532   1.569  0.9630 -0.2552  1.0247
 4773TIP3    H235811   0.977   4.651   1.479 -1.5258 -1.1863 -0.9341
 4774TIP3   OH235812   1.716   5.834  13.446  0.4607  0.1069 -0.2449
 4774TIP3    H135813   1.678   5.825  13.359  0.4769  1.8464 -0.4545
 4774TIP3    H235814   1.645   5.869  13.500  0.5726 -0.5613  0.3448
 4775TIP3   OH235815   2.482   3.959  15.768  0.0128 -0.0402  0.1654
 4775TIP3    H135816   2.425   3.889  15.737 -3.5574  2.0470  1.7312
 4775TIP3    H235817   2.514   3.928  15.853 -0.2987 -0.4270  0.1397
 4776TIP3   OH235818   3.215   3.146   5.637 -0.5439 -0.1147 -0.0525
 4776TIP3    H135819   3.288   3.086   5.650  1.0008  1.9820  1.4496
 4776TIP3    H235820   3.226   3.178   5.547  1.1704  1.1354  0.5774
 4777TIP3   OH235821   3.178   4.803   0.931  0.1398  0.8440 -0.1890
 4777TIP3    H135822   3.192   4.710   0.916 -0.5802  0.8225 -0.7814
 4777TIP3    H235823   3.239   4.846   0.871  1.9308  0.7650  1.5490
 4778TIP3   OH235824   1.569   1.926  16.181  0.1190 -0.0313  0.7306
 4778TIP3    H135825   1.493   1.984  16.184  1.3277  1.6102  0.6761
 4778TIP3    H235826   1.550   1.857  16.244 -3.2369 -1.9686 -2.2173
 4779TIP3   OH235827   3.535   2.795   0.156  0.2501  0.0073  0.0044
 4779TIP3    H135828   3.609   2.787   0.096 -0.0882  0.7155 -0.5207
 4779TIP3    H235829   3.568   2.849   0.227  0.7904 -1.2132  0.6889
 4780TIP3   OH235830   4.147   1.881  12.596  0.0565 -0.0419  0.0575
 4780TIP3    H135831   4.140   1.794  12.636 -0.4401 -0.8757 -1.8176
 4780TIP3    H235832   4.059   1.919  12.605 -0.3281 -0.6341 -1.1376
 4781TIP3   OH235833   1.508   1.848   3.760 -0.4692 -0.0753  0.0134
 4781TIP3    H135834   1.570   1.814   3.695 -0.0061 -0.1676  0.4957
 4781TIP3    H235835   1.425   1.806   3.738 -0.3841  0.1087 -0.6871
 4782TIP3   OH235836   2.883   4.508  13.035 -0.3244  0.2798 -0.0257
 4782TIP3    H135837   2.928   4.444  13.090 -1.4562 -1.7536 -1.3941
 4782TIP3    H235838   2.820   4.457  12.985  0.5648  2.0484 -3.1302
 4783TIP3   OH235839   5.076   0.696   3.015  0.6095  0.1855  0.2723
 4783TIP3    H135840   5.144   0.761   2.999  1.5298 -0.6237  0.8560
 4783TIP3    H235841   5.042   0.717   3.102 -0.3949  1.0349 -0.3207
 4784TIP3   OH235842   0.127   0.061   3.336  0.0550 -0.0761  0.1140
 4784TIP3    H135843   0.156  -0.003   3.400 -0.5568  0.3781  0.8549
 4784TIP3    H235844   0.149   0.146   3.374 -2.5589  0.2972  0.8900
 4785TIP3   OH235845   3.460   3.297   0.225 -0.4943 -0.0339  0.1288
 4785TIP3    H135846   3.554   3.303   0.206 -0.7875 -1.0667 -1.6548
 4785TIP3    H235847   3.455   3.237   0.300  0.3068  0.5990  0.7090
 4786TIP3   OH235848   3.524   4.019   0.204  0.5707 -0.1548  0.0497
 4786TIP3    H135849   3.461   3.959   0.243 -0.8189  0.6285 -0.9429
 4786TIP3    H235850   3.548   3.980   0.120  0.4251  0.1747 -0.1491
 4787TIP3   OH235851   1.833   2.205   4.949 -0.5687 -0.2685 -0.4771
 4787TIP3    H135852   1.881   2.244   4.877 -0.5047 -0.0954 -0.3387
 4787TIP3    H235853   1.744   2.193   4.914 -1.1541  1.9781  0.1844
 4788TIP3   OH235854   1.512   4.614  11.110  0.4890  0.3554  0.4411
 4788TIP3    H135855   1.582   4.557  11.143  0.5979  0.9573  1.2593
 4788TIP3    H235856   1.470   4.563  11.041  1.0598 -0.4314  0.6718
 4789TIP3   OH235857   4.882   5.894  11.472  0.9011 -0.3168 -0.1026
 4789TIP3    H135858   4.827   5.917  11.397  0.0303 -0.3703  0.5114
 4789TIP3    H235859   4.971   5.919  11.446  0.0577  3.4703  0.4495
 4790TIP3   OH235860   5.547   4.412   6.410 -0.2792  0.5532  0.0513
 4790TIP3    H135861   5.465   4.390   6.453  0.1479  1.0065  1.1366
 4790TIP3    H235862   5.550   4.508   6.412  1.0472  0.5078  1.5653
 4791TIP3   OH235863   6.222   4.053  16.563  0.6007 -0.2541  0.4460
 4791TIP3    H135864   6.248   3.979  16.509  1.8137 -0.0225  0.7118
 4791TIP3    H235865   6.286   4.055  16.635 -0.5266 -0.0864  1.4645
 4792TIP3   OH235866   2.768   3.734   5.135  0.4057  0.0498 -0.0397
 4792TIP3    H135867   2.796   3.755   5.046  1.7160  0.3677  0.4228
 4792TIP3    H235868   2.753   3.640   5.135  3.1152 -0.4253  0.0771
 4793TIP3   OH235869   3.320   2.186  11.909 -0.2497 -0.6402 -0.8318
 4793TIP3    H135870   3.394   2.199  11.849  1.3866 -0.4728  1.1639
 4793TIP3    H235871   3.276   2.270  11.912  1.8932  0.4752  1.0491
 4794TIP3   OH235872   5.781   5.488  16.370 -0.6807  0.7314  0.9659
 4794TIP3    H135873   5.700   5.446  16.399  0.0208 -0.5261  1.1104
 4794TIP3    H235874   5.759   5.528  16.286 -1.6360  0.9633  1.3216
 4795TIP3   OH235875   4.533   0.508   5.890  0.0232 -0.0635 -0.0025
 4795TIP3    H135876   4.591   0.432   5.887 -1.2048 -0.9975 -0.5934
 4795TIP3    H235877   4.500   0.510   5.980 -1.8913 -1.7425 -0.6391
 4796TIP3   OH235878   3.365   0.638  15.007 -0.6573  0.3033  0.3694
 4796TIP3    H135879   3.433   0.596  14.955 -1.6016  1.0285 -1.4820
 4796TIP3    H235880   3.283   0.598  14.977 -1.0613 -0.8249  2.8164
 4797TIP3   OH235881   5.250   5.913  15.670  0.1024  0.1774  0.1020
 4797TIP3    H135882   5.305   5.928  15.746  0.3640 -1.5888  0.2756
 4797TIP3    H235883   5.311   5.896  15.598 -0.1648 -1.6121  0.2587
 4798TIP3   OH235884   1.409   6.615  16.496 -0.0014  0.1386  0.4643
 4798TIP3    H135885   1.407   6.633  16.590 -1.8509 -0.7170  0.6024
 4798TIP3    H235886   1.376   6.526  16.487  1.2780 -0.2097 -0.9052
 4799TIP3   OH235887   2.084   5.537  15.810 -0.3242 -0.0487 -0.1753
 4799TIP3    H135888   2.127   5.578  15.735 -1.2313  2.0089  0.4093
 4799TIP3    H235889   2.021   5.476  15.771 -2.0281  2.2724 -1.1586
 4800TIP3   OH235890   4.660   2.617   2.610 -0.3048  0.7938 -0.1993
 4800TIP3    H135891   4.669   2.642   2.702 -1.3923 -0.9022  0.4022
 4800TIP3    H235892   4.740   2.568   2.590  0.6967  2.5720 -0.6662
 4801TIP3   OH235893   0.142   3.167   5.548  0.8411  0.1904  0.2101
 4801TIP3    H135894   0.115   3.208   5.630  0.2172 -3.0195  1.6969
 4801TIP3    H235895   0.059   3.145   5.505  1.1698  0.7050 -0.6872
 4802TIP3   OH235896   2.246   2.542   0.114  0.5681  0.3306 -0.4839
 4802TIP3    H135897   2.253   2.580   0.027  0.1011  1.4998 -0.0168
 4802TIP3    H235898   2.152   2.545   0.134  0.8366  1.5382  0.6958
 4803TIP3   OH235899   0.308   3.810   2.940 -0.5859  0.2531 -0.0759
 4803TIP3    H135900   0.350   3.724   2.948  0.2571  0.8094  1.8272
 4803TIP3    H235901   0.214   3.791   2.944 -0.3909 -0.4838  1.9658
 4804TIP3   OH235902   0.398   4.355   4.641 -0.0992  0.2699  0.0910
 4804TIP3    H135903   0.413   4.419   4.571 -0.1302 -0.2100 -0.3507
 4804TIP3    H235904   0.468   4.373   4.704  1.0309 -0.4900 -0.9221
 4805TIP3   OH235905   3.320   5.853   1.467 -0.4693 -0.1234 -0.2817
 4805TIP3    H135906   3.225   5.862   1.472 -0.3905  0.7417 -0.2488
 4805TIP3    H235907   3.344   5.811   1.549 -0.7860 -0.0402 -0.1455
 4806TIP3   OH235908   3.453   1.127   5.413 -0.8413 -0.0636  0.1466
 4806TIP3    H135909   3.363   1.150   5.392 -0.5292  2.6925  1.5482
 4806TIP3    H235910   3.447   1.075   5.493 -1.2367 -0.3156 -0.0510
 4807TIP3   OH235911   6.752   2.676   0.805  0.0875  0.0598  0.7914
 4807TIP3    H135912   6.792   2.640   0.726  0.9179 -1.3655  1.8529
 4807TIP3    H235913   6.658   2.672   0.787  0.1837 -1.9274  0.5441
 4808TIP3   OH235914   3.981   1.056   1.810 -1.1177  0.0465 -0.4010
 4808TIP3    H135915   4.024   1.141   1.816  0.2228 -0.5886 -0.8041
 4808TIP3    H235916   3.940   1.056   1.723 -2.6088  0.9538  0.2856
 4809TIP3   OH235917   4.756   1.738  11.074  0.6658 -0.3702  0.6688
 4809TIP3    H135918   4.790   1.799  11.009  1.2369 -0.6535  0.7011
 4809TIP3    H235919   4.663   1.730  11.054  0.9733 -0.9876 -0.5360
 4810TIP3   OH235920   6.508   1.466  16.227 -0.2870  0.0846 -0.2897
 4810TIP3    H135921   6.492   1.553  16.190 -3.4337 -0.1879  0.2482
 4810TIP3    H235922   6.553   1.483  16.310 -3.1571  1.4648  1.0818
 4811TIP3   OH235923   3.359   2.918  15.010  0.3003  0.1945 -0.2258
 4811TIP3    H135924   3.335   2.825  15.017 -0.3599  0.4106  0.4022
 4811TIP3    H235925   3.453   2.919  15.023  0.0603 -0.1910  1.7209
 4812TIP3   OH235926   5.300   5.853   0.165  0.2700  0.0187 -0.5655
 4812TIP3    H135927   5.360   5.860   0.091 -0.6515 -0.3728 -1.3672
 4812TIP3    H235928   5.238   5.925   0.153  0.8889  0.7548  0.5535
 4813TIP3   OH235929   0.209   2.981   3.179  0.0790  0.7132 -0.2434
 4813TIP3    H135930   0.198   2.969   3.273 -1.0657 -0.0325 -0.4727
 4813TIP3    H235931   0.130   3.027   3.151  0.3203  0.7474 -0.8723
 4814TIP3   OH235932   0.187   6.451   1.489  0.3327  0.2463  0.0238
 4814TIP3    H135933   0.100   6.449   1.448  1.3661  0.7655 -2.2602
 4814TIP3    H235934   0.234   6.378   1.450  1.3869  0.8265  0.1854
 4815TIP3   OH235935   5.869   2.194   2.523 -0.9173 -0.7523 -0.2193
 4815TIP3    H135936   5.870   2.211   2.429 -3.2457  0.5217 -0.0379
 4815TIP3    H235937   5.926   2.260   2.560 -1.0702 -0.3964 -0.6123
 4816TIP3   OH235938   2.346   0.024  13.793  0.2326 -0.8582 -0.0716
 4816TIP3    H135939   2.435   0.019  13.758  0.4632  1.3065  0.1259
 4816TIP3    H235940   2.290   0.022  13.715  0.4555 -1.7467 -0.2209
 4817TIP3   OH235941   4.765   5.928  12.011  0.1320  0.2231  0.4441
 4817TIP3    H135942   4.670   5.940  12.004  0.2617  2.0136  1.4847
 4817TIP3    H235943   4.796   5.926  11.920 -0.7948  0.3885  0.1191
 4818TIP3   OH235944   5.711   1.281   4.725  0.5442 -0.8877 -0.3128
 4818TIP3    H135945   5.644   1.349   4.734  2.0067  0.4711  0.5523
 4818TIP3    H235946   5.718   1.266   4.630  0.7117  0.6770 -0.5530
 4819TIP3   OH235947   4.618   0.162   0.360 -0.4130  0.3914  0.5090
 4819TIP3    H135948   4.600   0.152   0.453 -2.4378 -2.3728 -0.1375
 4819TIP3    H235949   4.697   0.111   0.345 -1.5423 -1.3112  0.2577
 4820TIP3   OH235950   5.597   2.493   4.596 -0.4136  0.2946 -0.0446
 4820TIP3    H135951   5.662   2.423   4.602  0.6100  1.3143  1.1963
 4820TIP3    H235952   5.514   2.448   4.582  0.6963 -0.9774 -2.7250
 4821TIP3   OH235953   5.161   5.485   5.166  0.0964 -0.3229  0.0554
 4821TIP3    H135954   5.238   5.465   5.113 -0.5054 -2.2945 -0.1197
 4821TIP3    H235955   5.192   5.548   5.231  2.0978 -1.8082  0.5751
 4822TIP3   OH235956   5.803   4.950  15.264 -0.0271 -0.1696 -0.6986
 4822TIP3    H135957   5.721   4.995  15.283 -0.7192 -0.9015 -1.8688
 4822TIP3    H235958   5.791   4.915  15.176  1.3933 -0.6291 -0.7238
 4823TIP3   OH235959   0.840   1.988   2.043  0.0868  0.3817 -0.5034
 4823TIP3    H135960   0.749   1.957   2.042  0.7718 -1.6987 -0.8170
 4823TIP3    H235961   0.873   1.964   2.129  1.5891 -2.8332 -1.8608
 4824TIP3   OH235962   6.365   5.026   1.123  0.4391  0.0590  0.5416
 4824TIP3    H135963   6.287   5.077   1.146  0.1909 -0.0528 -0.0514
 4824TIP3    H235964   6.437   5.088   1.133  0.1726  0.4381  0.1435
 4825TIP3   OH235965   4.980   6.223  14.147  0.3419 -0.0703  0.0131
 4825TIP3    H135966   4.933   6.202  14.228  1.8062  1.8106  1.4312
 4825TIP3    H235967   4.912   6.222  14.079 -0.9474 -1.5652  1.2771
 4826TIP3   OH235968   2.039   0.686   0.230 -0.4561  0.6874  0.2237
 4826TIP3    H135969   1.981   0.623   0.188  0.4590  1.6976 -2.6815
 4826TIP3    H235970   1.987   0.766   0.238 -0.0543  1.0441 -0.6914
 4827TIP3   OH235971   4.073   0.603  16.064  0.1657  1.0135 -0.8521
 4827TIP3    H135972   4.137   0.543  16.026 -1.3998 -2.3128  1.5586
 4827TIP3    H235973   4.008   0.616  15.995  1.9347  2.1965 -2.3411
 4828TIP3   OH235974   3.146   3.191   5.288 -0.4637  0.2430 -0.3647
 4828TIP3    H135975   3.147   3.120   5.352 -1.2394 -0.2315 -0.8707
 4828TIP3    H235976   3.235   3.191   5.252 -0.2914 -0.0965  0.0470
 4829TIP3   OH235977   4.161   5.539  11.582  0.5436 -0.3336 -0.0665
 4829TIP3    H135978   4.132   5.454  11.617 -0.9845  0.4643  0.6472
 4829TIP3    H235979   4.140   5.602  11.651  1.9863  0.5853 -0.4596
 4830TIP3   OH235980   5.624   4.267  12.641  0.0607 -0.0081 -0.2731
 4830TIP3    H135981   5.699   4.288  12.585  0.2843  1.1474  0.4555
 4830TIP3    H235982   5.549   4.271  12.582  0.3478  0.7766 -0.5984
 4831TIP3   OH235983   2.382   4.176  14.542 -0.3826 -1.2358 -0.1589
 4831TIP3    H135984   2.402   4.230  14.618  0.2779 -0.0578 -1.1532
 4831TIP3    H235985   2.292   4.199  14.518 -1.3835 -3.2155  1.5706
 4832TIP3   OH235986   3.212   6.163  13.703  0.5559  0.4919  0.2503
 4832TIP3    H135987   3.139   6.166  13.641  0.7473  0.0307 -0.0034
 4832TIP3    H235988   3.172   6.176  13.789  0.4933  2.9523 -0.1016
 4833TIP3   OH235989   0.022   4.346   3.744 -0.4167  0.1968 -0.5972
 4833TIP3    H135990   0.100   4.397   3.766  0.0908 -0.4605 -0.8415
 4833TIP3    H235991   0.041   4.310   3.657 -1.9036  1.8025 -1.6177
 4834TIP3   OH235992   1.826   2.393  11.614 -0.0092  0.4647 -0.1457
 4834TIP3    H135993   1.902   2.423  11.663 -0.7946 -0.7240  1.8225
 4834TIP3    H235994   1.863   2.350  11.536  1.3029  0.3858  0.5130
 4835TIP3   OH235995   3.456   6.540   1.434 -0.2856 -0.6159  0.4719
 4835TIP3    H135996   3.379   6.518   1.382 -0.5048 -0.2516  0.6386
 4835TIP3    H235997   3.421   6.562   1.521 -0.0283 -0.1226  0.4564
 4836TIP3   OH235998   6.385   0.267   5.739  0.0822  0.4627 -0.4813
 4836TIP3    H135999   6.425   0.272   5.825 -4.4069 -0.2238  1.8013
 4836TIP3    H236000   6.411   0.181   5.705  0.7653  0.1639  0.7736
 4837TIP3   OH236001   4.303   6.029  14.813  0.6278 -0.0095  0.2437
 4837TIP3    H136002   4.257   6.058  14.892  0.4820 -2.9882  1.3176
 4837TIP3    H236003   4.258   5.949  14.787  1.5874  0.1649 -2.0681
 4838TIP3   OH236004   4.556   1.316  11.979 -0.1861 -0.1372  0.2216
 4838TIP3    H136005   4.546   1.375  11.904 -1.8825  0.2219  0.6862
 4838TIP3    H236006   4.472   1.269  11.984  0.1655 -0.6731  1.4490
 4839TIP3   OH236007   5.755   6.808  14.616 -0.8883 -0.2162  0.1135
 4839TIP3    H136008   5.775   6.723  14.655  0.5692  0.1059  0.1239
 4839TIP3    H236009   5.691   6.790  14.548 -1.0718 -1.2289  0.5493
 4840TIP3   OH236010   3.858   6.704  12.376 -0.0497 -0.3155 -0.6585
 4840TIP3    H136011   3.823   6.617  12.396  0.1424 -0.1584  0.3863
 4840TIP3    H236012   3.788   6.748  12.329 -0.8703 -0.3710  0.5013
 4841TIP3   OH236013   6.296   1.323  11.539  0.2938  0.5672 -0.2338
 4841TIP3    H136014   6.223   1.311  11.599 -1.8894  2.9460 -2.2640
 4841TIP3    H236015   6.290   1.250  11.478  1.5789 -0.9940  1.4662
 4842TIP3   OH236016   3.132   1.692   5.448  0.3209  0.2287 -0.0294
 4842TIP3    H136017   3.200   1.630   5.474 -0.9530 -1.0083  0.4295
 4842TIP3    H236018   3.146   1.706   5.355  0.4090 -1.0211 -0.2120
 4843TIP3   OH236019   6.800   0.864  11.047  0.3521  0.3005  0.9002
 4843TIP3    H136020   6.852   0.872  10.967  2.8167  2.0126  2.5900
 4843TIP3    H236021   6.841   0.791  11.095 -2.4849 -2.1914 -0.3186
 4844TIP3   OH236022   5.381   0.181  12.261 -0.8300  0.4177  0.1987
 4844TIP3    H136023   5.308   0.127  12.291 -1.0207 -0.6198 -2.0442
 4844TIP3    H236024   5.380   0.257  12.319 -1.5536 -1.2174  2.3890
 4845TIP3   OH236025   0.463   4.584  11.976 -0.4187 -0.0122  0.0595
 4845TIP3    H136026   0.411   4.530  12.036 -1.2658 -0.1450 -0.7766
 4845TIP3    H236027   0.419   4.669  11.976  0.1458  0.2826  0.3618
 4846TIP3   OH236028   3.612   4.678   4.531 -0.0285 -0.2756 -0.1275
 4846TIP3    H136029   3.560   4.599   4.547  1.0036 -1.0206 -0.4222
 4846TIP3    H236030   3.672   4.652   4.461  1.8571  0.0879  1.3542
 4847TIP3   OH236031   0.402   2.585  13.260 -0.3645  0.2488  0.3499
 4847TIP3    H136032   0.474   2.648  13.267  0.3746 -0.5730  0.3218
 4847TIP3    H236033   0.389   2.553  13.349 -0.4594  0.1511  0.3017
 4848TIP3   OH236034   0.053   6.664  13.030 -1.2153  0.4694 -0.5867
 4848TIP3    H136035   0.050   6.576  12.992  2.1871 -0.6525  1.5184
 4848TIP3    H236036  -0.001   6.658  13.109  0.4406 -0.2391  0.4980
 4849TIP3   OH236037   6.609   3.421  16.926 -0.4412 -0.0979  0.3053
 4849TIP3    H136038   6.630   3.510  16.898 -1.4197 -0.1909 -0.7412
 4849TIP3    H236039   6.584   3.430  17.018 -0.1825  0.6551  0.2978
 4850TIP3   OH236040   3.976   3.301   0.959 -0.0264  0.5929 -0.3474
 4850TIP3    H136041   3.919   3.298   0.882  1.4909  0.6151 -1.4824
 4850TIP3    H236042   4.057   3.341   0.928  1.1053 -0.6460  0.9426
 4851TIP3   OH236043   5.136   1.977  17.023 -0.2857  0.0418 -0.3509
 4851TIP3    H136044   5.141   2.069  17.049 -1.3736 -0.0507  0.2398
 4851TIP3    H236045   5.111   1.980  16.931  2.7956  0.3634 -1.2323
 4852TIP3   OH236046   3.894   6.050   3.064  0.1256 -0.1603  0.0334
 4852TIP3    H136047   3.891   6.129   3.011  0.7756 -0.3660 -0.3288
 4852TIP3    H236048   3.986   6.043   3.091  0.7544 -2.3476 -2.3768
 4853TIP3   OH236049   2.444   2.428  15.121 -0.4178  0.0102 -0.0961
 4853TIP3    H136050   2.389   2.493  15.078  1.4201  1.1217 -0.8272
 4853TIP3    H236051   2.397   2.405  15.201 -1.3670  1.8089 -0.1218
 4854TIP3   OH236052   0.599   2.701  16.627 -1.1229  0.5382  0.4997
 4854TIP3    H136053   0.547   2.627  16.594 -1.4665  0.0837  1.9776
 4854TIP3    H236054   0.624   2.674  16.716  0.0197  1.5752  0.5034
 4855TIP3   OH236055   2.790   4.028  13.362 -0.1232 -0.7022  0.4948
 4855TIP3    H136056   2.740   3.962  13.313 -1.6774  0.8802 -0.0985
 4855TIP3    H236057   2.723   4.081  13.405  1.1319  0.0518  1.5557
 4856TIP3   OH236058   2.549   4.883  14.393  0.6314  0.5109  0.6737
 4856TIP3    H136059   2.460   4.888  14.358  0.2834 -1.2842  1.2716
 4856TIP3    H236060   2.551   4.949  14.462  0.3911  1.9391 -0.6535
 4857TIP3   OH236061   3.291   6.701   1.176  0.4078  0.1089 -0.1052
 4857TIP3    H136062   3.227   6.734   1.112 -2.1148 -2.1874  1.1542
 4857TIP3    H236063   3.255   6.618   1.206  3.9145 -1.1778  0.8438
 4858TIP3   OH236064   4.759   5.855   2.275 -0.0560 -0.4383 -0.2649
 4858TIP3    H136065   4.800   5.855   2.189 -0.5385 -1.8078 -0.5154
 4858TIP3    H236066   4.825   5.817   2.333 -0.4170 -1.2527 -0.3857
 4859TIP3   OH236067   1.698   5.691  11.981  0.1927 -0.4059 -0.0562
 4859TIP3    H136068   1.700   5.785  11.964  0.7623 -0.4084 -0.0352
 4859TIP3    H236069   1.757   5.654  11.916  0.4621 -0.6795  0.3422
 4860TIP3   OH236070   6.046   0.336  15.203  0.1096  0.2689  0.5706
 4860TIP3    H136071   6.088   0.381  15.276  1.1101 -1.2448  0.9485
 4860TIP3    H236072   6.101   0.357  15.127  0.7607 -0.5529  0.8053
 4861TIP3   OH236073   1.976   3.101  12.536  0.2069 -0.5166  0.3951
 4861TIP3    H136074   2.050   3.065  12.584  1.4964  1.1906 -0.2671
 4861TIP3    H236075   1.999   3.089  12.443 -0.2098  0.2522  0.1866
 4862TIP3   OH236076   5.665   4.115   5.695 -0.4212  0.4679  0.5015
 4862TIP3    H136077   5.715   4.106   5.776 -1.8436 -0.0686  1.3467
 4862TIP3    H236078   5.607   4.039   5.694 -1.6298  1.3756 -0.1559
 4863TIP3   OH236079   3.047   6.213  11.436 -0.1964  0.3590  0.2305
 4863TIP3    H136080   3.095   6.196  11.517 -0.8936 -0.6027  0.4579
 4863TIP3    H236081   3.054   6.307  11.423 -0.2736  0.5585  1.5401
 4864TIP3   OH236082   4.924   6.333   0.743  0.3989 -0.1011  0.1472
 4864TIP3    H136083   5.019   6.320   0.740  0.4681  0.0368  1.3835
 4864TIP3    H236084   4.899   6.348   0.652  1.1385 -3.0049 -0.5799
 4865TIP3   OH236085   4.638   3.294  16.995  0.1758 -0.1541 -0.2870
 4865TIP3    H136086   4.590   3.301  16.912 -1.8553  0.2482  0.8663
 4865TIP3    H236087   4.686   3.212  16.989 -0.7999 -0.6477 -1.4475
 4866TIP3   OH236088   0.319   3.690   3.332 -0.4379  0.6094 -0.0628
 4866TIP3    H136089   0.326   3.637   3.252  0.7153  0.8173 -0.1065
 4866TIP3    H236090   0.241   3.744   3.318 -0.4390  0.3931 -0.9127
 4867TIP3   OH236091   3.306   5.359   3.586  0.5748 -0.2444  0.4497
 4867TIP3    H136092   3.297   5.447   3.550 -1.1927 -0.2327  0.8557
 4867TIP3    H236093   3.278   5.301   3.515  0.6723 -0.4153  0.5515
 4868TIP3   OH236094   3.063   3.122  14.465  0.2761  0.1573 -0.4503
 4868TIP3    H136095   2.976   3.122  14.427 -1.3687  2.3723  3.0459
 4868TIP3    H236096   3.067   3.042  14.517  0.0132  0.4070 -0.0366
 4869TIP3   OH236097   2.590   3.073   2.242 -0.0573 -0.2746  0.0083
 4869TIP3    H136098   2.636   3.000   2.201 -0.1066 -1.0862  1.3495
 4869TIP3    H236099   2.610   3.064   2.335  1.8682  2.8124 -0.0619
 4870TIP3   OH236100   2.906   5.030  15.612  0.6002  0.2398  0.3258
 4870TIP3    H136101   2.829   5.087  15.619  0.5014  0.0186  1.0853
 4870TIP3    H236102   2.910   5.007  15.519 -0.6689 -0.3202  0.3951
 4871TIP3   OH236103   5.189   3.449   0.578  0.2102  0.3965 -0.1197
 4871TIP3    H136104   5.152   3.413   0.498  0.0194 -1.2211  0.6705
 4871TIP3    H236105   5.283   3.429   0.571  0.1385 -0.0701  0.2150
 4872TIP3   OH236106   6.766   5.898  13.869  0.1380 -0.2452 -0.0849
 4872TIP3    H136107   6.700   5.961  13.898  1.1417  1.0857 -0.5830
 4872TIP3    H236108   6.717   5.820  13.844 -1.3143  1.0109 -1.2097
 4873TIP3   OH236109   2.045   0.204  15.242  0.0033  0.6041  0.0148
 4873TIP3    H136110   1.970   0.156  15.275  0.6467 -0.2995  0.1856
 4873TIP3    H236111   2.072   0.261  15.314  0.9460 -0.8146  0.7898
 4874TIP3   OH236112   6.540   1.333  13.677  0.5470 -0.0169  0.1673
 4874TIP3    H136113   6.471   1.365  13.618  1.7765 -0.1148 -1.3613
 4874TIP3    H236114   6.557   1.406  13.736 -0.5684  0.1621  0.2746
 4875TIP3   OH236115   5.783   5.872  11.440  0.0227  0.2223 -0.0926
 4875TIP3    H136116   5.691   5.894  11.423  0.5531  2.4338 -0.1676
 4875TIP3    H236117   5.833   5.926  11.379  1.4374 -0.1108  0.7388
 4876TIP3   OH236118   1.977   2.323   4.755  0.1249 -0.2140  0.5662
 4876TIP3    H136119   2.019   2.369   4.683 -0.5565 -1.7549 -0.8543
 4876TIP3    H236120   2.028   2.243   4.765 -0.4490 -0.5274  1.0530
 4877TIP3   OH236121   1.711   1.738   0.607 -0.2076 -0.2712 -0.1343
 4877TIP3    H136122   1.685   1.648   0.585 -0.0322  0.1055 -1.9415
 4877TIP3    H236123   1.747   1.731   0.696  1.0826 -2.2413 -0.7823
 4878TIP3   OH236124   1.370   4.557   0.542  0.2482  0.2824 -0.0451
 4878TIP3    H136125   1.346   4.553   0.635 -1.7505  0.9789 -0.5116
 4878TIP3    H236126   1.428   4.481   0.529  3.2384  1.9914  2.4816
 4879TIP3   OH236127   5.432   2.812  16.375  0.0031 -0.4753  0.0537
 4879TIP3    H136128   5.383   2.824  16.456  0.7076 -0.7095  0.5133
 4879TIP3    H236129   5.454   2.900  16.347  1.3011 -0.4807  1.0599
 4880TIP3   OH236130   1.248   5.712   4.643  0.0387  0.2527 -0.7067
 4880TIP3    H136131   1.311   5.732   4.573 -0.9387 -2.7076 -2.5411
 4880TIP3    H236132   1.293   5.649   4.699 -0.3979  0.0119 -0.6241
 4881TIP3   OH236133   3.887   4.504  14.960  0.1920  0.3536 -0.0026
 4881TIP3    H136134   3.803   4.502  15.005 -0.3563 -0.5273 -1.0527
 4881TIP3    H236135   3.875   4.564  14.887 -0.5414 -2.1991 -2.0709
 4882TIP3   OH236136   6.125   4.486  13.121  0.4783  0.0790 -0.5996
 4882TIP3    H136137   6.083   4.420  13.176 -1.1145  1.1743 -0.4629
 4882TIP3    H236138   6.219   4.475  13.137  0.3571 -3.2722 -1.9170
 4883TIP3   OH236139   3.203   2.965  12.779 -0.5646  0.2655  0.2128
 4883TIP3    H136140   3.118   2.978  12.820 -0.0998  0.9035  0.9772
 4883TIP3    H236141   3.201   2.874  12.748 -1.4265  0.2055  0.4437
 4884TIP3   OH236142   3.481   3.586   3.466 -0.2525 -0.1613 -0.0297
 4884TIP3    H136143   3.446   3.510   3.513  0.1902 -0.2262  0.1961
 4884TIP3    H236144   3.409   3.649   3.466  0.1112  0.2689  1.6947
 4885TIP3   OH236145   1.660   4.035  12.369  0.4974  0.2027 -0.4973
 4885TIP3    H136146   1.646   4.091  12.293 -2.1942 -1.1893 -1.1252
 4885TIP3    H236147   1.745   3.995  12.354  0.4166  0.6616 -2.3291
 4886TIP3   OH236148   5.723   1.666   1.405  0.2791 -0.4864  0.0659
 4886TIP3    H136149   5.691   1.668   1.496  0.9864 -2.5311  0.3720
 4886TIP3    H236150   5.776   1.746   1.397 -0.1957 -0.0252  1.2902
 4887TIP3   OH236151   3.624   0.952  16.558  0.0988 -0.3609  0.0542
 4887TIP3    H136152   3.713   0.919  16.548  0.3589  1.0786 -2.9277
 4887TIP3    H236153   3.579   0.925  16.478 -1.5116  0.8837  0.5060
 4888TIP3   OH236154   0.284   5.064   4.054  0.1687 -0.2117 -0.0157
 4888TIP3    H136155   0.365   5.109   4.029  0.3488 -0.4760  0.0961
 4888TIP3    H236156   0.231   5.133   4.095  0.8742 -0.3250  1.1164
 4889TIP3   OH236157   6.379   5.388  13.381  0.5030 -0.9825  0.1386
 4889TIP3    H136158   6.418   5.440  13.311 -0.6000 -0.4717 -0.0957
 4889TIP3    H236159   6.408   5.299  13.363 -0.2432 -0.9476 -1.3123
 4890TIP3   OH236160   5.813   4.109   4.090 -0.4164 -0.0670  0.5695
 4890TIP3    H136161   5.847   4.029   4.131 -0.3247 -0.9732 -1.2284
 4890TIP3    H236162   5.736   4.132   4.142  0.1318 -0.7586  1.7088
 4891TIP3   OH236163   5.246   2.585   5.333 -0.6659 -0.2101  0.1157
 4891TIP3    H136164   5.287   2.671   5.330  0.3904 -0.7142 -0.3937
 4891TIP3    H236165   5.162   2.599   5.376 -0.9664  1.2475 -0.9181
 4892TIP3   OH236166   1.845   2.653   1.324  0.7418 -0.6106  0.4299
 4892TIP3    H136167   1.839   2.558   1.337  0.6474 -0.2429  3.2866
 4892TIP3    H236168   1.754   2.680   1.310  0.6577 -0.8265  0.5467
 4893TIP3   OH236169   4.084   2.636   1.682 -0.3135 -0.7399  0.3702
 4893TIP3    H136170   4.080   2.721   1.639 -1.8942 -1.0198 -0.0378
 4893TIP3    H236171   4.042   2.650   1.767 -0.8385 -1.1952  0.1811
 4894TIP3   OH236172   2.240   4.543  11.840  1.4513  0.4693 -0.2601
 4894TIP3    H136173   2.242   4.516  11.931  0.8040 -0.4271 -0.5144
 4894TIP3    H236174   2.243   4.462  11.790  1.3340  0.9336 -1.0388
 4895TIP3   OH236175   1.910   3.424   0.048 -1.2760  0.0063  0.0121
 4895TIP3    H136176   1.861   3.392   0.123 -1.5625  0.1033 -0.1360
 4895TIP3    H236177   1.927   3.517   0.068 -0.1445 -0.3090  0.6044
 4896TIP3   OH236178   3.300   0.120   4.710 -0.1846 -0.5317  0.2119
 4896TIP3    H136179   3.269   0.135   4.621 -0.4650  1.0931  0.5680
 4896TIP3    H236180   3.396   0.123   4.703 -0.2012 -0.7134 -0.0819
 4897TIP3   OH236181   0.109   6.449  14.243  0.0458 -0.0918  0.7591
 4897TIP3    H136182   0.090   6.524  14.299  0.5979  0.9679 -0.4366
 4897TIP3    H236183   0.100   6.482  14.154  1.0301 -1.2479  0.2052
 4898TIP3   OH236184   5.719   4.818  11.166 -0.1574  0.3248  0.1483
 4898TIP3    H136185   5.674   4.902  11.154 -1.1862 -0.3535 -0.8819
 4898TIP3    H236186   5.794   4.823  11.108  1.6469  1.8111  2.5255
 4899TIP3   OH236187   2.669   5.051  14.107  0.7581  0.2390  0.5703
 4899TIP3    H136188   2.601   4.994  14.143  2.1444 -1.0710  1.2206
 4899TIP3    H236189   2.634   5.082  14.024 -1.5830  1.4873  1.9778
 4900TIP3   OH236190   5.059   1.671  14.850  0.1904  0.0839 -0.6249
 4900TIP3    H136191   5.139   1.675  14.798  1.6020 -1.6191  1.3206
 4900TIP3    H236192   5.089   1.669  14.940 -2.0859  0.0605  0.1649
 4901TIP3   OH236193   1.435   4.707   2.829 -0.0313 -0.4698 -0.3828
 4901TIP3    H136194   1.435   4.685   2.736 -1.1972 -1.7716 -0.0807
 4901TIP3    H236195   1.344   4.726   2.850  0.2677  0.1274  0.4362
 4902TIP3   OH236196   5.583   3.206   4.701 -0.2263  0.1313  0.0030
 4902TIP3    H136197   5.613   3.248   4.781 -0.3160  0.4543 -0.1329
 4902TIP3    H236198   5.661   3.198   4.646 -0.0050 -0.8293  0.4510
 4903TIP3   OH236199   1.800   4.104   1.903 -0.0011 -0.2487 -0.1828
 4903TIP3    H136200   1.789   4.039   1.972 -2.9609  1.2580  0.8584
 4903TIP3    H236201   1.774   4.186   1.944 -0.9182  0.8155 -2.8175
 4904TIP3   OH236202   1.941   4.123  14.916  0.0564  0.5463 -0.0876
 4904TIP3    H136203   1.985   4.165  14.989  1.1217 -1.0047  0.1967
 4904TIP3    H236204   1.956   4.029  14.930 -0.5327  0.1846 -1.7817
 4905TIP3   OH236205   4.457   3.872  15.407 -0.1187 -0.0941 -0.6619
 4905TIP3    H136206   4.499   3.863  15.321  1.7301 -0.1692  0.2208
 4905TIP3    H236207   4.405   3.792  15.417  1.7144 -1.2935 -0.6232
 4906TIP3   OH236208   3.969   1.646   2.813 -0.1824 -0.6759 -0.1481
 4906TIP3    H136209   3.956   1.568   2.868  0.4739 -0.3783  0.4363
 4906TIP3    H236210   3.908   1.711   2.849 -0.1026 -0.6382 -0.0812
 4907TIP3   OH236211   1.230   1.449  11.572  0.3526  0.2217 -0.0316
 4907TIP3    H136212   1.184   1.500  11.638 -0.5778 -0.0124 -0.4924
 4907TIP3    H236213   1.316   1.431  11.611 -0.0163  0.4871  0.9143
 4908TIP3   OH236214   1.665   1.106   2.993 -0.2007  0.0602  0.1287
 4908TIP3    H136215   1.654   1.038   3.060  1.2241 -1.1435 -0.8229
 4908TIP3    H236216   1.709   1.178   3.039  2.4469 -1.4780  0.0888
 4909TIP3   OH236217   6.422   3.362  16.155 -0.1717 -0.1017 -0.5395
 4909TIP3    H136218   6.405   3.268  16.147  1.9835 -0.6151  0.7123
 4909TIP3    H236219   6.494   3.379  16.095 -0.9860  0.9079 -1.2589
 4910TIP3   OH236220   1.596   6.527   2.132 -0.3840  0.0425 -0.0797
 4910TIP3    H136221   1.680   6.484   2.145  0.4787  1.9352  0.7432
 4910TIP3    H236222   1.540   6.495   2.203  0.3934  0.6490  0.8035
 4911TIP3   OH236223   3.550   0.541   4.759 -0.7073 -0.2258 -0.3460
 4911TIP3    H136224   3.632   0.569   4.718 -0.4444  1.1443  1.0860
 4911TIP3    H236225   3.575   0.466   4.813 -0.5974 -0.4440 -0.6928
 4912TIP3   OH236226   6.217   1.379   2.941 -0.1070 -0.2346  0.1329
 4912TIP3    H136227   6.233   1.464   2.982  1.5848 -0.6515  0.3704
 4912TIP3    H236228   6.156   1.334   3.000 -0.1408  0.3772  0.5649
 4913TIP3   OH236229   2.357   0.392  14.265 -0.6785 -0.1596  0.5211
 4913TIP3    H136230   2.345   0.297  14.254  0.8337 -0.5067  1.7291
 4913TIP3    H236231   2.401   0.401  14.349  1.0307  1.5012 -0.5269
 4914TIP3   OH236232   3.439   2.146  11.177 -0.5109  0.3144  0.3721
 4914TIP3    H136233   3.348   2.126  11.199 -0.5725 -0.8884 -0.9243
 4914TIP3    H236234   3.476   2.063  11.146  0.2871  1.3621 -1.5978
 4915TIP3   OH236235   0.089   1.380  12.595  0.5326  0.2845 -0.2261
 4915TIP3    H136236   0.103   1.473  12.577 -1.6064  0.7917  0.6794
 4915TIP3    H236237   0.177   1.346  12.614  1.1397  2.4573  1.0393
 4916TIP3   OH236238   1.429   3.202  15.185  0.1924  0.0542 -0.1146
 4916TIP3    H136239   1.509   3.253  15.176 -0.1469  0.7244  0.6421
 4916TIP3    H236240   1.437   3.133  15.119  1.9558 -0.6529  0.8341
 4917TIP3   OH236241   5.150   1.337  14.218  0.1023  0.5576  0.6231
 4917TIP3    H136242   5.116   1.426  14.234  0.6493  1.0236 -0.7632
 4917TIP3    H236243   5.072   1.282  14.215 -0.4378  1.3906 -1.0360
 4918TIP3   OH236244   0.514   1.989   5.063 -0.4054 -0.0783  0.2507
 4918TIP3    H136245   0.577   2.003   5.134 -1.8756 -1.5871  1.8816
 4918TIP3    H236246   0.547   1.912   5.017  1.3172  1.7137 -1.6204
 4919TIP3   OH236247   4.120   2.911   5.580  0.0707 -0.6985 -0.4882
 4919TIP3    H136248   4.144   2.963   5.504 -1.1899  0.7931  0.0913
 4919TIP3    H236249   4.152   2.823   5.561  2.5086  0.3499 -1.3595
 4920TIP3   OH236250   2.918   1.654   3.709 -0.0233  0.1802  0.1048
 4920TIP3    H136251   2.960   1.619   3.787  0.6201 -3.6192 -1.8249
 4920TIP3    H236252   2.825   1.639   3.722 -0.2303  2.4421  1.4535
 4921TIP3   OH236253   0.875   5.618  13.575 -0.0595 -0.3620 -0.2523
 4921TIP3    H136254   0.903   5.530  13.551 -2.9750 -1.2062 -0.7597
 4921TIP3    H236255   0.829   5.606  13.658 -1.8109  0.4144 -1.0933
 4922TIP3   OH236256   2.870   2.742  12.843  0.6023  0.1117 -0.3402
 4922TIP3    H136257   2.877   2.837  12.837  1.4180  0.1693  1.2593
 4922TIP3    H236258   2.887   2.722  12.935  0.5772 -1.5961 -0.6818
 4923TIP3   OH236259   0.259   4.216   5.271 -0.7744  0.5210 -0.0084
 4923TIP3    H136260   0.280   4.251   5.185 -2.0943  1.1679 -0.0726
 4923TIP3    H236261   0.185   4.157   5.256 -0.9085  0.5109  0.6547
 4924TIP3   OH236262   4.956   4.393   1.936  0.2600 -0.0528  0.0152
 4924TIP3    H136263   4.973   4.416   2.027 -1.4535  0.3911  0.2382
 4924TIP3    H236264   4.868   4.354   1.937  0.3961 -0.4204 -1.3787
 4925TIP3   OH236265   4.983   1.317  14.720  0.4178 -0.0091 -0.0847
 4925TIP3    H136266   4.917   1.362  14.773 -0.1481 -3.9983  2.7651
 4925TIP3    H236267   4.936   1.290  14.641 -0.3381  0.4857  0.1923
 4926TIP3   OH236268   4.519   2.909  16.155 -0.3706 -0.3541  0.0791
 4926TIP3    H136269   4.525   2.947  16.067  0.1938 -1.1979 -0.2527
 4926TIP3    H236270   4.601   2.860  16.165  0.0809  0.6610  1.5055
 4927TIP3   OH236271   3.778   5.905  14.071  0.2460 -0.3981 -0.4268
 4927TIP3    H136272   3.720   5.901  14.147  1.3290  0.2027  0.4516
 4927TIP3    H236273   3.720   5.919  13.997 -0.8811 -1.5877  0.2128
 4928TIP3   OH236274   5.422   1.768  15.243 -0.6322 -0.1788  0.0937
 4928TIP3    H136275   5.391   1.779  15.333 -1.2199  0.2386 -0.1606
 4928TIP3    H236276   5.493   1.832  15.234 -2.7525  2.1229 -0.7670
 4929TIP3   OH236277   2.085   5.432  13.812  0.0416  0.6059  0.4781
 4929TIP3    H136278   2.092   5.389  13.727 -0.6943  0.1486  0.6526
 4929TIP3    H236279   2.150   5.503  13.808 -0.1019  0.6857 -0.5181
 4930TIP3   OH236280   1.907   1.428   0.609  0.5432 -0.4406 -0.9626
 4930TIP3    H136281   1.848   1.355   0.627  0.3222 -0.3335 -1.2367
 4930TIP3    H236282   1.995   1.392   0.619  0.4350 -0.7756 -1.2346
 4931TIP3   OH236283   3.623   2.904  17.046 -0.6108 -0.4998 -0.1658
 4931TIP3    H136284   3.563   2.956  17.100 -0.1221  0.8572 -0.9110
 4931TIP3    H236285   3.585   2.816  17.048 -1.6101 -0.0750  0.8813
 4932TIP3   OH236286   0.825   3.921  13.493 -0.0225  0.6029  0.0885
 4932TIP3    H136287   0.737   3.941  13.462  0.1842  1.5826  0.1101
 4932TIP3    H236288   0.830   3.825  13.495 -0.4026  0.5412 -1.8068
 4933TIP3   OH236289   6.644   3.970   4.408  0.0047  0.5935 -0.3963
 4933TIP3    H136290   6.631   4.017   4.325  0.3007  1.7246  0.1865
 4933TIP3    H236291   6.727   4.004   4.442 -0.3478  0.4717  0.5911
 4934TIP3   OH236292   6.059   5.415   5.206  0.0530 -0.6991 -0.0850
 4934TIP3    H136293   6.138   5.392   5.254  0.9491 -0.0642 -1.2424
 4934TIP3    H236294   5.993   5.429   5.274  0.7693 -1.8122  0.8554
 4935TIP3   OH236295   2.550   5.519   2.552  0.2088  0.0641  0.6302
 4935TIP3    H136296   2.535   5.446   2.492  1.2573 -1.4185  2.1351
 4935TIP3    H236297   2.493   5.500   2.627  2.8186 -0.9209  2.4318
 4936TIP3   OH236298   2.018   1.271   2.874  0.1256 -0.0345 -0.2762
 4936TIP3    H136299   1.975   1.267   2.788 -0.6506 -1.0067  0.1395
 4936TIP3    H236300   1.995   1.358   2.908 -1.1012 -0.3404 -0.2828
 4937TIP3   OH236301   6.053   6.137   1.668 -0.1606 -0.1371  0.3485
 4937TIP3    H136302   6.131   6.125   1.721  0.4696  1.3465 -0.2197
 4937TIP3    H236303   6.085   6.168   1.584 -1.2415 -1.2797 -0.5057
 4938TIP3   OH236304   0.181   1.090   4.740 -0.4972 -0.3313 -0.5317
 4938TIP3    H136305   0.247   1.145   4.697  0.4263 -0.7863  0.2770
 4938TIP3    H236306   0.131   1.151   4.794 -0.2250 -0.1080 -0.5304
 4939TIP3   OH236307   2.141   2.107  12.424  0.0947 -0.3917  0.1703
 4939TIP3    H136308   2.115   2.061  12.344  3.8260 -1.2928 -0.5838
 4939TIP3    H236309   2.136   2.200  12.400 -1.2989 -0.5525 -0.2497
 4940TIP3   OH236310   0.861   4.475  13.358  0.0562  0.1430  0.0649
 4940TIP3    H136311   0.912   4.464  13.278  1.8271  0.2072  1.1790
 4940TIP3    H236312   0.851   4.569  13.367 -1.2797  0.1001 -0.7652
 4941TIP3   OH236313   1.028   5.416   0.049  0.1756 -0.4107 -0.7011
 4941TIP3    H136314   0.959   5.368   0.002 -0.1201  0.0237 -0.7086
 4941TIP3    H236315   1.084   5.450  -0.021 -0.1456  0.0549 -0.7399
 4942TIP3   OH236316   5.574   1.122   0.070  0.0707  0.4511  0.3745
 4942TIP3    H136317   5.543   1.175  -0.004  2.7000 -1.0205 -1.8302
 4942TIP3    H236318   5.497   1.071   0.096 -1.1962  1.8107 -0.5555
 4943TIP3   OH236319   2.261   3.227   0.459 -0.0153  0.7275  0.6043
 4943TIP3    H136320   2.327   3.205   0.525 -0.3471 -1.0722  0.3388
 4943TIP3    H236321   2.297   3.304   0.415  0.8520  1.1217  1.9656
 4944TIP3   OH236322   2.413   1.501  13.307 -0.4254  0.4252 -0.4399
 4944TIP3    H136323   2.318   1.502  13.312 -0.4164 -1.0990  0.5015
 4944TIP3    H236324   2.435   1.410  13.284  0.7985  0.6785 -0.3227
 4945TIP3   OH236325   4.356   4.163  11.893 -0.8654 -0.3925  0.0811
 4945TIP3    H136326   4.347   4.218  11.971 -1.2426  0.6774 -0.6863
 4945TIP3    H236327   4.364   4.226  11.821 -0.8943 -1.3585 -0.7772
 4946TIP3   OH236328   1.062   1.774  16.852 -0.1754  0.2183 -0.4411
 4946TIP3    H136329   1.029   1.832  16.921 -0.1298 -0.1685 -0.0940
 4946TIP3    H236330   1.010   1.695  16.861 -1.4952  0.8731 -2.0904
 4947TIP3   OH236331   5.723   4.577   0.171 -0.4445 -0.3880  0.1804
 4947TIP3    H136332   5.762   4.637   0.106 -0.7849 -0.6018 -0.2230
 4947TIP3    H236333   5.683   4.635   0.236  0.4023 -0.1681  0.5114
 4948TIP3   OH236334   6.478   1.753  13.027 -0.3926 -0.1726 -0.2881
 4948TIP3    H136335   6.417   1.794  13.088 -0.6909 -1.4017  0.2429
 4948TIP3    H236336   6.521   1.827  12.983 -0.4137  0.7152  1.1569
 4949TIP3   OH236337   1.362   0.710   0.810 -0.4135 -0.2687  0.0848
 4949TIP3    H136338   1.446   0.678   0.775  0.0216  1.9326 -0.9326
 4949TIP3    H236339   1.297   0.680   0.747 -0.1155  0.1186 -0.4046
 4950TIP3   OH236340   5.134   1.450   2.053  0.4709 -0.1511  0.0983
 4950TIP3    H136341   5.161   1.461   1.962 -1.6091  1.1019 -0.4097
 4950TIP3    H236342   5.087   1.366   2.053 -0.4132  0.3397 -0.2118
 4951TIP3   OH236343   3.823   2.547   1.241  0.4292 -0.5456  0.4073
 4951TIP3    H136344   3.758   2.476   1.239  0.3292 -0.4743  1.0973
 4951TIP3    H236345   3.904   2.505   1.212  0.5214 -1.1050  1.4411
 4952TIP3   OH236346   3.622   4.463  15.096  0.2048 -0.1584  0.1213
 4952TIP3    H136347   3.549   4.449  15.036  0.2943  4.4468 -1.2235
 4952TIP3    H236348   3.587   4.439  15.182 -1.9018 -0.9373 -0.9221
 4953TIP3   OH236349   6.708   3.759  14.374 -0.2498 -0.1733  0.0870
 4953TIP3    H136350   6.741   3.776  14.286 -0.5547 -1.5756 -0.3169
 4953TIP3    H236351   6.630   3.705  14.360 -0.6697  0.1265  1.1928
 4954TIP3   OH236352   0.946   4.764  12.290  0.1706 -0.7483  0.9369
 4954TIP3    H136353   0.872   4.825  12.297  1.0674  0.8859 -2.6099
 4954TIP3    H236354   1.011   4.812  12.240  3.1100 -2.7211  2.7513
 4955TIP3   OH236355   2.698   0.027  14.019  0.1746 -0.2030  0.4043
 4955TIP3    H136356   2.635  -0.043  14.002  0.0996  0.2562 -1.3865
 4955TIP3    H236357   2.662   0.103  13.973  1.4570  0.3617  0.3030
 4956TIP3   OH236358   5.327   1.983   0.228  0.2438 -0.2238  0.2058
 4956TIP3    H136359   5.419   1.973   0.252  1.1807  1.4611 -2.5313
 4956TIP3    H236360   5.317   1.932   0.148 -1.0518  0.1564  0.1148
 4957TIP3   OH236361   3.353   6.225   1.311  0.2638 -0.4878  0.1200
 4957TIP3    H136362   3.389   6.237   1.223  0.4752 -1.5480  0.0505
 4957TIP3    H236363   3.284   6.159   1.299  1.4965 -1.9572  1.0386
 4958TIP3   OH236364   2.723   1.068   6.511  0.2424  0.0167 -0.5689
 4958TIP3    H136365   2.768   1.030   6.436 -0.1171  0.4956 -1.0222
 4958TIP3    H236366   2.728   1.162   6.497 -1.6279  0.0516 -1.0401
 4959TIP3   OH236367   3.609   5.437  12.411  0.3156  0.2719  0.3923
 4959TIP3    H136368   3.531   5.433  12.356 -0.2477  1.0509  1.1220
 4959TIP3    H236369   3.577   5.470  12.495  1.0248 -1.6281  1.4460
 4960TIP3   OH236370   2.745   1.951  12.411 -0.4328 -0.3124  0.4855
 4960TIP3    H136371   2.807   1.887  12.377  1.0119  1.1055  0.3956
 4960TIP3    H236372   2.739   1.933  12.505 -0.1171 -0.6317  0.4418
 4961TIP3   OH236373   4.394   0.621  13.126 -1.1948 -0.0973 -0.3042
 4961TIP3    H136374   4.345   0.563  13.068 -1.9640 -0.7746  0.9977
 4961TIP3    H236375   4.486   0.600  13.108 -1.4110 -0.2058 -1.3581
 4962TIP3   OH236376   6.726   3.769  15.669  0.3333 -0.4219 -0.3566
 4962TIP3    H136377   6.816   3.802  15.678  0.3590 -0.4310 -0.5737
 4962TIP3    H236378   6.736   3.676  15.651  0.2869 -0.3952 -0.5270
 4963TIP3   OH236379   4.876   4.503  15.587 -0.0172 -0.0192 -0.4425
 4963TIP3    H136380   4.842   4.479  15.673 -1.0370 -0.3414 -0.9302
 4963TIP3    H236381   4.952   4.446  15.574  1.0543  1.0641  0.8741
 4964TIP3   OH236382   2.294   4.997   0.610 -0.6703 -0.5934  1.0074
 4964TIP3    H136383   2.285   4.955   0.524 -0.6334 -0.2563  0.8396
 4964TIP3    H236384   2.205   5.020   0.635 -0.6133 -0.1220  0.7759
 4965TIP3   OH236385   5.694   5.204  11.661  0.2167  0.1183 -0.5735
 4965TIP3    H136386   5.638   5.207  11.584 -0.8822  1.2218  0.2478
 4965TIP3    H236387   5.748   5.283  11.655  0.9483 -0.3942 -0.8076
 4966TIP3   OH236388   0.591   0.633   4.975 -0.4681 -0.1953  0.1860
 4966TIP3    H136389   0.513   0.643   5.029 -0.7010 -2.2075  0.2616
 4966TIP3    H236390   0.664   0.648   5.034 -0.7424 -1.4711  0.8639
 4967TIP3   OH236391   4.419   1.036   4.257  0.5624  0.1233  0.1808
 4967TIP3    H136392   4.499   1.054   4.307  0.0440 -0.2014  1.1452
 4967TIP3    H236393   4.448   0.983   4.183  1.1055 -0.8488  1.0685
 4968TIP3   OH236394   1.765   0.471  15.749 -0.0612 -0.2722  0.9040
 4968TIP3    H136395   1.791   0.460  15.840 -1.2353 -2.2185  1.0420
 4968TIP3    H236396   1.847   0.487  15.702  0.5586  0.6193  2.2797
 4969TIP3   OH236397   3.830   6.672   3.658  0.4820 -0.1929  0.0851
 4969TIP3    H136398   3.863   6.626   3.735 -2.8328 -1.4515  0.8196
 4969TIP3    H236399   3.880   6.637   3.585  0.8295 -1.9643  1.1604
 4970TIP3   OH236400   4.305   6.202   1.779 -0.2549 -0.4859  0.9038
 4970TIP3    H136401   4.258   6.250   1.847 -0.6594  1.3074 -0.6028
 4970TIP3    H236402   4.247   6.206   1.703  2.2945  1.8163 -1.0144
 4971TIP3   OH236403   6.370   3.317   4.482  0.2195 -0.1509  0.5997
 4971TIP3    H136404   6.318   3.395   4.461  1.7208  0.7555  0.1207
 4971TIP3    H236405   6.370   3.314   4.578  1.8488  1.6624  0.6986
 4972TIP3   OH236406   2.386   2.206  11.232 -0.1673  0.2013  0.9975
 4972TIP3    H136407   2.459   2.269  11.230 -1.0503  1.2172  0.0601
 4972TIP3    H236408   2.423   2.126  11.196  1.3103 -0.2082  3.3353
 4973TIP3   OH236409   3.703   1.641   3.291  0.3368 -1.0349  0.2626
 4973TIP3    H136410   3.611   1.659   3.273 -0.0668 -2.5064  0.7861
 4973TIP3    H236411   3.730   1.579   3.223  1.5017  0.8714 -1.0691
 4974TIP3   OH236412   4.456   1.939   4.238 -0.3810 -0.3094  0.7813
 4974TIP3    H136413   4.463   1.921   4.145 -2.2429  1.9019  0.1627
 4974TIP3    H236414   4.403   1.868   4.273 -2.3188  0.5018 -0.4446
 4975TIP3   OH236415   3.872   2.105  15.196  0.0269 -0.3986  0.2502
 4975TIP3    H136416   3.926   2.180  15.171  0.3834 -0.3338  1.2060
 4975TIP3    H236417   3.783   2.139  15.195 -0.0174 -0.5499 -1.4925
 4976TIP3   OH236418   1.894   4.538  11.362  0.3791 -0.1925 -0.1129
 4976TIP3    H136419   1.870   4.466  11.303  1.2044 -0.4536 -0.1401
 4976TIP3    H236420   1.931   4.605  11.304 -2.0513  1.0204 -0.3123
 4977TIP3   OH236421   6.681   0.612  12.824  0.3046  0.7192  0.0258
 4977TIP3    H136422   6.700   0.647  12.737  0.0637  1.8878  0.4315
 4977TIP3    H236423   6.750   0.547  12.838 -1.3412 -1.5874 -2.2008
 4978TIP3   OH236424   5.077   0.357  11.128 -0.0614 -0.2983 -0.2407
 4978TIP3    H136425   5.098   0.362  11.221 -1.1921  3.0075 -0.0733
 4978TIP3    H236426   5.147   0.304  11.090  0.1977 -2.0339  2.5306
 4979TIP3   OH236427   6.229   6.600  13.217 -0.0053  0.2286 -0.0140
 4979TIP3    H136428   6.165   6.567  13.280 -1.2928 -0.1613 -1.4882
 4979TIP3    H236429   6.256   6.684  13.252  0.8919 -0.9166  2.1350
 4980TIP3   OH236430   5.293   2.964   0.112  0.2741  0.4375  0.1203
 4980TIP3    H136431   5.355   2.943   0.182 -0.6924  0.9982  1.1706
 4980TIP3    H236432   5.342   3.019   0.051  0.9884  0.3390  0.6064
 4981TIP3   OH236433   3.684   1.209  14.287  0.1590  0.1361 -0.1408
 4981TIP3    H136434   3.711   1.126  14.327 -1.8115 -0.8778 -0.8368
 4981TIP3    H236435   3.690   1.273  14.358 -0.4325 -1.0525  1.0105
 4982TIP3   OH236436   2.434   0.795  12.910  0.0183 -0.5472 -0.0676
 4982TIP3    H136437   2.436   0.841  12.826  0.9717 -0.6137 -0.0863
 4982TIP3    H236438   2.371   0.724  12.897 -1.6788  0.8973  0.0469
 4983TIP3   OH236439   5.083   4.997  11.289  0.4098 -0.6003  0.8867
 4983TIP3    H136440   5.155   5.010  11.228 -1.2141  0.7255 -0.8128
 4983TIP3    H236441   5.074   5.081  11.333 -1.9665  0.2207 -1.0432
 4984TIP3   OH236442   2.638   4.245  10.334 -0.2206  0.6656 -0.2129
 4984TIP3    H136443   2.615   4.260  10.242 -1.0741 -0.3644 -0.1796
 4984TIP3    H236444   2.727   4.279  10.342  0.1197  0.1327 -1.5901
 4985TIP3   OH236445   3.997   1.524  11.046 -0.3625  0.2020 -0.0147
 4985TIP3    H136446   4.067   1.459  11.050 -0.5994 -0.0851 -0.4999
 4985TIP3    H236447   3.917   1.475  11.063 -0.4859  0.4607  0.1548
 4986TIP3   OH236448   0.704   2.289   0.337 -0.1172  0.4394 -0.0259
 4986TIP3    H136449   0.785   2.339   0.336 -0.2932  0.7736  1.2043
 4986TIP3    H236450   0.644   2.341   0.391 -0.6623 -0.5499  0.3342
 4987TIP3   OH236451   3.856   0.866   0.331  0.3474  0.0115  0.6166
 4987TIP3    H136452   3.808   0.948   0.333 -1.3825 -0.9662  0.9528
 4987TIP3    H236453   3.931   0.882   0.273 -1.4754  0.9981 -1.5218
 4988TIP3   OH236454   6.503   0.296   5.974  0.2831  0.1346  0.4265
 4988TIP3    H136455   6.499   0.260   6.062  0.6879  1.4708  1.0119
 4988TIP3    H236456   6.520   0.389   5.988  0.8167  0.2665 -1.0789
 4989TIP3   OH236457   1.721   6.774  16.463  0.3393  0.2130 -0.5208
 4989TIP3    H136458   1.734   6.841  16.396 -0.1700  1.8202  0.9345
 4989TIP3    H236459   1.631   6.744  16.450  0.3823  0.2141 -0.8210
 4990TIP3   OH236460   5.417   6.639   5.904  0.3928 -0.4859  1.3493
 4990TIP3    H136461   5.322   6.640   5.889  0.2613  1.4092  2.2624
 4990TIP3    H236462   5.426   6.627   5.999  1.0289  1.6959  1.5798
 4991TIP3   OH236463   1.704   4.918  12.287 -0.6199  0.6041 -0.7013
 4991TIP3    H136464   1.670   4.829  12.281 -1.7338  1.0322 -1.0509
 4991TIP3    H236465   1.635   4.967  12.333  1.6728  0.4668  2.9811
 4992TIP3   OH236466   2.977   0.635  16.707  0.1182 -0.0511  0.4426
 4992TIP3    H136467   2.979   0.714  16.762 -0.2733  0.8669 -0.8491
 4992TIP3    H236468   2.889   0.599  16.720 -0.7241  1.3513 -1.2122
 4993TIP3   OH236469   5.879   1.659  12.214  0.2657 -0.0486  0.0369
 4993TIP3    H136470   5.879   1.660  12.310 -1.1935 -0.4458  0.0522
 4993TIP3    H236471   5.791   1.687  12.190 -0.5679 -3.5028 -1.1586
 4994TIP3   OH236472   3.003   5.421   2.617  0.6148 -0.1995  0.0339
 4994TIP3    H136473   3.023   5.443   2.526 -2.0516  0.6138 -0.3928
 4994TIP3    H236474   3.065   5.351   2.638  1.5137 -0.1677 -2.2836
 4995TIP3   OH236475   3.016   2.595  11.989 -0.1242 -0.9138 -0.1298
 4995TIP3    H136476   3.005   2.664  12.055  1.0031 -0.6578 -0.2072
 4995TIP3    H236477   2.969   2.520  12.026 -0.3731 -0.4598  0.4960
 4996TIP3   OH236478   4.383   6.625   6.231 -0.5746  0.0356  0.0283
 4996TIP3    H136479   4.324   6.650   6.302 -0.7827  0.6268 -0.3555
 4996TIP3    H236480   4.431   6.550   6.266 -1.0404 -0.0012  0.6067
 4997TIP3   OH236481   3.877   6.515  16.655  0.5602  0.3264 -0.2960
 4997TIP3    H136482   3.838   6.431  16.630  0.7983  0.0767  0.1530
 4997TIP3    H236483   3.916   6.548  16.574 -2.3023  1.5527 -1.2378
 4998TIP3   OH236484   3.481   3.312   6.046 -1.0604  0.0113  0.0143
 4998TIP3    H136485   3.525   3.318   6.131 -1.3997  0.4697  0.1649
 4998TIP3    H236486   3.464   3.219   6.034  0.0167 -0.1707 -0.0843
 4999TIP3   OH236487   5.286   4.254   0.157  0.4800 -0.0798 -0.2195
 4999TIP3    H136488   5.353   4.238   0.090  1.4054 -1.8212  1.0629
 4999TIP3    H236489   5.232   4.175   0.157 -0.7228  0.7380 -0.2786
 5000TIP3   OH236490   4.032   4.410  13.578 -0.0461 -0.0849 -0.3173
 5000TIP3    H136491   3.971   4.339  13.597 -0.9344  1.0861  1.3043
 5000TIP3    H236492   3.979   4.475  13.531  1.0143 -0.9281 -2.7437
 5001TIP3   OH236493   0.684   3.172   1.277  0.0345 -0.1194 -0.2751
 5001TIP3    H136494   0.729   3.204   1.355  2.0805 -0.9957 -1.0584
 5001TIP3    H236495   0.664   3.252   1.227  3.0719  0.2020 -1.1237
 5002TIP3   OH236496   1.427   1.253   1.101  0.1691 -0.1434  0.1009
 5002TIP3    H136497   1.440   1.346   1.120 -0.5141 -0.7269  3.7287
 5002TIP3    H236498   1.370   1.252   1.024  4.0292  2.3750 -3.0264
 5003TIP3   OH236499   4.711   4.429   4.733 -0.5201  0.3203 -0.2155
 5003TIP3    H136500   4.649   4.378   4.680 -0.9911  0.8700 -0.1888
 5003TIP3    H236501   4.737   4.369   4.803 -0.4971 -0.1429 -0.6165
 5004TIP3   OH236502   2.477   1.378  14.285 -0.4020 -0.1963 -0.5983
 5004TIP3    H136503   2.546   1.320  14.317 -2.1335 -1.7459  0.5009
 5004TIP3    H236504   2.472   1.362  14.191  0.9819  0.2162 -0.7418
 5005TIP3   OH236505   3.676   2.354   3.381 -0.3130  0.1099 -0.5243
 5005TIP3    H136506   3.710   2.402   3.305 -1.9695 -0.6171 -1.7601
 5005TIP3    H236507   3.599   2.403   3.408 -0.2773 -0.1733  0.1002
 5006TIP3   OH236508   3.526   3.643   5.605  0.2464 -0.5646 -0.1279
 5006TIP3    H136509   3.621   3.651   5.601  0.1471  0.3693 -1.0375
 5006TIP3    H236510   3.509   3.584   5.678  1.6168 -2.6856 -1.4731
 5007TIP3   OH236511   4.299   1.940   1.984 -0.0642  0.2608  0.0841
 5007TIP3    H136512   4.344   1.949   2.068  1.2397 -2.4065 -0.2686
 5007TIP3    H236513   4.219   1.891   2.005 -0.1775  0.3778 -0.0765
 5008TIP3   OH236514   5.181   0.770   2.167  0.5816 -0.0046  0.6377
 5008TIP3    H136515   5.101   0.803   2.207  2.4664  1.1974  3.5925
 5008TIP3    H236516   5.234   0.848   2.151  2.2056 -0.9785  1.1401
 5009TIP3   OH236517   5.877   4.933  12.475  0.5250 -0.0694  0.1583
 5009TIP3    H136518   5.818   4.951  12.548 -0.4133 -0.3427 -0.5257
 5009TIP3    H236519   5.935   5.009  12.472  0.8907 -0.2802  1.4882
 5010TIP3   OH236520   6.665   3.855   5.512 -0.8912 -0.1035  0.1138
 5010TIP3    H136521   6.642   3.871   5.421  0.2538  1.9041  0.1484
 5010TIP3    H236522   6.646   3.938   5.557  2.0684  0.1663  0.9637
 5011TIP3   OH236523   3.472   6.043  13.264  0.0208 -0.4088  0.5461
 5011TIP3    H136524   3.542   6.076  13.208 -0.4687 -0.3888 -0.0565
 5011TIP3    H236525   3.516   6.016  13.345  0.4814  1.3465  0.9024
 5012TIP3   OH236526   4.648   1.581   5.419 -0.0403 -0.4030  0.4137
 5012TIP3    H136527   4.612   1.591   5.330 -1.1258  1.9514  1.0713
 5012TIP3    H236528   4.740   1.608   5.410 -0.0551 -0.4917 -0.0563
 5013TIP3   OH236529   6.155   5.165   3.502  0.2281  0.1264  0.6695
 5013TIP3    H136530   6.179   5.247   3.459 -0.5573 -0.5945 -1.1755
 5013TIP3    H236531   6.079   5.186   3.556  0.4723  0.7608  0.7651
 5014TIP3   OH236532   0.562   2.320  13.190  0.2051 -0.4110  0.0192
 5014TIP3    H136533   0.476   2.344  13.154 -0.2119 -0.4864  0.9470
 5014TIP3    H236534   0.622   2.387  13.157 -0.5540  0.7046  0.8671
 5015TIP3   OH236535   6.588   1.895  12.314 -0.0345 -0.0853  0.3140
 5015TIP3    H136536   6.547   1.827  12.369 -1.5967 -1.2747 -2.2414
 5015TIP3    H236537   6.538   1.974  12.334  0.2976 -0.1779  1.5885
 5016TIP3   OH236538   5.272   2.908  13.102 -0.0272 -0.2639 -0.0420
 5016TIP3    H136539   5.322   2.870  13.174 -0.6227 -0.9811  0.0048
 5016TIP3    H236540   5.236   2.832  13.055 -0.5689  0.2231 -0.4255
 5017TIP3   OH236541   1.114   1.068   5.224 -0.5798 -0.1427  0.0319
 5017TIP3    H136542   1.058   1.028   5.157 -0.0788  0.4129 -0.7206
 5017TIP3    H236543   1.203   1.045   5.197 -0.4062 -0.4657  0.8695
 5018TIP3   OH236544   4.974   5.041   1.560  0.4236  0.2810  0.5941
 5018TIP3    H136545   5.013   5.042   1.472  0.4320 -0.0726  0.5920
 5018TIP3    H236546   4.896   5.096   1.552 -0.1811 -0.6255  0.0767
 5019TIP3   OH236547   4.385   2.205  11.209 -0.9379  0.5274  0.1490
 5019TIP3    H136548   4.342   2.205  11.295 -1.2191 -0.1418  0.0096
 5019TIP3    H236549   4.412   2.114  11.196 -1.3982  0.5133 -0.7192
 5020TIP3   OH236550   6.369   6.779   0.111 -0.2144  0.3361  0.2357
 5020TIP3    H136551   6.355   6.859   0.162 -2.0851  0.7026 -0.8195
 5020TIP3    H236552   6.370   6.808   0.020  3.1552 -0.3222 -0.0267
 5021TIP3   OH236553   4.305   4.873   1.752  0.1362 -0.3750 -0.6452
 5021TIP3    H136554   4.252   4.794   1.758 -0.7189  0.4259  3.5242
 5021TIP3    H236555   4.378   4.858   1.811 -0.4034  2.2072  0.7611
 5022TIP3   OH236556   1.351   2.469   3.637 -0.1296  0.1956  0.4289
 5022TIP3    H136557   1.377   2.526   3.709  1.2467 -1.9358  1.7011
 5022TIP3    H236558   1.306   2.396   3.679 -1.6595  0.1905 -1.1333
 5023TIP3   OH236559   1.452   5.349  14.784 -0.4889 -0.3846 -0.0366
 5023TIP3    H136560   1.397   5.369  14.860  0.2556 -0.5946  0.5643
 5023TIP3    H236561   1.473   5.256  14.793 -0.3854 -0.4062 -0.4944
 5024TIP3   OH236562   5.658   2.608   5.332 -0.2386  0.3580 -0.1408
 5024TIP3    H136563   5.636   2.699   5.353 -0.3178  0.4795 -0.7512
 5024TIP3    H236564   5.645   2.601   5.238  1.2235  0.1175 -0.3344
 5025TIP3   OH236565   0.152   0.903   4.103 -0.6234  0.2053  0.6101
 5025TIP3    H136566   0.235   0.928   4.143  0.2320 -0.5727 -0.6712
 5025TIP3    H236567   0.101   0.865   4.175  0.4427 -0.0855  1.2191
 5026TIP3   OH236568   6.130   2.674   5.305 -0.7213 -0.3240 -0.1513
 5026TIP3    H136569   6.134   2.582   5.328  0.8380 -0.1413  0.3446
 5026TIP3    H236570   6.166   2.720   5.382  1.1711  0.5105 -1.4985
 5027TIP3   OH236571   1.706   6.212   4.686  0.5209  0.6793 -0.6329
 5027TIP3    H136572   1.716   6.214   4.591  1.0047 -0.7230 -0.6222
 5027TIP3    H236573   1.646   6.284   4.705 -1.6317 -0.6136 -2.2662
 5028TIP3   OH236574   2.189   6.111   4.336 -0.0446  0.2101  0.1915
 5028TIP3    H136575   2.274   6.106   4.292 -0.0061 -0.8742  0.3836
 5028TIP3    H236576   2.174   6.205   4.347  0.9755  0.4224 -0.1348
 5029TIP3   OH236577   0.142   3.220   1.936 -0.3193  0.2519 -0.3134
 5029TIP3    H136578   0.147   3.315   1.930 -0.0849  0.3449  1.2823
 5029TIP3    H236579   0.090   3.202   2.014 -0.3914 -0.9347 -0.6133
 5030TIP3   OH236580   5.952   4.089   6.218  0.3870 -0.2881  0.4473
 5030TIP3    H136581   6.002   4.008   6.216  0.0551 -0.4905 -0.1065
 5030TIP3    H236582   5.864   4.062   6.245  0.1528 -0.1920 -0.1963
 5031TIP3   OH236583   2.277   3.485   0.648 -0.1530 -0.4244  0.3192
 5031TIP3    H136584   2.237   3.568   0.678  0.8725 -0.3035  1.3903
 5031TIP3    H236585   2.357   3.512   0.605  0.1727 -0.8568  0.6552
 5032TIP3   OH236586   3.481   3.508   0.929  0.1815  0.3193  0.2655
 5032TIP3    H136587   3.429   3.581   0.894  0.9776  1.0139  0.5093
 5032TIP3    H236588   3.560   3.550   0.964  0.1856 -0.5541  1.3242
 5033TIP3   OH236589   5.919   0.360   0.139  0.5517 -0.4155 -0.3464
 5033TIP3    H136590   5.981   0.308   0.087  0.8863 -1.2815  0.8992
 5033TIP3    H236591   5.968   0.438   0.165 -0.0429  0.7216 -2.4801
 5034TIP3   OH236592   1.838   2.789   0.576  0.1394  0.1163 -0.2628
 5034TIP3    H136593   1.912   2.773   0.634  0.4152 -1.8354 -1.1246
 5034TIP3    H236594   1.787   2.857   0.621  1.9052  0.7553  0.8089
 5035TIP3   OH236595   1.342   1.375   5.613 -0.0886  0.4853  0.3257
 5035TIP3    H136596   1.257   1.366   5.656  0.2373  1.0054  1.0846
 5035TIP3    H236597   1.352   1.469   5.597  1.2078  0.6633  2.0276
 5036TIP3   OH236598   1.830   4.386   6.600 -0.0204 -0.3727  0.4472
 5036TIP3    H136599   1.899   4.331   6.564 -0.6412 -0.1592 -1.0755
 5036TIP3    H236600   1.748   4.345   6.572 -0.5102  0.1975  1.0124
 5037TIP3   OH236601   3.376   0.367  13.529  0.7208  0.1097  0.5271
 5037TIP3    H136602   3.466   0.369  13.562  1.2354 -1.4841 -0.6885
 5037TIP3    H236603   3.384   0.392  13.437  0.1190 -1.3791  0.0494
 5038TIP3   OH236604   5.314   6.619  10.844 -0.1034 -0.2944  0.3647
 5038TIP3    H136605   5.341   6.533  10.812 -0.9205 -2.1383  4.3670
 5038TIP3    H236606   5.244   6.601  10.907 -1.3011  3.4249  0.2414
 5039TIP3   OH236607   3.535   5.979  10.615 -0.7630 -0.4886  0.1784
 5039TIP3    H136608   3.577   5.933  10.542  0.9957 -0.2529  1.0194
 5039TIP3    H236609   3.471   6.037  10.573 -0.3877 -0.9902 -1.1142
 5040TIP3   OH236610   3.304   5.885  14.611 -0.1522 -0.3435 -0.2999
 5040TIP3    H136611   3.260   5.941  14.675 -0.4978 -0.1080 -0.7458
 5040TIP3    H236612   3.234   5.852  14.555 -0.0556 -1.8652  0.4469
 5041TIP3   OH236613   1.571   1.381  15.543  0.2548 -0.1694 -0.7722
 5041TIP3    H136614   1.574   1.458  15.487  1.9149  0.0798 -0.3719
 5041TIP3    H236615   1.660   1.344  15.538 -0.4639 -1.9372 -0.8169
 5042TIP3   OH236616   1.381   2.556  14.327  0.4579 -0.0104 -0.3237
 5042TIP3    H136617   1.344   2.468  14.329 -0.7145  0.4687 -0.4057
 5042TIP3    H236618   1.437   2.556  14.250  0.7126 -0.7827 -0.1429
 5043TIP3   OH236619   1.620   3.707   1.743 -0.3567 -0.0224 -0.4045
 5043TIP3    H136620   1.526   3.688   1.745 -0.7124  0.9102 -4.1437
 5043TIP3    H236621   1.625   3.799   1.719  1.5418  0.0593  0.2269
 5044TIP3   OH236622   1.601   1.976  16.759 -0.9087 -0.2998 -0.5301
 5044TIP3    H136623   1.518   1.950  16.800 -2.0065  1.8326 -1.3073
 5044TIP3    H236624   1.575   2.042  16.694  1.7079  2.8025  1.4214
 5045TIP3   OH236625   2.888   0.974  14.722  0.1358  0.2053 -0.1628
 5045TIP3    H136626   2.906   1.035  14.794 -0.8708  2.2303 -1.5580
 5045TIP3    H236627   2.974   0.942  14.696  0.7318  1.3362  0.3623
 5046TIP3   OH236628   2.770   4.617   6.318 -0.4537  0.1573  0.2941
 5046TIP3    H136629   2.733   4.602   6.231 -0.6805 -1.1859  0.6143
 5046TIP3    H236630   2.777   4.530   6.357  1.2166  0.5786  0.9876
 5047TIP3   OH236631   2.884   3.929   2.534 -0.1008 -0.0766 -0.1121
 5047TIP3    H136632   2.897   4.024   2.535 -0.5597  0.0037 -1.5568
 5047TIP3    H236633   2.790   3.918   2.531 -0.0189 -0.5683 -0.9508
 5048TIP3   OH236634   4.603   3.715   0.608  0.2744  0.2206 -1.2411
 5048TIP3    H136635   4.535   3.770   0.649 -0.4834 -1.0516 -0.7645
 5048TIP3    H236636   4.659   3.688   0.681  1.2567  1.2135 -1.6267
 5049TIP3   OH236637   3.600   3.486  14.572  0.4137  0.5508 -0.4762
 5049TIP3    H136638   3.584   3.523  14.659  1.2406  0.3915 -0.2539
 5049TIP3    H236639   3.517   3.496  14.526 -0.9610 -2.0822  1.3262
 5050TIP3   OH236640   3.558   2.388  13.536  0.2009  0.1125 -0.0914
 5050TIP3    H136641   3.471   2.426  13.552  0.8911  1.8962 -0.3607
 5050TIP3    H236642   3.617   2.439  13.592  1.0845 -1.0297  0.0329
 5051TIP3   OH236643   1.818   6.298   1.481 -0.0859  0.9331 -0.2936
 5051TIP3    H136644   1.909   6.278   1.459 -0.1103  0.0526  0.3774
 5051TIP3    H236645   1.818   6.393   1.497  0.5876  1.0386 -0.8757
 5052TIP3   OH236646   0.300   0.708   4.337  0.6641 -0.2423  0.1201
 5052TIP3    H136647   0.349   0.784   4.303  1.0889 -1.3989 -1.9359
 5052TIP3    H236648   0.283   0.655   4.260 -2.6453 -0.5824  1.0448
 5053TIP3   OH236649   2.252   4.732  12.407  0.7335  0.3542 -0.0229
 5053TIP3    H136650   2.178   4.731  12.346 -0.5182  3.7478  1.3080
 5053TIP3    H236651   2.304   4.808  12.380  3.3547 -1.4947 -0.4182
 5054TIP3   OH236652   4.426   0.816  12.846 -0.3441  0.3664  0.4185
 5054TIP3    H136653   4.504   0.846  12.800 -1.4794  0.0008 -1.8480
 5054TIP3    H236654   4.418   0.723  12.821 -0.3951 -0.1154  2.2086
 5055TIP3   OH236655   3.176   3.732  16.949  0.3020  0.4630  0.5109
 5055TIP3    H136656   3.148   3.669  17.015  1.4861 -1.9029 -1.1637
 5055TIP3    H236657   3.097   3.754  16.901 -0.3284  1.1879  1.8542
 5056TIP3   OH236658   3.316   4.314   4.057 -0.5407  0.4655  0.1044
 5056TIP3    H136659   3.366   4.311   4.138  0.7961  0.2367 -0.7279
 5056TIP3    H236660   3.285   4.405   4.052  0.9828  0.9888 -0.0886
 5057TIP3   OH236661   4.817   1.591   2.452 -0.0063 -0.0900  0.0145
 5057TIP3    H136662   4.794   1.623   2.365  2.7893  0.5675 -0.5484
 5057TIP3    H236663   4.846   1.669   2.499  1.0633 -0.8376  0.6213
 5058TIP3   OH236664   0.533   3.978   5.672 -0.1913  0.0421 -0.3681
 5058TIP3    H136665   0.570   4.031   5.601  0.3599  0.7304  0.4236
 5058TIP3    H236666   0.474   4.038   5.718 -0.6372 -0.4366 -0.3110
 5059TIP3   OH236667   4.197   2.951  13.073 -0.2789  0.3122 -0.2889
 5059TIP3    H136668   4.146   2.974  12.996 -0.1089  2.9280  0.3235
 5059TIP3    H236669   4.288   2.956  13.044 -0.2738 -0.8451 -0.4722
 5060TIP3   OH236670   6.590   3.853  15.989  0.4575  0.6094 -0.1464
 5060TIP3    H136671   6.518   3.842  15.926  1.3616 -1.8489 -0.8221
 5060TIP3    H236672   6.561   3.805  16.067  0.1863  1.9904  0.6144
 5061TIP3   OH236673   5.804   2.063  10.768 -0.7545  0.3831  0.0330
 5061TIP3    H136674   5.897   2.048  10.747 -0.7247 -0.8638  1.0055
 5061TIP3    H236675   5.791   2.156  10.752 -0.0203  0.0371 -2.7550
 5062TIP3   OH236676   3.523   2.497  16.286  0.1437 -0.9394 -0.0205
 5062TIP3    H136677   3.494   2.483  16.195  1.0914 -0.8575 -0.3364
 5062TIP3    H236678   3.442   2.515  16.334 -0.4114 -1.3944 -0.7715
 5063TIP3   OH236679   6.336   2.626  12.479 -0.0605  0.4388 -0.5750
 5063TIP3    H136680   6.266   2.617  12.543  0.9424 -0.7575  0.3795
 5063TIP3    H236681   6.417   2.612  12.529  0.9198  2.4332 -1.5128
 5064TIP3   OH236682   4.430   6.334  15.349  0.5853  0.0141  0.1111
 5064TIP3    H136683   4.505   6.359  15.403  1.3059  0.5356 -1.1125
 5064TIP3    H236684   4.464   6.265  15.291  0.0084 -0.0551 -0.1455
 5065TIP3   OH236685   5.883   3.185   0.496  0.3497 -0.8690  0.2364
 5065TIP3    H136686   5.819   3.254   0.477 -0.0455 -1.1344  0.5993
 5065TIP3    H236687   5.833   3.119   0.543  0.0627 -2.6642 -2.5129
 5066TIP3   OH236688   1.112   1.756   0.156  1.2733  0.0281 -0.3576
 5066TIP3    H136689   1.062   1.773   0.236  1.4486  0.0174 -0.2449
 5066TIP3    H236690   1.149   1.841   0.132  1.0828  0.0649 -0.5220
 5067TIP3   OH236691   2.833   4.052   1.907 -0.0854 -0.3759 -0.3272
 5067TIP3    H136692   2.907   3.990   1.911 -1.2266 -1.8210 -0.9544
 5067TIP3    H236693   2.868   4.127   1.858  1.1845 -0.7304  0.0065
 5068TIP3   OH236694   4.034   3.748   5.870  0.2525  0.2392  0.1768
 5068TIP3    H136695   4.049   3.706   5.954  0.6185  0.0601  0.0198
 5068TIP3    H236696   4.120   3.751   5.828  0.1658  0.7945  0.0268
 5069TIP3   OH236697   6.811   5.959  12.722  0.4149 -0.0556  0.1616
 5069TIP3    H136698   6.767   6.035  12.759  0.5259  1.5510 -2.8938
 5069TIP3    H236699   6.761   5.937  12.643  3.0112 -0.3506 -1.4554
 5070TIP3   OH236700   1.646   5.930   4.084 -0.2755 -0.0282 -0.0483
 5070TIP3    H136701   1.683   5.876   4.014 -1.5739  0.0022 -0.7807
 5070TIP3    H236702   1.679   5.890   4.165  1.7242  0.2858 -0.6635
 5071TIP3   OH236703   2.536   1.365  10.877  0.2351  0.1091  0.3152
 5071TIP3    H136704   2.481   1.332  10.806  0.4742  0.5689 -0.0886
 5071TIP3    H236705   2.576   1.286  10.915 -1.3015 -0.2870  1.1148
 5072TIP3   OH236706   4.115   5.665  15.346  0.3854 -0.1919 -0.0131
 5072TIP3    H136707   4.167   5.734  15.386  0.9245 -1.5647  1.7181
 5072TIP3    H236708   4.178   5.615  15.293  1.0805 -2.3192  2.6929
 5073TIP3   OH236709   1.990   4.856   2.388  0.2924 -0.4606  0.4370
 5073TIP3    H136710   1.991   4.909   2.308 -4.7763  1.2509  1.3475
 5073TIP3    H236711   1.951   4.773   2.360  0.1847 -0.5228  0.7742
 5074TIP3   OH236712   3.224   0.989  13.867  0.2933 -0.3804  0.8372
 5074TIP3    H136713   3.184   0.960  13.948 -2.1186 -0.2733 -0.2806
 5074TIP3    H236714   3.199   0.922  13.802  0.8744  0.3380 -0.1475
 5075TIP3   OH236715   2.612   4.295  16.072  0.2510  0.7978 -0.2023
 5075TIP3    H136716   2.518   4.311  16.080  0.4060  2.0431 -0.7064
 5075TIP3    H236717   2.629   4.220  16.129 -0.4673  2.7554  2.6582
 5076TIP3   OH236718   3.918   3.391  17.227  0.3100  0.3306  0.6540
 5076TIP3    H136719   3.858   3.446  17.277  0.2401 -0.7816  1.8152
 5076TIP3    H236720   3.981   3.359  17.291  0.4258 -0.8398 -0.0258
 5077TIP3   OH236721   6.609   1.679   4.392  0.2658 -0.5366 -0.2709
 5077TIP3    H136722   6.592   1.605   4.334  1.0191 -1.6166  0.8551
 5077TIP3    H236723   6.564   1.657   4.474 -1.7803  1.5060 -0.7986
 5078TIP3   OH236724   6.080   5.480   0.303 -0.1607  0.2277 -0.1178
 5078TIP3    H136725   6.079   5.522   0.217  2.3748  0.2073 -0.1730
 5078TIP3    H236726   6.143   5.408   0.295  0.9667  0.9163  2.0594
 5079TIP3   OH236727   1.147   2.339  14.041  0.0315  0.7285 -0.0585
 5079TIP3    H136728   1.060   2.317  14.074 -0.0396  0.4521 -0.4231
 5079TIP3    H236729   1.207   2.313  14.111 -0.0169 -1.0570 -0.6665
 5080TIP3   OH236730   0.690   6.688   3.541  0.4612  0.5110 -0.1367
 5080TIP3    H136731   0.665   6.766   3.493  1.3172  1.0559  0.2865
 5080TIP3    H236732   0.731   6.631   3.476 -0.5198  0.2477 -0.5236
 5081TIP3   OH236733   4.142   4.961   2.030 -0.3431 -0.2876 -0.3200
 5081TIP3    H136734   4.138   4.871   1.997 -0.0324 -0.4912  0.1946
 5081TIP3    H236735   4.155   5.014   1.951  0.0184 -0.7419 -0.5729
 5082TIP3   OH236736   1.137   3.574  15.991  0.0597 -0.1503 -0.5061
 5082TIP3    H136737   1.160   3.482  15.998 -0.6909 -0.3219 -0.2873
 5082TIP3    H236738   1.216   3.616  15.958 -0.0139 -1.0653 -1.8819
 5083TIP3   OH236739   4.145   4.630   1.714 -0.8146 -0.0916 -0.0591
 5083TIP3    H136740   4.120   4.590   1.631  1.5247 -0.7864 -0.4884
 5083TIP3    H236741   4.153   4.557   1.775  0.5822  0.0435 -0.0668
 5084TIP3   OH236742   2.893   5.288   4.737 -0.0417 -0.3278 -0.0861
 5084TIP3    H136743   2.920   5.258   4.650  0.3219  0.5646 -0.2853
 5084TIP3    H236744   2.805   5.325   4.724  0.0735 -0.0579 -0.1076
 5085TIP3   OH236745   5.200   3.899  11.414  0.5036 -0.4042 -0.4619
 5085TIP3    H136746   5.206   3.927  11.506  3.3455 -0.3367 -0.6322
 5085TIP3    H236747   5.238   3.971  11.364 -1.3272 -0.3008 -1.7586
 5086TIP3   OH236748   4.752   3.921  16.920  0.5255 -0.1712 -0.7183
 5086TIP3    H136749   4.793   3.846  16.876 -0.6818 -0.7919 -0.8234
 5086TIP3    H236750   4.658   3.905  16.910  0.2593  1.2889 -0.6022
 5087TIP3   OH236751   4.001   6.511   5.168  0.6227 -0.2576 -0.1791
 5087TIP3    H136752   4.032   6.600   5.185  0.1052 -0.2737  0.8902
 5087TIP3    H236753   3.991   6.472   5.255  1.3081 -1.5246 -0.6611
 5088TIP3   OH236754   5.266   6.251  11.541  0.3419 -0.1947 -0.4122
 5088TIP3    H136755   5.332   6.264  11.610 -1.2550 -0.8475  1.3013
 5088TIP3    H236756   5.265   6.334  11.493  0.3932  0.8658  1.3459
 5089TIP3   OH236757   2.992   3.886   0.457  0.0178  0.2106  0.2749
 5089TIP3    H136758   3.032   3.951   0.400  1.0921  0.2026  1.0144
 5089TIP3    H236759   2.929   3.935   0.510  0.5154  0.5705  0.5307
 5090TIP3   OH236760   0.580   5.528   1.998  0.0510 -0.4962 -0.4433
 5090TIP3    H136761   0.581   5.453   1.939  1.5079 -1.5491  0.8818
 5090TIP3    H236762   0.519   5.504   2.067  0.8038 -0.6173  0.1796
 5091TIP3   OH236763   0.801   4.201   2.808  0.7332 -0.2819  0.7689
 5091TIP3    H136764   0.711   4.192   2.776  0.6840  0.6927  0.6113
 5091TIP3    H236765   0.849   4.235   2.732  1.0686 -0.0519  1.0889
 5092TIP3   OH236766   0.670   5.639  11.557 -0.1861 -0.1174 -0.1633
 5092TIP3    H136767   0.658   5.733  11.545 -0.0824  0.0294  0.8786
 5092TIP3    H236768   0.675   5.604  11.468 -1.3433  0.7123 -0.5702
 5093TIP3   OH236769   3.211   0.787   4.094 -0.6815 -0.3986 -0.3846
 5093TIP3    H136770   3.276   0.734   4.048  0.2359 -0.3137  0.7818
 5093TIP3    H236771   3.132   0.782   4.039  0.2388 -0.6737 -1.7101
 5094TIP3   OH236772   1.819   2.589   5.528  0.0003 -0.3014 -0.2825
 5094TIP3    H136773   1.873   2.654   5.573 -0.6910  0.4479 -0.5053
 5094TIP3    H236774   1.879   2.518   5.505  0.0991 -1.4138  3.1400
 5095TIP3   OH236775   2.586   0.211   1.447  0.2569 -0.3868 -0.2306
 5095TIP3    H136776   2.539   0.229   1.365 -3.9718 -1.6573  1.7811
 5095TIP3    H236777   2.575   0.290   1.499  1.1255 -0.3748 -0.0548
 5096TIP3   OH236778   0.316   5.597   3.105  0.3088  0.1438 -0.0597
 5096TIP3    H136779   0.333   5.523   3.047 -0.8777 -2.6206  2.9703
 5096TIP3    H236780   0.394   5.602   3.160  0.4388  1.2572 -0.3411
 5097TIP3   OH236781   1.470   5.608   3.635  1.1979  0.2120  1.2898
 5097TIP3    H136782   1.487   5.626   3.542  1.7693 -0.2535  1.2978
 5097TIP3    H236783   1.416   5.681   3.664 -0.5976 -0.6171  0.1300
 5098TIP3   OH236784   6.742   5.880   6.206  0.1556  1.1658 -0.3816
 5098TIP3    H136785   6.675   5.948   6.208 -0.9322  0.1052 -0.5553
 5098TIP3    H236786   6.700   5.803   6.243  1.0761  0.3089 -1.0705
 5099TIP3   OH236787   6.049   5.884   5.394  0.1991 -0.4684  0.0239
 5099TIP3    H136788   5.979   5.909   5.453 -0.2155 -0.7847 -0.3336
 5099TIP3    H236789   6.124   5.936   5.422 -0.1584 -0.1871  0.4515
 5100TIP3   OH236790   2.682   3.683  12.628 -0.6630  0.5874 -0.0086
 5100TIP3    H136791   2.632   3.633  12.563  0.4140 -1.3789  0.6044
 5100TIP3    H236792   2.619   3.741  12.668 -2.5434 -1.9922  0.8959
 5101TIP3   OH236793   4.655   5.461   0.802 -0.2340  0.0202 -0.1389
 5101TIP3    H136794   4.642   5.450   0.708 -0.0715  0.7235 -0.2494
 5101TIP3    H236795   4.714   5.391   0.827 -0.1074 -0.0401 -0.6002
 5102TIP3   OH236796   5.884   1.916   2.559 -0.8161 -0.2649 -0.6219
 5102TIP3    H136797   5.874   1.884   2.648  1.2077  1.1315  0.1508
 5102TIP3    H236798   5.891   2.011   2.568 -2.5940  0.0969 -2.4711
 5103TIP3   OH236799   1.697   3.129  11.066  0.3909 -0.0277  0.1563
 5103TIP3    H136800   1.768   3.113  11.004  1.1927 -2.5365  1.6471
 5103TIP3    H236801   1.636   3.185  11.019  1.8346 -0.4220 -2.2575
 5104TIP3   OH236802   3.584   0.380  11.458  0.1516 -0.0106 -0.1445
 5104TIP3    H136803   3.612   0.324  11.530  1.2492  1.9042  0.9472
 5104TIP3    H236804   3.490   0.392  11.471  0.1899 -0.3771  0.4675
 5105TIP3   OH236805   2.731   2.499  15.157 -0.1158 -0.1779  0.6094
 5105TIP3    H136806   2.652   2.444  15.149 -0.2096 -0.2885  2.2072
 5105TIP3    H236807   2.801   2.445  15.120 -0.7056 -0.2486 -0.4289
 5106TIP3   OH236808   4.305   3.690  15.109  0.5033  0.6384  0.2579
 5106TIP3    H136809   4.389   3.645  15.105  0.2701  0.2410 -0.2687
 5106TIP3    H236810   4.288   3.701  15.202  0.7672  0.0194  0.3793
 5107TIP3   OH236811   3.227   6.120  16.577  0.0373  0.1780  0.3242
 5107TIP3    H136812   3.310   6.074  16.586 -1.0269 -2.2627 -1.6443
 5107TIP3    H236813   3.219   6.137  16.483 -2.2179 -0.7159  0.3222
 5108TIP3   OH236814   5.954   1.340  12.716 -0.2605  0.0763  0.5747
 5108TIP3    H136815   6.049   1.351  12.718 -0.0962 -1.1662 -0.5631
 5108TIP3    H236816   5.921   1.416  12.765  1.3198  0.3113  1.3135
 5109TIP3   OH236817   0.655   1.184  12.852  0.2250 -0.4104  0.3658
 5109TIP3    H136818   0.572   1.228  12.871 -1.1080 -3.1634  1.1290
 5109TIP3    H236819   0.648   1.159  12.760  0.0265 -1.0373  0.5523
 5110TIP3   OH236820   3.936   0.827  17.288 -0.5985  0.3192  0.0921
 5110TIP3    H136821   3.998   0.832  17.361 -0.5468  1.0348  0.0042
 5110TIP3    H236822   3.981   0.871  17.216 -1.6909  1.9585  0.3745
 5111TIP3   OH236823   0.991   6.773   5.650 -0.1559 -0.1177 -0.5275
 5111TIP3    H136824   1.011   6.823   5.571 -2.3339 -1.7412 -2.1792
 5111TIP3    H236825   0.900   6.797   5.670 -0.1169 -0.8896  0.5825
 5112TIP3   OH236826   6.740   6.427   0.754  0.2108  0.0804  0.6135
 5112TIP3    H136827   6.683   6.354   0.778  0.7668 -0.3393  0.6756
 5112TIP3    H236828   6.684   6.505   0.761 -0.3637 -0.3295  0.6233
 5113TIP3   OH236829   4.090   1.812   5.419 -0.3044  0.2487  0.2207
 5113TIP3    H136830   4.011   1.810   5.473  0.4846 -1.4905  1.3658
 5113TIP3    H236831   4.155   1.765   5.471  1.0768  0.4262 -1.3243
 5114TIP3   OH236832   2.857   5.868  16.763  0.3456  0.0668 -0.3851
 5114TIP3    H136833   2.829   5.778  16.747  0.0730  0.1144 -0.1827
 5114TIP3    H236834   2.934   5.859  16.820 -1.9192  0.0701  2.8023
 5115TIP3   OH236835   5.047   2.662  12.844 -0.5496  0.3565  0.2730
 5115TIP3    H136836   5.035   2.605  12.768  0.0061 -0.1515  0.5651
 5115TIP3    H236837   4.965   2.653  12.893 -0.3748 -0.3786  0.4387
 5116TIP3   OH236838   4.128   3.079  17.109  0.3746 -0.0623  0.3669
 5116TIP3    H136839   4.111   3.103  17.018  3.3947  1.2830  0.0861
 5116TIP3    H236840   4.044   3.045  17.141 -0.7499 -0.5371 -2.8806
 5117TIP3   OH236841   1.506   1.874   0.874 -0.4240 -0.7612  0.3710
 5117TIP3    H136842   1.476   1.791   0.836  2.9456 -2.1894  0.5811
 5117TIP3    H236843   1.575   1.904   0.815 -1.7431  2.0840  0.1835
 5118TIP3   OH236844   3.878   0.621   0.737  0.5787  0.0555  0.1711
 5118TIP3    H136845   3.804   0.585   0.688  0.1753 -0.5951  1.2324
 5118TIP3    H236846   3.895   0.556   0.805  0.6234  1.3041  1.3744
 5119TIP3   OH236847   4.193   6.718   1.273  0.0863 -0.2102 -0.2394
 5119TIP3    H136848   4.146   6.753   1.197  0.1759  2.0092  0.6755
 5119TIP3    H236849   4.134   6.733   1.347 -0.2983 -3.0008  0.0693
 5120TIP3   OH236850   0.688   0.650  14.230 -0.5635  0.2264 -0.1708
 5120TIP3    H136851   0.648   0.563  14.233 -0.1358  0.0728  1.4219
 5120TIP3    H236852   0.650   0.696  14.306  1.1241  0.5721  0.4807
 5121TIP3   OH236853   1.915   2.816  11.506 -0.4791  0.6741  0.1620
 5121TIP3    H136854   1.823   2.805  11.532 -0.8329  1.3459 -0.7852
 5121TIP3    H236855   1.961   2.837  11.588 -1.2003  0.5435  0.6052
 5122TIP3   OH236856   0.169   3.476  16.157 -0.0932  0.2882 -0.5240
 5122TIP3    H136857   0.195   3.567  16.143 -0.3155  0.4434  0.0569
 5122TIP3    H236858   0.130   3.449  16.074  1.5535  0.1824 -1.2693
 5123TIP3   OH236859   6.227   1.347  12.740 -0.2473 -0.3637  0.2246
 5123TIP3    H136860   6.312   1.373  12.704  0.6307 -0.5031  2.1097
 5123TIP3    H236861   6.204   1.417  12.801 -1.3185 -0.4971 -0.0268
 5124TIP3   OH236862   5.115   5.763  12.244  0.2655 -0.5575  0.3922
 5124TIP3    H136863   5.185   5.828  12.233 -0.0663 -0.4926 -1.6737
 5124TIP3    H236864   5.034   5.813  12.237  0.0047 -1.1788 -1.3491
 5125TIP3   OH236865   4.273   5.432  11.830  0.1902 -0.1154 -0.0555
 5125TIP3    H136866   4.248   5.413  11.920 -2.1065 -1.4213 -0.9049
 5125TIP3    H236867   4.202   5.488  11.796 -0.1576 -1.4763 -1.6725
 5126TIP3   OH236868   4.118   0.295   3.991 -0.4609 -0.0611  0.0183
 5126TIP3    H136869   4.158   0.231   3.932  0.9820  1.5139 -0.7532
 5126TIP3    H236870   4.156   0.276   4.077  1.8128  1.2459 -0.6537
 5127TIP3   OH236871   3.013   0.425  16.493  0.5361  0.4895 -0.3151
 5127TIP3    H136872   2.941   0.468  16.539  0.0163 -1.0870  0.3892
 5127TIP3    H236873   3.033   0.484  16.420  0.1258  2.1088  0.8459
 5128TIP3   OH236874   6.484   2.266  11.062 -0.4614 -0.3992  0.2616
 5128TIP3    H136875   6.507   2.249  10.970 -1.0973  0.7643 -0.1261
 5128TIP3    H236876   6.546   2.214  11.112 -0.6615 -1.7478 -0.8416
 5129TIP3   OH236877   5.851   4.236  16.821  0.1758  0.1512 -0.4378
 5129TIP3    H136878   5.831   4.305  16.884 -0.1922  0.8235 -1.2729
 5129TIP3    H236879   5.848   4.280  16.736 -0.8051 -1.0518 -1.0394
 5130TIP3   OH236880   0.258   3.221   4.281  0.3122  0.3014  0.4419
 5130TIP3    H136881   0.208   3.299   4.261  0.2628  0.7037  2.0833
 5130TIP3    H236882   0.209   3.178   4.351  0.3629 -1.1850 -0.4092
 5131TIP3   OH236883   2.940   2.835   4.937  0.2045  0.0251  0.1188
 5131TIP3    H136884   2.902   2.903   4.992 -1.1912 -1.7689  1.4304
 5131TIP3    H236885   3.023   2.813   4.979 -0.5605 -0.8920  1.1777
 5132TIP3   OH236886   2.144   3.849   1.878 -0.4310 -0.1370  0.2503
 5132TIP3    H136887   2.171   3.869   1.967 -1.4345 -1.8634  0.9612
 5132TIP3    H236888   2.215   3.797   1.841 -0.4339 -0.2119  0.3514
 5133TIP3   OH236889   0.288   6.707   1.582  0.0303 -0.2115 -0.4290
 5133TIP3    H136890   0.333   6.691   1.665 -1.2666  0.1503  0.3644
 5133TIP3    H236891   0.283   6.621   1.540 -0.2767 -0.5986  0.3803
 5134TIP3   OH236892   4.146   1.673   0.513  0.5585 -0.5272 -0.0996
 5134TIP3    H136893   4.072   1.639   0.564  0.4088  2.3758  1.6899
 5134TIP3    H236894   4.216   1.686   0.577  1.0190  1.2981 -0.9556
 5135TIP3   OH236895   2.306   6.576   0.069 -0.4591 -0.1995 -0.5570
 5135TIP3    H136896   2.350   6.536  -0.006 -0.0008  0.0923 -0.4457
 5135TIP3    H236897   2.375   6.625   0.114 -0.7368 -0.3475  0.0359
 5136TIP3   OH236898   4.585   3.364  14.741 -0.0943  0.3169 -0.1848
 5136TIP3    H136899   4.497   3.359  14.703 -1.0323 -0.9763  2.0163
 5136TIP3    H236900   4.635   3.297  14.695 -0.9101 -0.4887  0.0819
 5137TIP3   OH236901   1.620   6.084   4.914 -0.4129 -0.4852  0.5002
 5137TIP3    H136902   1.582   6.161   4.956 -0.2607 -1.2578  2.0777
 5137TIP3    H236903   1.676   6.119   4.845 -1.2732  0.7720  0.4243
 5138TIP3   OH236904   1.754   6.709  14.763 -0.5325 -0.3422 -0.5684
 5138TIP3    H136905   1.784   6.710  14.671 -0.4335 -1.2992 -0.5523
 5138TIP3    H236906   1.783   6.793  14.798 -0.0941 -0.1933 -1.2691
 5139TIP3   OH236907   4.512   4.318   1.733  0.6190 -0.1754 -0.0518
 5139TIP3    H136908   4.539   4.320   1.825  0.2733  0.4640  0.0368
 5139TIP3    H236909   4.553   4.239   1.698 -0.3167 -1.1182  0.9755
 5140TIP3   OH236910   0.275   2.339  16.819 -0.1094  0.5484  0.0026
 5140TIP3    H136911   0.270   2.256  16.867 -0.1712  1.7148  2.0590
 5140TIP3    H236912   0.368   2.358  16.814 -0.0723  0.1824 -0.8040
 5141TIP3   OH236913   2.205   4.016   1.030  0.3339 -0.1587 -0.3285
 5141TIP3    H136914   2.165   3.935   0.999 -1.8036  1.1627 -1.0884
 5141TIP3    H236915   2.281   3.987   1.081 -2.2206 -2.7882  2.1838
 5142TIP3   OH236916   3.995   5.650  12.548 -0.6494  0.0237  0.2635
 5142TIP3    H136917   3.957   5.606  12.472 -0.3594  0.2814 -0.0348
 5142TIP3    H236918   4.073   5.599  12.568  0.1489  0.8622 -0.5975
 5143TIP3   OH236919   4.207   5.510  12.631 -0.2117 -0.2813 -0.4053
 5143TIP3    H136920   4.211   5.417  12.609  1.6022 -0.0180 -1.2484
 5143TIP3    H236921   4.222   5.513  12.725  0.4259 -0.8052 -0.4839
 5144TIP3   OH236922   4.863   3.168   0.243 -0.2602 -0.2509  0.4761
 5144TIP3    H136923   4.899   3.243   0.195  1.3078 -1.6711 -0.6189
 5144TIP3    H236924   4.915   3.163   0.323 -0.4688 -0.0717  0.6226
 5145TIP3   OH236925   0.018   3.707   0.349 -0.0377 -0.4279  0.1500
 5145TIP3    H136926   0.085   3.726   0.413  0.0234 -0.5826  0.1329
 5145TIP3    H236927  -0.059   3.683   0.401 -1.0909  2.9913  0.2459
 5146TIP3   OH236928   6.099   1.882   5.205 -0.0377  0.2466 -0.1107
 5146TIP3    H136929   6.042   1.938   5.257 -0.5412  0.0370 -0.4230
 5146TIP3    H236930   6.052   1.872   5.122 -0.4836 -1.4924  0.3163
 5147TIP3   OH236931   4.591   1.384   1.251  0.2593  1.2199 -0.5149
 5147TIP3    H136932   4.545   1.468   1.247 -1.0492  0.5840  0.6916
 5147TIP3    H236933   4.620   1.376   1.341  1.8258  1.1121 -1.0177
 5148TIP3   OH236934   4.077   1.030  16.830  0.3763 -0.1484  0.4432
 5148TIP3    H136935   4.032   0.950  16.803 -1.0313 -0.3142  3.1160
 5148TIP3    H236936   4.030   1.101  16.785 -1.1889 -0.5106  1.4454
 5149TIP3   OH236937   1.779   6.254   2.561 -0.4969 -0.1747  0.2400
 5149TIP3    H136938   1.737   6.265   2.646 -0.9925 -1.4019  0.1715
 5149TIP3    H236939   1.808   6.162   2.561  0.4626  0.1239 -0.4816
 5150TIP3   OH236940   1.123   3.144  11.798  0.3130 -0.6096  0.6258
 5150TIP3    H136941   1.216   3.133  11.775  0.2765 -2.0446  1.1040
 5150TIP3    H236942   1.104   3.235  11.775  0.9865 -1.1953 -2.5050
 5151TIP3   OH236943   5.116   0.593  12.153 -0.3461 -0.2252  0.1668
 5151TIP3    H136944   5.081   0.674  12.191 -1.3426 -0.9518  0.8428
 5151TIP3    H236945   5.039   0.537  12.142  0.1255 -0.5100 -1.7401
 5152TIP3   OH236946   1.212   4.764   4.717 -0.0079  0.2509 -0.2485
 5152TIP3    H136947   1.249   4.853   4.715  1.0138 -0.0835  2.3429
 5152TIP3    H236948   1.254   4.722   4.791 -1.4611 -2.0132 -0.6579
 5153TIP3   OH236949   5.584   3.304  12.727 -0.1376 -0.3581 -0.1273
 5153TIP3    H136950   5.491   3.320  12.710 -0.3766  0.3969  1.7414
 5153TIP3    H236951   5.622   3.391  12.735  0.6881 -0.6695 -0.6102
 5154TIP3   OH236952   6.630   2.858   0.481 -0.0860 -0.0009  0.4673
 5154TIP3    H136953   6.691   2.785   0.493  1.1453  0.9387 -0.0589
 5154TIP3    H236954   6.611   2.859   0.388 -0.7230 -0.1357  0.5931
 5155TIP3   OH236955   1.880   2.927   5.465  0.7373  0.0635  0.3741
 5155TIP3    H136956   1.900   2.910   5.373 -0.6122  1.2681 -0.1582
 5155TIP3    H236957   1.796   2.972   5.463  0.1926 -0.8176  2.2657
 5156TIP3   OH236958   4.542   0.362  17.238 -0.9058  0.1172  0.1000
 5156TIP3    H136959   4.481   0.364  17.164 -0.1532 -1.7963 -0.6131
 5156TIP3    H236960   4.624   0.332  17.200  0.2427  1.7506  1.2305
 5157TIP3   OH236961   4.691   5.235  11.951  0.4952 -1.3047  0.3939
 5157TIP3    H136962   4.671   5.211  11.861  2.3294  1.0730 -0.7137
 5157TIP3    H236963   4.611   5.275  11.984  0.5362 -0.0580 -0.9826
 5158TIP3   OH236964   1.682   2.701  11.580  0.3528  0.4555 -0.8400
 5158TIP3    H136965   1.700   2.613  11.614  1.3570  0.8824 -0.2534
 5158TIP3    H236966   1.586   2.705  11.574  0.0663  0.5855  2.6241
 5159TIP3   OH236967   5.433   0.041   1.664 -0.3045  0.1111  0.0828
 5159TIP3    H136968   5.418  -0.037   1.610  0.7153 -0.6602  0.8948
 5159TIP3    H236969   5.351   0.091   1.656 -0.9832 -1.0511 -0.4290
 5160TIP3   OH236970   1.005   2.437   1.916 -0.4025 -0.8024 -0.6505
 5160TIP3    H136971   1.003   2.483   1.832 -0.3066  0.1618 -0.1370
 5160TIP3    H236972   0.990   2.345   1.894  0.6576 -0.7007 -1.8193
 5161TIP3   OH236973   1.444   1.831  11.526 -0.5355  0.1195  0.4642
 5161TIP3    H136974   1.350   1.838  11.543 -0.6148  1.1468 -0.3467
 5161TIP3    H236975   1.465   1.908  11.473 -0.0194 -2.2106 -2.8904
 5162TIP3   OH236976   2.006   2.550  12.932 -0.4715 -0.0874 -0.1540
 5162TIP3    H136977   2.001   2.574  12.840  0.3800  0.0409 -0.1648
 5162TIP3    H236978   2.038   2.460  12.932 -0.6957 -0.1669  0.0065
 5163TIP3   OH236979   4.355   0.018  16.329 -0.2574  0.3885 -0.3133
 5163TIP3    H136980   4.447   0.018  16.357 -0.7660 -2.2674  1.5624
 5163TIP3    H236981   4.326   0.108  16.342  1.8405  1.0903 -0.1832
 5164TIP3   OH236982   0.553   2.716  12.566  0.1356  0.2934 -0.2706
 5164TIP3    H136983   0.566   2.648  12.501 -0.6609 -0.7087  0.5931
 5164TIP3    H236984   0.462   2.743  12.554  0.2831  0.8163 -0.2378
 5165TIP3   OH236985   5.519   1.044   0.791 -0.0233  0.1569 -0.5934
 5165TIP3    H136986   5.534   1.047   0.885  1.0100  1.0998 -0.7701
 5165TIP3    H236987   5.424   1.050   0.781 -0.1617 -0.4150  0.4019
 5166TIP3   OH236988   5.182   0.968  15.839 -0.2264  0.1974  0.3016
 5166TIP3    H136989   5.269   1.004  15.818  0.5173 -1.1215  1.0806
 5166TIP3    H236990   5.200   0.880  15.873 -1.8423  0.0608  0.8248
 5167TIP3   OH236991   4.208   1.173  11.298  0.1009  0.4866 -0.1157
 5167TIP3    H136992   4.241   1.086  11.322 -1.9611 -0.3316 -0.1450
 5167TIP3    H236993   4.184   1.213  11.381  0.0229  0.6069 -0.1970
 5168TIP3   OH236994   3.636   3.732  12.104 -0.3516  0.1029  0.3292
 5168TIP3    H136995   3.682   3.785  12.040 -1.5947  0.4057 -0.3221
 5168TIP3    H236996   3.575   3.680  12.053 -0.3878 -0.6631  1.1367
 5169TIP3   OH236997   6.546   3.508  14.074  0.4738 -0.3885  0.4193
 5169TIP3    H136998   6.564   3.533  13.983 -1.4959 -0.5573 -0.0470
 5169TIP3    H236999   6.497   3.583  14.109  1.3186 -0.2811  1.3731
 5170TIP3   OH237000   1.385   5.789   6.179  0.1652 -0.0975 -0.1000
 5170TIP3    H137001   1.291   5.772   6.181 -0.0382  1.0735  1.2944
 5170TIP3    H237002   1.399   5.832   6.095 -1.3384  3.7890  1.5264
 5171TIP3   OH237003   3.923   5.379  15.854  0.3144 -0.0677 -0.2049
 5171TIP3    H137004   3.837   5.411  15.880  1.3027  2.4380  0.1423
 5171TIP3    H237005   3.966   5.356  15.936 -0.0832 -1.5263 -0.3932
 5172TIP3   OH237006   3.430   3.975  13.534 -0.3758 -0.3526 -0.3782
 5172TIP3    H137007   3.424   3.893  13.584  1.7181 -2.2320 -3.0136
 5172TIP3    H237008   3.482   3.951  13.457 -0.0107  3.4148 -1.3768
 5173TIP3   OH237009   6.494   2.105  12.451  0.0830 -0.0207 -0.5801
 5173TIP3    H137010   6.567   2.132  12.507  0.7315 -0.8025 -1.0440
 5173TIP3    H237011   6.422   2.087  12.512  0.0285  1.4881 -0.1684
 5174TIP3   OH237012   5.892   0.796  14.483 -0.2014  0.7351  0.0021
 5174TIP3    H137013   5.856   0.765  14.400  1.1053  1.4155 -0.8424
 5174TIP3    H237014   5.968   0.741  14.499  1.2507  2.4578 -0.7455
 5175TIP3   OH237015   2.998   2.800  13.085  0.2324  0.9789  0.8605
 5175TIP3    H137016   2.943   2.782  13.161 -0.7873 -0.6469 -0.2375
 5175TIP3    H237017   3.054   2.723  13.077 -1.8705 -0.3255 -1.9115
 5176TIP3   OH237018   3.027   4.385  12.565  0.3013  0.0975 -0.1845
 5176TIP3    H137019   3.078   4.376  12.484 -1.4104 -1.4050 -1.1312
 5176TIP3    H237020   3.034   4.299  12.607  0.1769  0.4963  0.6489
 5177TIP3   OH237021   3.668   5.805   4.299  0.1587  0.2457  0.8636
 5177TIP3    H137022   3.683   5.864   4.374  1.5948 -0.2429  0.9761
 5177TIP3    H237023   3.588   5.838   4.258  0.0823  1.3183  1.8531
 5178TIP3   OH237024   5.939   1.348   0.207 -0.1330 -0.0239 -0.2346
 5178TIP3    H137025   5.974   1.436   0.194 -1.7560  0.5621 -0.8023
 5178TIP3    H237026   6.014   1.290   0.193  0.7410  1.2140 -0.8282
 5179TIP3   OH237027   2.217   5.636  10.638  0.1046  0.0886  0.2463
 5179TIP3    H137028   2.159   5.592  10.699  0.8309 -0.6393  0.4129
 5179TIP3    H237029   2.167   5.713  10.609 -0.4668  0.1236  1.2975
 5180TIP3   OH237030   3.942   4.514  14.509 -0.0585 -0.5338 -0.0861
 5180TIP3    H137031   3.965   4.558  14.428 -1.7077  0.1613 -0.1931
 5180TIP3    H237032   3.991   4.432  14.507  0.5583 -0.1321 -1.3866
 5181TIP3   OH237033   1.828   6.461  13.761  0.2141  0.8375 -0.5598
 5181TIP3    H137034   1.839   6.367  13.775  0.2090  0.7091 -1.3764
 5181TIP3    H237035   1.745   6.482  13.803  1.2623  0.8990  1.5051
 5182TIP3   OH237036   4.884   3.455  12.044  0.2667 -0.3285 -0.4441
 5182TIP3    H137037   4.937   3.535  12.044  2.2211 -1.5768 -1.0069
 5182TIP3    H237038   4.873   3.434  11.951  1.0907 -1.5427 -0.2749
 5183TIP3   OH237039   6.745   4.819  16.970  0.4313 -0.0789 -0.1718
 5183TIP3    H137040   6.729   4.746  16.911 -0.1638 -0.3417  0.3142
 5183TIP3    H237041   6.658   4.857  16.985  0.8060  1.1027 -0.9019
 5184TIP3   OH237042   4.412   1.908   2.760  0.1358  0.4315 -0.3020
 5184TIP3    H137043   4.350   1.897   2.832  0.4964 -0.1790 -0.0771
 5184TIP3    H237044   4.403   1.829   2.707 -1.5526  1.7670 -2.0614
 5185TIP3   OH237045   4.497   6.610   0.434 -0.2125 -0.0075 -0.1497
 5185TIP3    H137046   4.505   6.675   0.504 -0.2514  2.7082 -2.5870
 5185TIP3    H237047   4.405   6.616   0.406 -0.1849 -1.0366 -0.4875
 5186TIP3   OH237048   6.351   6.286  13.581 -0.2996  0.2223  0.9352
 5186TIP3    H137049   6.378   6.347  13.649  1.3561  0.5260  0.0230
 5186TIP3    H237050   6.398   6.315  13.503 -0.1700 -1.7172  0.2837
 5187TIP3   OH237051   3.925   4.537  13.373 -0.2600 -0.1708 -0.0766
 5187TIP3    H137052   3.956   4.618  13.331 -0.2536 -0.3336 -0.3802
 5187TIP3    H237053   3.960   4.467  13.319 -2.4650 -0.3440 -1.3218
 5188TIP3   OH237054   2.560   4.643   4.510 -0.0861 -0.1827  0.3765
 5188TIP3    H137055   2.466   4.657   4.495  0.0025  0.8356  0.7037
 5188TIP3    H237056   2.569   4.549   4.524 -1.1573 -0.1935  1.0221
 5189TIP3   OH237057   3.031   3.821   5.197  0.2340  0.3048 -0.5692
 5189TIP3    H137058   3.010   3.911   5.172  0.5513  0.4535 -0.3117
 5189TIP3    H237059   2.947   3.777   5.203  0.0028  0.8653  0.3487
 5190TIP3   OH237060   4.305   4.273   2.029  0.2494 -0.2771  0.9630
 5190TIP3    H137061   4.283   4.359   2.066  0.4247 -0.2174  0.9261
 5190TIP3    H237062   4.398   4.279   2.007  0.2384 -0.4449  0.8723
 5191TIP3   OH237063   1.081   1.228   2.344 -0.2799 -0.4406 -0.1125
 5191TIP3    H137064   1.041   1.160   2.398 -0.8069 -0.9160 -1.0927
 5191TIP3    H237065   1.008   1.285   2.320 -0.4850 -1.6198 -2.3686
 5192TIP3   OH237066   1.380   5.865   2.405  0.0304 -0.2187  0.7068
 5192TIP3    H137067   1.431   5.840   2.482  0.1449 -1.6845  0.1801
 5192TIP3    H237068   1.363   5.782   2.360 -1.1471  0.4763 -0.1557
 5193TIP3   OH237069   3.304   1.389  16.414 -0.0883  0.1254  0.4016
 5193TIP3    H137070   3.227   1.418  16.463 -0.4386  3.2988 -1.8727
 5193TIP3    H237071   3.378   1.404  16.472 -0.8321  0.4675  1.2626
 5194TIP3   OH237072   2.778   0.390   5.109 -0.0665  0.0952 -0.1868
 5194TIP3    H137073   2.847   0.425   5.052 -0.4290 -1.6922 -1.7493
 5194TIP3    H237074   2.826   0.342   5.176  0.2451 -0.2346 -0.6456
 5195TIP3   OH237075   5.836   2.683   4.587 -0.2469  0.1026  0.3553
 5195TIP3    H137076   5.900   2.631   4.635 -1.0928 -1.2943  0.0253
 5195TIP3    H237077   5.756   2.677   4.639 -0.7771 -0.2421 -0.4779
 5196TIP3   OH237078   5.268   0.939   4.989  0.2266 -0.0245  0.5704
 5196TIP3    H137079   5.229   0.867   5.038 -0.6259 -1.5101 -2.1877
 5196TIP3    H237080   5.362   0.920   4.992  0.1777 -0.1807  1.4552
 5197TIP3   OH237081   4.246   4.004   5.033  0.2683  0.3926  0.2804
 5197TIP3    H137082   4.241   4.014   5.128 -1.3515 -1.6390  0.4363
 5197TIP3    H237083   4.186   4.070   4.998  0.4886  0.8062  0.6828
 5198TIP3   OH237084   0.475   6.764   6.209  0.7770 -0.0733  0.0732
 5198TIP3    H137085   0.404   6.700   6.204  0.8228 -0.0167 -2.0412
 5198TIP3    H237086   0.542   6.723   6.263 -0.6034 -0.3704  1.5964
 5199TIP3   OH237087   1.182   6.458   0.856 -0.8326  0.7402 -0.2668
 5199TIP3    H137088   1.261   6.461   0.801 -1.0265  0.4216 -0.5603
 5199TIP3    H237089   1.181   6.543   0.900 -1.9342  1.9303 -2.5054
 5200TIP3   OH237090   1.933   4.796   1.411 -0.1195  0.9815 -0.3439
 5200TIP3    H137091   1.903   4.732   1.476  1.1466 -0.2008 -0.8977
 5200TIP3    H237092   1.962   4.743   1.337  1.5916  2.1577 -0.5389
 5201TIP3   OH237093   1.473   2.272  15.443 -0.1361  0.3025 -0.5855
 5201TIP3    H137094   1.530   2.302  15.513 -0.5448 -1.3305  0.4731
 5201TIP3    H237095   1.467   2.347  15.383 -0.3629  1.9751  1.4687
 5202TIP3   OH237096   6.524   0.526  16.282  0.1243 -0.3777 -0.4690
 5202TIP3    H137097   6.433   0.518  16.309  0.5095 -2.1463  0.3832
 5202TIP3    H237098   6.561   0.440  16.297  2.2900  0.6786  0.4969
 5203TIP3   OH237099   4.800   4.680  15.904  0.5987 -0.0766 -0.3033
 5203TIP3    H137100   4.720   4.628  15.909  0.4713  0.1059 -0.4750
 5203TIP3    H237101   4.770   4.770  15.894  0.7735  0.2597  1.8247
 5204TIP3   OH237102   2.525   3.468  15.014 -0.3937  0.0982  0.2345
 5204TIP3    H137103   2.547   3.378  14.992  0.6723  0.7979 -1.6907
 5204TIP3    H237104   2.431   3.466  15.035 -0.4944 -1.3539 -0.3243
 5205TIP3   OH237105   5.752   0.729  13.780 -0.2038  0.1728  0.2709
 5205TIP3    H137106   5.686   0.664  13.755  1.1438 -1.4305  0.8391
 5205TIP3    H237107   5.753   0.726  13.876  2.6688 -1.8549  0.2248
 5206TIP3   OH237108   0.849   1.457  14.613 -0.0429  0.0317  0.2452
 5206TIP3    H137109   0.761   1.431  14.586 -1.2623  1.6601  2.4551
 5206TIP3    H237110   0.886   1.502  14.537 -3.1685  4.0320  0.9601
 5207TIP3   OH237111   1.661   6.362  13.171 -0.6846 -0.1486  0.1737
 5207TIP3    H137112   1.629   6.411  13.095 -0.7250 -1.4773 -0.6700
 5207TIP3    H237113   1.756   6.376  13.170 -0.8858  1.3787  0.9813
 5208TIP3   OH237114   1.687   0.887  14.562 -0.0080  0.1782  0.4725
 5208TIP3    H137115   1.636   0.816  14.602 -2.1727  1.6147  0.3706
 5208TIP3    H237116   1.704   0.947  14.634  1.4471 -0.2233  0.4683
 5209TIP3   OH237117   6.330   1.998   3.548  0.7525  0.3112 -0.1750
 5209TIP3    H137118   6.350   1.995   3.454 -1.7679 -0.2407 -0.7340
 5209TIP3    H237119   6.351   2.088   3.573  1.7042  0.3972 -1.1846
 5210TIP3   OH237120   4.111   4.132   0.845  0.4488 -0.3822  0.1506
 5210TIP3    H137121   4.137   4.044   0.819  0.4082  0.3148 -2.3262
 5210TIP3    H237122   4.019   4.139   0.820  1.0187  1.0774 -1.6016
 5211TIP3   OH237123   1.622   3.859  11.271  0.3744 -0.6870 -0.7105
 5211TIP3    H137124   1.565   3.823  11.203 -0.4494 -0.5293 -0.1053
 5211TIP3    H237125   1.661   3.937  11.231  0.3953 -0.9578 -1.2237
 5212TIP3   OH237126   2.973   4.654  16.499  0.1453  0.2702 -0.0705
 5212TIP3    H137127   2.904   4.713  16.531  0.0112 -0.3625  0.8502
 5212TIP3    H237128   2.966   4.658  16.404  1.0518  2.8097 -0.0672
 5213TIP3   OH237129   0.945   3.674  13.156  0.1877  0.1442  0.0930
 5213TIP3    H137130   0.949   3.593  13.104  1.0075 -0.7301  1.4969
 5213TIP3    H237131   0.869   3.662  13.213  1.5165 -0.5564  1.7632
 5214TIP3   OH237132   5.157   2.963   5.511  0.0900  0.2429  0.0665
 5214TIP3    H137133   5.186   2.970   5.602  0.6503 -1.2098  0.0177
 5214TIP3    H237134   5.082   3.022   5.505  0.4071  0.7961  1.3181
 5215TIP3   OH237135   5.457   1.657  12.469 -0.1336  0.1066  0.3071
 5215TIP3    H137136   5.381   1.686  12.519  1.5431  0.3553  2.7663
 5215TIP3    H237137   5.431   1.668  12.377 -3.4682 -0.8989  1.0885
 5216TIP3   OH237138   0.605   3.312  13.660  0.2580 -0.1207  0.5484
 5216TIP3    H137139   0.661   3.247  13.618  2.2150  0.7819  1.6849
 5216TIP3    H237140   0.543   3.339  13.591  1.9324 -0.3326 -1.0697
 5217TIP3   OH237141   4.379   0.733   5.510 -0.0175  0.1100  0.2230
 5217TIP3    H137142   4.314   0.798   5.539  1.2027  0.6034  1.9525
 5217TIP3    H237143   4.383   0.670   5.582 -0.5318 -1.4147 -1.0538
 5218TIP3   OH237144   5.951   2.385   0.951  0.5655 -0.7636  0.0231
 5218TIP3    H137145   5.864   2.417   0.974  0.6928  0.1315 -0.7185
 5218TIP3    H237146   5.939   2.338   0.869  0.8902 -0.0645 -0.4302
 5219TIP3   OH237147   3.861   4.558   0.059 -0.4231 -0.3482 -0.1307
 5219TIP3    H137148   3.868   4.462   0.058 -0.2622 -0.3363 -0.7250
 5219TIP3    H237149   3.845   4.581  -0.033  0.5841  0.2633 -0.1649
 5220TIP3   OH237150   6.172   1.239   2.682 -0.2790 -0.2067 -0.1918
 5220TIP3    H137151   6.182   1.288   2.763  0.2102 -2.1907  0.9727
 5220TIP3    H237152   6.134   1.155   2.709  2.0139 -1.7808 -1.7098
 5221TIP3   OH237153   0.793   3.653  12.899  0.6712 -0.0066  0.3664
 5221TIP3    H137154   0.799   3.558  12.913 -0.4601 -0.1439 -0.0408
 5221TIP3    H237155   0.843   3.669  12.819  0.5647 -0.3051  0.2411
 5222TIP3   OH237156   6.033   2.273   6.537  0.6182  0.5165 -0.3870
 5222TIP3    H137157   6.010   2.249   6.626  0.6261  1.3339 -0.1631
 5222TIP3    H237158   6.098   2.207   6.511  1.7012  1.1234  0.7258
 5223TIP3   OH237159   5.114   0.875  15.398  0.1500  0.3879  0.2273
 5223TIP3    H137160   5.060   0.871  15.318 -0.1345  2.0369  0.3203
 5223TIP3    H237161   5.054   0.908  15.465  0.3357 -1.1825  1.1970
 5224TIP3   OH237162   5.097   4.613   3.816 -0.0568  0.0088 -0.1696
 5224TIP3    H137163   5.189   4.618   3.791  0.2671 -1.6784  0.6300
 5224TIP3    H237164   5.088   4.528   3.858 -1.7553  0.5891  0.6897
 5225TIP3   OH237165   5.749   2.348  14.686  0.1766  0.2036  0.3486
 5225TIP3    H137166   5.738   2.267  14.736  2.3465  0.6807  1.6626
 5225TIP3    H237167   5.844   2.360  14.679 -0.1079  2.1226 -0.6674
 5226TIP3   OH237168   0.413   1.356   3.372  0.4491  0.1346  0.2163
 5226TIP3    H137169   0.398   1.444   3.406  2.7988  1.1093 -1.1680
 5226TIP3    H237170   0.421   1.368   3.277  0.2043 -1.6784 -0.0663
 5227TIP3   OH237171   5.768   2.874  16.786 -0.1307 -0.0313  0.3143
 5227TIP3    H137172   5.761   2.800  16.725 -0.6741  0.0251  0.3081
 5227TIP3    H237173   5.829   2.843  16.853 -1.1481 -0.8715  0.8634
 5228TIP3   OH237174   2.048   5.207  17.125  0.0675  0.0989  0.0994
 5228TIP3    H137175   2.002   5.125  17.109  0.3881 -0.1452  0.4352
 5228TIP3    H237176   2.004   5.246  17.200 -0.2277  0.3410 -0.1993
 5229TIP3   OH237177   4.527   4.356   3.953  0.0609 -0.1996  0.3625
 5229TIP3    H137178   4.435   4.338   3.935 -0.0068 -0.4143  0.9174
 5229TIP3    H237179   4.526   4.413   4.029  0.3937 -0.3904  0.5127
 5230TIP3   OH237180   0.271   4.474   3.809 -0.0548  0.2608 -0.6226
 5230TIP3    H137181   0.334   4.481   3.737 -1.5212 -2.3508 -2.2416
 5230TIP3    H237182   0.237   4.563   3.820 -0.1720  0.6291 -3.5290
 5231TIP3   OH237183   4.476   1.967  16.475  0.2687 -0.5242  0.6302
 5231TIP3    H137184   4.387   2.003  16.470  1.4368  2.1927 -2.0506
 5231TIP3    H237185   4.482   1.906  16.402  0.9102  0.0034  0.2386
 5232TIP3   OH237186   4.390   4.865  15.095  0.3894 -0.0341  0.4132
 5232TIP3    H137187   4.343   4.908  15.167  1.6309 -1.0795  1.8941
 5232TIP3    H237188   4.333   4.792  15.070 -0.7532  1.2123 -0.7181
 5233TIP3   OH237189   1.745   1.467   4.543 -0.0222  0.0792  0.0581
 5233TIP3    H137190   1.818   1.518   4.507  1.6037 -1.8956  0.4925
 5233TIP3    H237191   1.749   1.484   4.637  0.2268 -0.4792  0.1471
 5234TIP3   OH237192   0.848   2.186   1.186 -0.7275 -0.0995  0.1758
 5234TIP3    H137193   0.802   2.105   1.163 -0.4777  0.0745 -0.9820
 5234TIP3    H237194   0.938   2.158   1.202 -0.4908  0.0442 -0.8940
 5235TIP3   OH237195   0.663   0.562  14.658 -0.6939  0.9202  0.5025
 5235TIP3    H137196   0.737   0.508  14.630  0.2332  0.9941  2.7406
 5235TIP3    H237197   0.620   0.511  14.727 -1.0175  2.1412  1.2246
 5236TIP3   OH237198   3.650   1.757   2.605  0.3946 -0.0617 -0.3368
 5236TIP3    H137199   3.740   1.727   2.597  0.3952 -0.3761  0.7525
 5236TIP3    H237200   3.657   1.849   2.632  0.4038 -0.5850  1.5059
 5237TIP3   OH237201   5.750   1.262   5.534  0.3849  0.4117 -0.1898
 5237TIP3    H137202   5.785   1.257   5.623 -0.7495 -0.1776  0.2398
 5237TIP3    H237203   5.675   1.203   5.535  1.3328 -0.9083 -1.9980
 5238TIP3   OH237204   6.791   3.805   1.597  0.4238 -0.1816  0.1887
 5238TIP3    H137205   6.873   3.833   1.557 -0.3979 -1.4369 -2.4789
 5238TIP3    H237206   6.795   3.709   1.596 -0.6592 -0.2501  0.9232
 5239TIP3   OH237207   6.055   2.898  13.740  0.0321  0.3198  0.1421
 5239TIP3    H137208   6.076   2.952  13.816 -0.6301  1.2865 -0.3525
 5239TIP3    H237209   5.960   2.904  13.732 -0.0597 -0.9541  0.0922
 5240TIP3   OH237210   3.420   4.146  13.784 -0.1055 -0.2575 -0.5270
 5240TIP3    H137211   3.415   4.076  13.719 -0.6051 -0.0248 -0.7445
 5240TIP3    H237212   3.414   4.101  13.868 -1.1628 -0.4138 -0.6830
 5241TIP3   OH237213   0.126   2.475  11.832  0.0614  0.1629  0.5908
 5241TIP3    H137214   0.135   2.417  11.756 -0.5369  0.2574  0.4424
 5241TIP3    H237215   0.213   2.478  11.871  0.7056  1.1958 -0.8908
 5242TIP3   OH237216   5.794   6.118   3.652  0.5906 -0.5092 -0.0102
 5242TIP3    H137217   5.790   6.111   3.748 -0.4501 -1.8701 -0.1341
 5242TIP3    H237218   5.858   6.052   3.626  1.2239  0.1866 -0.2298
 5243TIP3   OH237219   1.216   1.560  15.779 -0.0336  0.2186 -0.0074
 5243TIP3    H137220   1.240   1.496  15.711  1.9877  2.2620 -1.2558
 5243TIP3    H237221   1.120   1.559  15.778 -0.0450 -1.3320 -1.3968
 5244TIP3   OH237222   1.025   1.505  12.496 -0.4545 -0.0597 -0.4813
 5244TIP3    H137223   1.105   1.466  12.531  0.1775  0.7929 -0.9790
 5244TIP3    H237224   1.016   1.588  12.544 -1.0200 -0.1414 -0.4471
 5245TIP3   OH237225   2.967   4.809   6.147 -0.0827  0.3971  0.7007
 5245TIP3    H137226   3.047   4.797   6.198  0.8923  0.6943 -0.7509
 5245TIP3    H237227   2.911   4.736   6.174  0.6381  0.2158  1.7618
 5246TIP3   OH237228   4.261   1.110  14.054 -0.1734  0.6621 -0.0078
 5246TIP3    H137229   4.311   1.107  13.973 -0.7883  0.9424 -0.3933
 5246TIP3    H237230   4.178   1.152  14.031 -0.5991  0.1857  0.6265
 5247TIP3   OH237231   3.916   1.389   5.615 -0.7153 -0.1624 -0.4748
 5247TIP3    H137232   3.852   1.442   5.567 -0.1268  1.2713  0.2750
 5247TIP3    H237233   3.994   1.444   5.620  0.2154 -1.4620 -0.4294
 5248TIP3   OH237234   0.139   2.700   5.480  0.6606 -0.5147 -0.0204
 5248TIP3    H137235   0.088   2.772   5.518  0.9418  0.3605 -1.2691
 5248TIP3    H237236   0.089   2.674   5.402  0.7978 -1.3657  0.1722
 5249TIP3   OH237237   6.485   6.296  12.957  0.2643  0.3469 -0.0515
 5249TIP3    H137238   6.434   6.376  12.945 -0.8719 -0.5502 -1.4004
 5249TIP3    H237239   6.462   6.266  13.045  0.0819  1.0587  0.1529
 5250TIP3   OH237240   3.623   5.381  11.235  0.0101 -0.0262 -0.3541
 5250TIP3    H137241   3.586   5.324  11.303  1.8775 -1.6732 -0.6693
 5250TIP3    H237242   3.574   5.358  11.156 -0.4417  0.0849 -0.1111
 5251TIP3   OH237243   1.357   0.398   2.736  0.2689 -0.1768  0.2462
 5251TIP3    H137244   1.403   0.339   2.676  0.1630 -1.0120  0.9820
 5251TIP3    H237245   1.397   0.484   2.721  0.5140 -0.4490 -0.7338
 5252TIP3   OH237246   2.513   3.228   6.487 -0.2499  0.1605  0.0372
 5252TIP3    H137247   2.547   3.292   6.424 -0.0086 -0.5874 -0.6075
 5252TIP3    H237248   2.574   3.232   6.561  0.3885 -0.0787 -0.4605
 5253TIP3   OH237249   2.153   3.834  13.950  0.2377 -0.4275 -0.4283
 5253TIP3    H137250   2.094   3.760  13.960  0.2194 -0.5399 -1.3393
 5253TIP3    H237251   2.231   3.810  14.001 -1.0336  0.3378  1.9543
 5254TIP3   OH237252   2.507   1.737  15.807 -0.3080  0.5930  0.3017
 5254TIP3    H137253   2.484   1.772  15.893  0.6532 -0.3242  0.9405
 5254TIP3    H237254   2.443   1.776  15.748  1.5480  4.4784  0.7347
 5255TIP3   OH237255   6.222   2.756   5.824 -0.3227  1.0083  0.1375
 5255TIP3    H137256   6.180   2.763   5.910 -1.5265 -0.6795 -0.2851
 5255TIP3    H237257   6.230   2.846   5.794 -3.7943  1.3873  0.1880
 5256TIP3   OH237258   1.879   4.642  14.283 -0.0276 -0.1862  0.1696
 5256TIP3    H137259   1.963   4.631  14.239  0.4943  1.1444  0.8166
 5256TIP3    H237260   1.851   4.552  14.303  0.1051 -0.7764 -2.1207
 5257TIP3   OH237261   6.697   6.420  10.882  0.1697 -0.0050 -0.7667
 5257TIP3    H137262   6.769   6.424  10.819  0.0620 -2.0795 -1.0744
 5257TIP3    H237263   6.622   6.458  10.836  0.8041  1.1766 -0.8308
 5258TIP3   OH237264   3.445   1.788   3.713  0.0275 -0.0343 -0.4150
 5258TIP3    H137265   3.366   1.839   3.696  0.2895  0.5061 -0.0163
 5258TIP3    H237266   3.453   1.787   3.809  0.3245 -0.3617 -0.4417
 5259TIP3   OH237267   2.228   2.747   3.596 -0.3440 -0.3088  0.4528
 5259TIP3    H137268   2.232   2.653   3.618  1.1066 -0.4535 -0.3640
 5259TIP3    H237269   2.250   2.750   3.503  1.6945  1.0332  0.9659
 5260TIP3   OH237270   1.048   6.692  17.029  0.2260 -0.0773 -0.4074
 5260TIP3    H137271   1.027   6.755  17.098 -0.3915  1.1890 -1.7012
 5260TIP3    H237272   0.964   6.651  17.008  0.5611 -1.0501  0.1663
 5261TIP3   OH237273   1.059   5.152  11.680  0.0945  0.6451  0.2354
 5261TIP3    H137274   0.998   5.225  11.685 -1.0714 -0.3491  0.8071
 5261TIP3    H237275   1.103   5.151  11.765  1.0268  1.4477 -0.2266
 5262TIP3   OH237276   1.941   1.728   4.275  0.2769 -0.3646 -0.1318
 5262TIP3    H137277   1.872   1.663   4.292  0.9226 -0.2542  3.3505
 5262TIP3    H237278   2.020   1.676   4.261  0.2281 -0.3875 -0.3279
 5263TIP3   OH237279   0.638   1.621   3.179 -0.2007  0.2112  0.8860
 5263TIP3    H137280   0.618   1.706   3.220 -0.8429 -0.3843  1.8297
 5263TIP3    H237281   0.723   1.596   3.217 -0.1601  0.2804  0.8421
 5264TIP3   OH237282   4.358   6.401   0.829 -0.4247 -0.0264  0.0639
 5264TIP3    H137283   4.376   6.355   0.747 -1.5567 -0.8841  0.2881
 5264TIP3    H237284   4.350   6.331   0.894  1.7482  0.7047  1.1788
 5265TIP3   OH237285   5.847   2.877  14.406  0.0122  0.1140  0.2552
 5265TIP3    H137286   5.797   2.796  14.409 -0.2919  0.3125  0.6023
 5265TIP3    H237287   5.870   2.888  14.314 -0.0296 -0.3106  0.1925
 5266TIP3   OH237288   5.076   5.717  15.920 -0.0384  0.0217 -0.9575
 5266TIP3    H137289   5.012   5.675  15.862 -2.1128 -0.9406  1.9564
 5266TIP3    H237290   5.143   5.650  15.933 -0.4039 -0.3434 -0.9223
 5267TIP3   OH237291   2.468   6.791   1.623  0.7651  0.2790  0.3270
 5267TIP3    H137292   2.381   6.779   1.663  0.7274  1.8673  0.7636
 5267TIP3    H237293   2.512   6.707   1.636 -0.0135  0.0783  1.8361
 5268TIP3   OH237294   3.412   5.902  14.924  0.0488  0.0638 -0.0869
 5268TIP3    H137295   3.401   5.980  14.869  0.8751  0.4235  0.2449
 5268TIP3    H237296   3.335   5.902  14.981  0.8182  1.5483  1.0063
 5269TIP3   OH237297   3.789   0.682  12.180 -0.6571 -0.1708  0.2480
 5269TIP3    H137298   3.750   0.680  12.268 -0.7850 -0.1454  0.1930
 5269TIP3    H237299   3.871   0.731  12.192 -1.9426  2.1748 -0.1479
 5270TIP3   OH237300   1.568   6.775   0.587 -0.3363  0.3014 -0.3674
 5270TIP3    H137301   1.653   6.763   0.544 -0.7822 -0.2646 -1.0920
 5270TIP3    H237302   1.516   6.826   0.524 -1.3356 -1.4058 -0.9507
 5271TIP3   OH237303   0.524   0.838  13.299 -0.0255  0.0627 -0.2050
 5271TIP3    H137304   0.495   0.865  13.212  0.5706  0.5105 -0.2676
 5271TIP3    H237305   0.446   0.846  13.353 -1.3102 -3.5533 -1.4053
 5272TIP3   OH237306   1.675   5.057  14.271  0.3439 -0.4200  0.4987
 5272TIP3    H137307   1.756   5.010  14.287  1.5996  1.3142 -0.5254
 5272TIP3    H237308   1.633   5.063  14.357  2.3448  0.4977  1.4442
 5273TIP3   OH237309   4.358   1.476   2.319 -0.0982 -0.1598  0.2484
 5273TIP3    H137310   4.373   1.415   2.391  2.5727 -0.2525 -0.3271
 5273TIP3    H237311   4.387   1.428   2.241  1.6188  1.6538 -0.2638
 5274TIP3   OH237312   2.418   2.947   6.272  0.4402 -0.0159  0.0082
 5274TIP3    H137313   2.383   3.034   6.291  0.9984  0.2857 -0.3161
 5274TIP3    H237314   2.359   2.886   6.316 -0.8477  0.4506 -1.0647
 5275TIP3   OH237315   1.689   3.546  13.308  0.6684 -0.4746 -0.2046
 5275TIP3    H137316   1.738   3.487  13.250  0.0558 -2.1885  0.9924
 5275TIP3    H237317   1.757   3.592  13.358  1.1416 -0.2522 -1.0367
 5276TIP3   OH237318   4.475   3.727  15.886  0.3392 -0.1503  0.2691
 5276TIP3    H137319   4.494   3.774  15.805 -0.2766  0.1355  0.2936
 5276TIP3    H237320   4.480   3.635  15.862  2.7089 -0.1180  0.4718
 5277TIP3   OH237321   3.515   5.581  12.619 -0.5638  0.2571 -0.0873
 5277TIP3    H137322   3.462   5.638  12.564 -2.7525 -1.8206 -0.2334
 5277TIP3    H237323   3.454   5.550  12.686  1.0348 -0.5205  1.0485
 5278TIP3   OH237324   1.146   2.784   5.117 -0.2698  0.1513 -0.3756
 5278TIP3    H137325   1.147   2.690   5.136 -0.7293  0.0584 -0.8025
 5278TIP3    H237326   1.076   2.819   5.171 -0.2846  0.2057 -0.4307
 5279TIP3   OH237327   4.111   6.093  16.874 -0.7163 -0.2461 -0.7707
 5279TIP3    H137328   4.029   6.044  16.877 -1.0568  0.2516 -1.6743
 5279TIP3    H237329   4.166   6.043  16.814 -0.8006  0.0715 -1.1172
 5280TIP3   OH237330   3.663   5.486   3.219  0.5625  0.5049  0.0192
 5280TIP3    H137331   3.619   5.425   3.160 -1.9359  1.9127  0.3750
 5280TIP3    H237332   3.684   5.434   3.296 -2.0610  0.1947  0.5615
 5281TIP3   OH237333   5.712   6.167  13.878  0.1910  0.1769  0.5198
 5281TIP3    H137334   5.801   6.142  13.904  1.3816  1.1091 -2.4214
 5281TIP3    H237335   5.671   6.085  13.853  1.1844  0.0443 -0.7585
 5282TIP3   OH237336   5.741   0.293   1.701 -0.2690 -0.4821 -0.4480
 5282TIP3    H137337   5.776   0.323   1.785 -0.6376 -0.8618 -0.1549
 5282TIP3    H237338   5.693   0.213   1.723  0.1693 -0.9311 -1.1211
 5283TIP3   OH237339   0.130   5.457   4.029 -0.1795 -0.2219  0.2067
 5283TIP3    H137340   0.169   5.419   3.951 -0.5901 -1.0504  0.3963
 5283TIP3    H237341   0.162   5.402   4.101 -0.7962 -0.2286  0.4831
 5284TIP3   OH237342   0.240   5.212  16.153  0.0187 -0.3979 -0.8354
 5284TIP3    H137343   0.188   5.292  16.156  1.0562  0.3282 -1.6286
 5284TIP3    H237344   0.178   5.143  16.131 -1.0560  0.0369  0.7904
 5285TIP3   OH237345   2.612   5.808  12.842  0.5683  0.5068  0.4663
 5285TIP3    H137346   2.620   5.872  12.912  1.4834  0.6933  0.1959
 5285TIP3    H237347   2.663   5.844  12.769  0.2918 -0.0605 -0.0224
 5286TIP3   OH237348   4.982   2.952   0.035 -0.3156  0.4317  0.1391
 5286TIP3    H137349   4.957   2.997   0.116  1.5923 -0.8950  1.5200
 5286TIP3    H237350   5.078   2.953   0.036 -0.2750  0.0475 -1.9290
 5287TIP3   OH237351   2.814   2.251   0.416  0.4093  0.2889  0.5934
 5287TIP3    H137352   2.725   2.218   0.405  0.4453 -0.1843  1.6244
 5287TIP3    H237353   2.860   2.225   0.336 -0.1094 -0.3518  0.5007
 5288TIP3   OH237354   4.284   6.189   3.591 -0.4660 -0.3029  0.2206
 5288TIP3    H137355   4.317   6.258   3.648 -0.4465 -0.1607  0.0357
 5288TIP3    H237356   4.329   6.110   3.621  1.4336  0.1916 -1.1978
 5289TIP3   OH237357   5.885   3.851  11.989 -0.0133  0.3632  0.1287
 5289TIP3    H137358   5.946   3.860  12.062  0.2536  0.2164 -0.0749
 5289TIP3    H237359   5.800   3.835  12.031  0.4303 -1.4225  0.3841
 5290TIP3   OH237360   6.090   1.897   4.696  0.4924  0.0499 -0.0950
 5290TIP3    H137361   6.045   1.837   4.637  1.3400 -1.6733  0.9677
 5290TIP3    H237362   6.183   1.885   4.677  0.7262  0.1427  0.9635
 5291TIP3   OH237363   3.367   6.063  11.877 -0.1227 -0.6652 -0.0567
 5291TIP3    H137364   3.345   6.155  11.860  2.2744 -0.5070 -2.6976
 5291TIP3    H237365   3.287   6.015  11.857 -0.1877  0.4872 -2.8849
 5292TIP3   OH237366   6.236   3.867  15.797  0.2886  0.2628  0.1750
 5292TIP3    H137367   6.231   3.810  15.874 -0.0486  0.3655  0.2322
 5292TIP3    H237368   6.209   3.953  15.830 -2.0782 -0.1742 -0.5478
 5293TIP3   OH237369   4.790   1.934   0.384 -0.4247 -0.6164 -0.2428
 5293TIP3    H137370   4.758   2.005   0.328  1.5068 -0.7388 -1.5899
 5293TIP3    H237371   4.731   1.860   0.366 -0.8263 -0.1484 -0.8630
 5294TIP3   OH237372   4.618   0.538  13.588  1.1409  0.5500  0.3589
 5294TIP3    H137373   4.544   0.574  13.540  1.3020  1.2231  0.6156
 5294TIP3    H237374   4.694   0.586  13.554  1.2671  0.9649  1.2188
 5295TIP3   OH237375   6.376   2.790   0.145 -0.4630 -0.2604 -0.0881
 5295TIP3    H137376   6.469   2.800   0.161 -0.1635 -1.0422 -1.2782
 5295TIP3    H237377   6.369   2.773   0.051 -1.8144 -0.0199 -0.0454
 5296TIP3   OH237378   1.165   3.195  15.247 -0.6606  0.0487  0.0332
 5296TIP3    H137379   1.256   3.214  15.225 -1.2667 -0.8443 -3.5066
 5296TIP3    H237380   1.128   3.281  15.271  1.1785  0.3298  2.0567
 5297TIP3   OH237381   4.672   3.035  12.175  0.2623 -0.3487  0.1276
 5297TIP3    H137382   4.598   3.013  12.232 -0.0381  0.0594 -0.1102
 5297TIP3    H237383   4.709   3.114  12.214  0.4073 -0.3960  0.0863
 5298TIP3   OH237384   0.916   5.482   0.739 -0.1744  0.1376  0.3165
 5298TIP3    H137385   0.902   5.488   0.834  1.5869  0.9340  0.5568
 5298TIP3    H237386   0.923   5.573   0.710 -1.0548 -0.0978 -0.6382
 5299TIP3   OH237387   1.910   5.616   4.438 -0.3841 -0.2677  0.2038
 5299TIP3    H137388   1.837   5.675   4.457 -1.2237 -1.1200 -0.3495
 5299TIP3    H237389   1.925   5.569   4.520 -1.0741 -0.7604  0.0477
 5300TIP3   OH237390   5.376   5.231   2.712 -0.2703  0.6469  0.5281
 5300TIP3    H137391   5.400   5.196   2.797  1.3125  0.0959 -0.1106
 5300TIP3    H237392   5.325   5.162   2.671  3.0445 -1.1378 -0.8216
 5301TIP3   OH237393   1.767   0.477   3.221 -0.5861 -0.3853 -0.0413
 5301TIP3    H137394   1.704   0.406   3.226  0.4698 -1.3043  0.4710
 5301TIP3    H237395   1.852   0.434   3.231  0.0051  1.0485  1.2236
 5302TIP3   OH237396   5.596   2.303   3.329  0.0640  0.1676  0.9101
 5302TIP3    H137397   5.512   2.256   3.337 -0.1889  0.8634  2.4338
 5302TIP3    H237398   5.650   2.267   3.400  1.8279 -1.7957 -1.3306
 5303TIP3   OH237399   3.089   0.679  15.444  0.9909  0.5019 -0.2931
 5303TIP3    H137400   3.069   0.659  15.535 -0.1042  0.9101 -0.4354
 5303TIP3    H237401   3.028   0.624  15.394  1.3861  0.4945 -0.7710
 5304TIP3   OH237402   5.923   5.419   3.071  0.2589  0.6949 -0.1653
 5304TIP3    H137403   5.833   5.390   3.059  1.1225 -1.0712 -2.7571
 5304TIP3    H237404   5.968   5.342   3.107  1.2655  0.7501 -1.2833
 5305TIP3   OH237405   3.655   5.880  16.405  0.1452  0.3172 -0.5047
 5305TIP3    H137406   3.747   5.856  16.419  0.2060  1.4968  1.2594
 5305TIP3    H237407   3.616   5.802  16.365  1.6681 -0.5740 -0.2893
 5306TIP3   OH237408   1.323   1.134  12.010  0.1288 -0.1158 -0.2964
 5306TIP3    H137409   1.341   1.158  12.101 -1.9088  0.9813 -0.1497
 5306TIP3    H237410   1.409   1.119  11.972  1.1370  1.3849  1.2939
 5307TIP3   OH237411   4.462   0.543   3.515 -0.4357 -0.3379  0.2379
 5307TIP3    H137412   4.557   0.531   3.516 -0.2696  0.9601  1.1079
 5307TIP3    H237413   4.439   0.566   3.605 -1.1302  2.4998 -0.6040
 5308TIP3   OH237414   2.252   4.392  16.706 -0.2768  0.4523 -0.2747
 5308TIP3    H137415   2.210   4.449  16.770 -0.6644 -1.2694  1.0290
 5308TIP3    H237416   2.180   4.363  16.649 -0.0712  1.2885 -0.9719
 5309TIP3   OH237417   0.855   5.979  12.091 -0.0644  0.3758  0.2563
 5309TIP3    H137418   0.936   6.029  12.095  0.0445  0.3472 -1.1793
 5309TIP3    H237419   0.872   5.901  12.143  0.6113  0.6757  0.4907
 5310TIP3   OH237420   3.182   4.820   5.086  0.3971 -0.3847  0.4278
 5310TIP3    H137421   3.109   4.835   5.025  0.7371 -0.1859  0.0732
 5310TIP3    H237422   3.224   4.906   5.094 -0.9838  0.1408  2.6588
 5311TIP3   OH237423   6.170   0.287  16.988 -0.5989  0.2546 -0.0886
 5311TIP3    H137424   6.183   0.362  17.046 -1.2312 -1.5359  2.4373
 5311TIP3    H237425   6.090   0.246  17.019 -2.2212  0.5054 -3.6953
 5312TIP3   OH237426   6.727   3.290   0.652 -0.5085 -0.3714  0.2561
 5312TIP3    H137427   6.715   3.347   0.727 -1.1714  0.2451 -0.3198
 5312TIP3    H237428   6.666   3.322   0.586  1.9379  0.7941 -1.5509
 5313TIP3   OH237429   1.164   4.160   0.356 -0.0272 -0.0908  0.1200
 5313TIP3    H137430   1.188   4.199   0.440 -0.0372 -1.8422  0.9710
 5313TIP3    H237431   1.129   4.232   0.304  0.1825  1.0491  1.5437
 5314TIP3   OH237432   4.614   3.787  11.966  0.2762 -0.1766 -0.7364
 5314TIP3    H137433   4.609   3.700  12.005  0.8863  0.0402 -0.1630
 5314TIP3    H237434   4.708   3.802  11.952  0.2956  0.9830  0.5470
 5315TIP3   OH237435   5.015   5.938   0.821  0.2478 -0.0070 -0.4023
 5315TIP3    H137436   5.055   5.868   0.871  0.8016  1.4722  1.2628
 5315TIP3    H237437   4.963   5.893   0.754 -0.4372 -2.0165  1.4161
 5316TIP3   OH237438   1.779   4.484  12.815  0.0221  0.0116  0.0507
 5316TIP3    H137439   1.752   4.437  12.736 -0.9686 -0.1113  0.4561
 5316TIP3    H237440   1.862   4.525  12.791 -0.1155 -0.2762 -0.9562
 5317TIP3   OH237441   1.058   5.849   1.111 -0.1253  0.0854 -0.1537
 5317TIP3    H137442   1.020   5.761   1.116  1.5421 -0.9203 -3.5860
 5317TIP3    H237443   1.153   5.834   1.108  0.2192  2.0770  0.1275
 5318TIP3   OH237444   5.812   0.839  15.479  0.0959 -0.2090 -0.2589
 5318TIP3    H137445   5.868   0.886  15.541 -0.0074 -1.3055  0.6744
 5318TIP3    H237446   5.867   0.769  15.444  0.1680  0.4319 -1.4616
 5319TIP3   OH237447   0.448   3.955   2.163 -0.2461  0.2650 -0.7493
 5319TIP3    H137448   0.365   3.985   2.123 -1.1553  0.5163  1.2854
 5319TIP3    H237449   0.429   3.951   2.256  2.1430  0.5888 -0.2316
 5320TIP3   OH237450   0.545   0.287  12.041 -0.1890 -0.2330  0.4745
 5320TIP3    H137451   0.522   0.368  11.996 -1.6486  0.5710  2.5668
 5320TIP3    H237452   0.470   0.229  12.027 -1.5235  0.6961  3.3404
 5321TIP3   OH237453   2.416   6.603  15.427 -0.0083 -0.1285  0.1295
 5321TIP3    H137454   2.351   6.665  15.393  0.6007  0.8179  0.6797
 5321TIP3    H237455   2.364   6.538  15.474 -0.9241 -1.7934 -3.0335
 5322TIP3   OH237456   6.049   1.130  16.165  0.4441 -0.7364  0.5571
 5322TIP3    H137457   6.038   1.155  16.257  2.2048 -0.3542  0.6887
 5322TIP3    H237458   6.141   1.149  16.147 -0.2131  0.3925 -1.6595
 5323TIP3   OH237459   4.226   2.164  13.870  0.5413  0.2935 -0.4883
 5323TIP3    H137460   4.295   2.219  13.909 -0.3505  1.5476 -0.6791
 5323TIP3    H237461   4.157   2.161  13.936 -0.3613  1.2382 -1.3713
 5324TIP3   OH237462   6.782   5.000   5.290  0.1249  0.2927 -0.3374
 5324TIP3    H137463   6.725   4.949   5.347  2.0691 -2.0040 -0.3765
 5324TIP3    H237464   6.724   5.033   5.221 -1.4164 -0.6182  0.5024
 5325TIP3   OH237465   5.624   0.990  16.662  0.4635  0.1652 -0.4034
 5325TIP3    H137466   5.695   1.020  16.606  3.6187 -0.7135  2.9318
 5325TIP3    H237467   5.606   1.065  16.719  0.1903 -0.3381  0.1752
 5326TIP3   OH237468   2.870   6.176   5.130  1.0665 -0.2915  0.0883
 5326TIP3    H137469   2.791   6.197   5.079  0.8111  0.6105  0.8562
 5326TIP3    H237470   2.916   6.112   5.076 -0.5587 -1.3967 -0.0358
 5327TIP3   OH237471   5.135   4.010   2.609  0.0098  0.3123  0.1914
 5327TIP3    H137472   5.183   3.988   2.529 -0.7744  2.2601 -0.8517
 5327TIP3    H237473   5.052   3.964   2.600  1.0972 -1.9436  1.3495
 5328TIP3   OH237474   6.565   5.433   2.859 -0.0963 -0.5227  0.7275
 5328TIP3    H137475   6.556   5.528   2.872 -3.1873 -0.3954 -1.5713
 5328TIP3    H237476   6.553   5.421   2.765  1.9461 -3.0591  0.7564
 5329TIP3   OH237477   5.999   3.853   3.206 -0.5073 -0.4296  0.2944
 5329TIP3    H137478   5.915   3.897   3.195  1.0184  2.2000 -1.1738
 5329TIP3    H237479   6.030   3.882   3.292 -0.3097 -0.0154  0.0850
 5330TIP3   OH237480   6.137   0.726   5.239 -0.0833 -0.7539 -0.3662
 5330TIP3    H137481   6.134   0.630   5.240  0.8391 -0.8020 -1.3446
 5330TIP3    H237482   6.206   0.747   5.176 -0.9333  0.5713 -0.8699
 5331TIP3   OH237483   0.377   0.718  14.738  0.4068 -0.1521  0.2651
 5331TIP3    H137484   0.436   0.784  14.774  0.4648  0.7101 -1.3732
 5331TIP3    H237485   0.435   0.647  14.709  0.5438  0.1487 -0.2017
 5332TIP3   OH237486   3.826   1.365  15.281  0.3466 -0.4359 -0.0937
 5332TIP3    H137487   3.790   1.281  15.307  1.1808 -0.3963  1.1918
 5332TIP3    H237488   3.758   1.428  15.303  0.6054 -0.5276  0.9895
 5333TIP3   OH237489   5.130   1.692  11.689 -0.1951  0.0252  0.0679
 5333TIP3    H137490   5.154   1.696  11.781 -0.3996 -0.9226  0.1707
 5333TIP3    H237491   5.214   1.693  11.642 -0.0177 -1.3485  0.3420
 5334TIP3   OH237492   2.118   5.735   2.319 -0.0363  0.1302 -0.4620
 5334TIP3    H137493   2.101   5.770   2.231  0.1346  1.2074 -0.0711
 5334TIP3    H237494   2.046   5.770   2.372  0.2249  0.0059 -0.0303
 5335TIP3   OH237495   2.392   2.820   0.054 -0.2572  0.9315 -0.2445
 5335TIP3    H137496   2.460   2.793   0.116 -1.7452  0.9910  1.4519
 5335TIP3    H237497   2.391   2.751  -0.012 -0.3233 -0.4039  1.1279
 5336TIP3   OH237498   0.216   3.525  16.513 -0.1041  0.8763  0.5638
 5336TIP3    H137499   0.130   3.543  16.551 -0.5454  0.2670 -0.1429
 5336TIP3    H237500   0.262   3.476  16.581 -1.0675 -0.6403  0.1439
 5337TIP3   OH237501   4.485   1.867  14.891 -1.1928 -0.3862 -0.2955
 5337TIP3    H137502   4.524   1.796  14.840  0.5316 -1.2920  2.1982
 5337TIP3    H237503   4.398   1.835  14.914 -0.5652 -1.5566  0.5028
 5338TIP3   OH237504   0.114   3.858   3.229 -0.0445  0.2983  0.1852
 5338TIP3    H137505   0.090   3.942   3.267 -0.5473  0.7853 -1.1710
 5338TIP3    H237506   0.140   3.879   3.139  1.7540 -0.7318  0.4389
 5339TIP3   OH237507   1.523   5.818  16.334 -0.1199 -0.0822 -0.7841
 5339TIP3    H137508   1.546   5.799  16.425 -2.8334  1.7000  0.3186
 5339TIP3    H237509   1.469   5.744  16.307 -0.6685  0.1794 -0.4100
 5340TIP3   OH237510   4.327   6.020   2.180  0.5747 -0.1494  0.1491
 5340TIP3    H137511   4.235   6.024   2.206  0.5458 -0.6104  0.1224
 5340TIP3    H237512   4.324   5.998   2.086  0.6853  1.0694 -0.1445
 5341TIP3   OH237513   0.921   0.762  14.316  0.5632  0.5142 -0.0140
 5341TIP3    H137514   0.847   0.720  14.272 -0.2795  1.3000  0.6483
 5341TIP3    H237515   0.886   0.792  14.399  2.2402 -1.2551  1.3846
 5342TIP3   OH237516   6.285   0.125  12.266 -0.0872 -0.6757 -0.0652
 5342TIP3    H137517   6.350   0.188  12.236 -1.4912  0.7372 -0.2412
 5342TIP3    H237518   6.223   0.176  12.317 -1.6744 -1.7589 -0.8431
 5343TIP3   OH237519   0.039   4.854   4.601  0.5624  0.2771 -0.1919
 5343TIP3    H137520   0.102   4.784   4.618  0.8507  0.7460  0.6518
 5343TIP3    H237521   0.003   4.833   4.514  0.4139 -1.0938  0.1948
 5344TIP3   OH237522   0.842   3.643  13.793  0.1837  0.0173 -0.0580
 5344TIP3    H137523   0.764   3.595  13.766  0.1740 -0.1655  0.3039
 5344TIP3    H237524   0.821   3.735  13.774  0.2935 -0.1338 -0.9748
 5345TIP3   OH237525   1.692   6.701   4.299 -0.5434 -0.2299  0.0443
 5345TIP3    H137526   1.726   6.727   4.213 -0.2000  1.6356  0.7041
 5345TIP3    H237527   1.768   6.665   4.345 -0.7707 -1.4058 -0.4964
 5346TIP3   OH237528   0.151   1.341   1.954  0.0169  0.1040  0.9452
 5346TIP3    H137529   0.095   1.291   1.895 -0.8301  2.4700 -0.3637
 5346TIP3    H237530   0.223   1.372   1.899  0.1332  0.9076  1.5297
 5347TIP3   OH237531   1.802   3.136   1.865 -0.0969  0.0574  0.4527
 5347TIP3    H137532   1.885   3.106   1.902  0.1292  1.5474  1.1829
 5347TIP3    H237533   1.826   3.184   1.786 -0.6062 -3.5560 -2.0714
 5348TIP3   OH237534   6.475   5.560  13.176 -0.6742 -0.2291  0.1854
 5348TIP3    H137535   6.483   5.655  13.169  2.2778 -0.5541 -2.1837
 5348TIP3    H237536   6.425   5.535  13.098 -1.4350 -0.6071  0.7980
 5349TIP3   OH237537   1.630   2.725  15.333  0.4006  0.2194 -0.2339
 5349TIP3    H137538   1.559   2.770  15.378 -0.6899 -1.3266 -0.3522
 5349TIP3    H237539   1.654   2.653  15.393  0.2130 -0.7177 -1.2651
 5350TIP3   OH237540   6.424   5.260  17.209 -0.1366  0.6924  0.8123
 5350TIP3    H137541   6.360   5.306  17.154  0.9969 -0.0100 -1.1440
 5350TIP3    H237542   6.503   5.313  17.202  1.4882 -1.9729 -2.2788
 5351TIP3   OH237543   3.872   5.148   2.964 -0.0212  0.0999 -0.0244
 5351TIP3    H137544   3.853   5.212   2.895  1.6694  0.1596 -0.4552
 5351TIP3    H237545   3.939   5.091   2.926 -0.0222 -0.6629  1.1013
 5352TIP3   OH237546   3.073   3.904   1.940  0.0832 -0.4583 -0.6012
 5352TIP3    H137547   3.072   3.858   1.857  0.3165  0.4143 -1.0954
 5352TIP3    H237548   3.158   3.884   1.978 -0.2891 -1.4095 -0.2488
 5353TIP3   OH237549   5.749   2.810  15.886 -0.1717  0.2269  0.0273
 5353TIP3    H137550   5.713   2.896  15.861 -1.5153  0.1951  1.7571
 5353TIP3    H237551   5.771   2.769  15.803  0.5246  2.2492 -0.8441
 5354TIP3   OH237552   0.373   1.294   5.054  0.0577  0.2560  0.2260
 5354TIP3    H137553   0.407   1.218   5.007 -0.8425  0.2496 -0.4279
 5354TIP3    H237554   0.430   1.302   5.130  1.2616  0.0067 -0.6396
 5355TIP3   OH237555   1.871   3.870  14.622 -0.2532  0.4741  0.5232
 5355TIP3    H137556   1.937   3.931  14.656  1.5057 -0.4858 -1.1161
 5355TIP3    H237557   1.872   3.884  14.527  1.6744 -3.5085 -0.1317
 5356TIP3   OH237558   4.690   2.706  13.279  0.4883  0.1325 -0.0135
 5356TIP3    H137559   4.666   2.799  13.277 -0.8748 -0.2390 -1.6216
 5356TIP3    H237560   4.614   2.661  13.243  1.7897 -1.4694 -0.7936
 5357TIP3   OH237561   3.039   1.378   6.557  0.5739 -0.4283  0.3025
 5357TIP3    H137562   3.101   1.307   6.573  0.7575 -0.4150 -0.3692
 5357TIP3    H237563   2.998   1.392   6.643  1.5132 -0.4079  0.7593
 5358TIP3   OH237564   4.878   1.246   6.221 -0.2064 -0.6511  0.5755
 5358TIP3    H137565   4.943   1.234   6.291 -0.3011 -0.8073  0.6368
 5358TIP3    H237566   4.808   1.297   6.261  1.1978  2.0615 -0.2910
 5359TIP3   OH237567   2.106   5.393   6.437  0.1307 -0.0710 -0.5508
 5359TIP3    H137568   2.149   5.431   6.360  0.1474 -0.6411 -0.8238
 5359TIP3    H237569   2.093   5.301   6.414  1.5425 -0.6137  0.7370
 5360TIP3   OH237570   4.895   6.454   1.831 -0.3082 -0.1862  0.2334
 5360TIP3    H137571   4.815   6.414   1.863 -0.0150 -0.8803  0.1002
 5360TIP3    H237572   4.929   6.504   1.905 -1.4092  0.9719 -0.0173
 5361TIP3   OH237573   1.483   4.518   5.104  0.5760  0.4406  0.2248
 5361TIP3    H137574   1.444   4.492   5.021  1.5137  1.7690 -0.6364
 5361TIP3    H237575   1.488   4.437   5.155 -0.1544 -0.3405 -0.9461
 5362TIP3   OH237576   6.422   0.234  11.668 -0.0355  0.2757  0.2361
 5362TIP3    H137577   6.405   0.140  11.675 -0.1130  0.3165  0.6122
 5362TIP3    H237578   6.485   0.252  11.737  2.7341 -0.1449 -2.0714
 5363TIP3   OH237579   5.912   0.646  13.460  0.2671 -0.3402 -0.0763
 5363TIP3    H137580   5.971   0.633  13.387 -0.6232 -0.3676 -0.8005
 5363TIP3    H237581   5.969   0.655  13.536  1.1363 -2.3027 -0.4592
 5364TIP3   OH237582   4.421   6.477  14.330 -0.3372 -0.5198 -0.1298
 5364TIP3    H137583   4.514   6.501  14.323 -0.1794 -1.0161  0.2187
 5364TIP3    H237584   4.421   6.381  14.329 -0.8118 -0.5271  0.3254
 5365TIP3   OH237585   0.270   1.905  13.468 -0.8109 -0.0316  0.0627
 5365TIP3    H137586   0.264   1.995  13.435 -4.4342  0.4335  1.7233
 5365TIP3    H237587   0.213   1.855  13.410  2.7760 -1.7685 -2.1247
 5366TIP3   OH237588   5.042   1.157  10.789 -0.4477 -0.3161  0.5047
 5366TIP3    H137589   5.135   1.162  10.814  0.0870 -0.9945 -1.2627
 5366TIP3    H237590   5.001   1.103  10.856  0.8994 -1.9228  0.0643
 5367TIP3   OH237591   5.607   1.956   0.308 -0.2549  0.4936  0.8498
 5367TIP3    H137592   5.676   1.991   0.253 -1.0735  0.9478  0.1024
 5367TIP3    H237593   5.643   1.875   0.343  0.4244  0.4098 -0.0281
 5368TIP3   OH237594   6.402   5.648  17.096 -0.2952 -0.7413 -0.4339
 5368TIP3    H137595   6.321   5.693  17.119 -0.6740 -1.6069 -0.0662
 5368TIP3    H237596   6.417   5.586  17.167  2.5891  1.8357  1.3092
 5369TIP3   OH237597   6.004   1.987   0.750 -0.2552 -0.4842 -0.7364
 5369TIP3    H137598   6.057   1.925   0.700  1.2034  0.7776 -0.7820
 5369TIP3    H237599   6.037   1.982   0.839  0.4598  0.8313 -0.9100
 5370TIP3   OH237600   3.007   5.782  14.805  0.3295  0.1816 -0.6258
 5370TIP3    H137601   2.934   5.801  14.865 -1.1396  0.3914 -2.4294
 5370TIP3    H237602   3.068   5.730  14.857 -0.4221  1.2479  1.3577
 5371TIP3   OH237603   0.454   1.115   2.693 -0.3263 -0.3872  0.4234
 5371TIP3    H137604   0.425   1.187   2.637  0.5684 -0.7074 -0.4619
 5371TIP3    H237605   0.373   1.077   2.726 -0.8060  1.9424  2.1098
 5372TIP3   OH237606   5.172   0.350   3.917 -0.2411  0.0576 -0.0415
 5372TIP3    H137607   5.234   0.392   3.858  1.4685  0.9137  2.3083
 5372TIP3    H237608   5.151   0.266   3.875  0.2305  1.0300 -2.2664
 5373TIP3   OH237609   5.235   0.716   1.219  0.3890 -0.5917  0.1008
 5373TIP3    H137610   5.274   0.700   1.305 -0.4263  0.4971  0.6785
 5373TIP3    H237611   5.308   0.705   1.158  1.5155  0.9305  1.1159
 5374TIP3   OH237612   6.783   2.537   4.027  0.0514 -0.0340 -0.1376
 5374TIP3    H137613   6.739   2.561   3.946  0.1162 -1.2212 -0.5371
 5374TIP3    H237614   6.754   2.601   4.091 -0.8736  0.2397 -0.8305
 5375TIP3   OH237615   3.691   4.579   5.691 -0.5336 -0.3339 -0.3403
 5375TIP3    H137616   3.640   4.660   5.693 -0.8824 -0.5513 -0.3586
 5375TIP3    H237617   3.782   4.608   5.697 -0.6333  0.0861 -0.8393
 5376TIP3   OH237618   6.197   1.767  17.264  0.0236  0.1802  0.1968
 5376TIP3    H137619   6.236   1.852  17.285 -0.4884  0.3487  0.4758
 5376TIP3    H237620   6.207   1.759  17.169  2.6138 -0.7084  0.5234
 5377TIP3   OH237621   4.369   2.682  13.439  0.5578 -0.3383 -0.3755
 5377TIP3    H137622   4.319   2.717  13.365  0.7203  1.6837  0.4344
 5377TIP3    H237623   4.383   2.757  13.496  0.3747 -1.8829  1.7606
 5378TIP3   OH237624   3.638   0.043  16.846  0.0495 -0.1018 -0.3845
 5378TIP3    H137625   3.722   0.034  16.801 -0.4109 -1.2292 -1.0204
 5378TIP3    H237626   3.612   0.133  16.829  1.3166  0.3982  0.1656
 5379TIP3   OH237627   4.877   2.447   2.602 -0.8526 -0.4190  0.0706
 5379TIP3    H137628   4.941   2.470   2.668 -1.4631 -1.6820  1.1381
 5379TIP3    H237629   4.927   2.441   2.520 -0.1800  1.6182  0.3033
 5380TIP3   OH237630   4.290   1.324   4.909  0.0363 -0.2168 -0.1133
 5380TIP3    H137631   4.259   1.343   4.820  1.3200  0.3445 -0.4540
 5380TIP3    H237632   4.328   1.236   4.903  0.2082 -0.1413 -0.1518
 5381TIP3   OH237633   4.655   2.055  11.621 -0.0593  0.1666  0.1119
 5381TIP3    H137634   4.596   2.127  11.643 -1.8910 -1.0329 -0.7365
 5381TIP3    H237635   4.620   2.019  11.539  0.8944 -1.5951  0.4511
 5382TIP3   OH237636   5.586   4.644  12.362  0.4032  0.0976  0.5525
 5382TIP3    H137637   5.590   4.738  12.380  1.4601  0.6917 -2.3710
 5382TIP3    H237638   5.525   4.637  12.289  0.7771 -1.4207  0.3685
 5383TIP3   OH237639   3.781   3.275  14.665  0.9673  0.2076 -0.2843
 5383TIP3    H137640   3.860   3.312  14.624  0.8178  0.8952  0.0385
 5383TIP3    H237641   3.712   3.338  14.644  1.0729  1.0398  1.7718
 5384TIP3   OH237642   1.777   0.072  14.362  0.8520 -0.4064  0.4112
 5384TIP3    H137643   1.848   0.132  14.339  1.6637 -0.2873  3.0379
 5384TIP3    H237644   1.704   0.129  14.387  0.3050 -0.5333 -0.8564
 5385TIP3   OH237645   5.593   1.121   1.470 -0.3650 -0.0989  0.0304
 5385TIP3    H137646   5.562   1.139   1.558 -0.2129  1.2387 -0.1789
 5385TIP3    H237647   5.604   1.026   1.467  0.9714 -0.0227  1.8978
 5386TIP3   OH237648   2.669   2.052   5.751 -0.2088  0.2219 -0.2327
 5386TIP3    H137649   2.620   1.977   5.716 -0.4565  0.3393 -0.1448
 5386TIP3    H237650   2.603   2.121   5.759 -0.1068  0.2633  0.2501
 5387TIP3   OH237651   5.515   5.664  13.299 -0.2905  0.1925 -0.4281
 5387TIP3    H137652   5.502   5.756  13.274 -2.2001  0.2334  0.6625
 5387TIP3    H237653   5.442   5.644  13.357  0.5052 -1.8265 -0.0841
 5388TIP3   OH237654   6.414   2.564  12.188 -0.2826 -0.1306 -0.6113
 5388TIP3    H137655   6.403   2.469  12.193  3.6655 -0.6148  0.4825
 5388TIP3    H237656   6.425   2.592  12.279  0.0279  1.1436 -1.0313
 5389TIP3   OH237657   3.999   2.058  15.610 -0.0097 -0.0408  0.9109
 5389TIP3    H137658   4.016   2.152  15.615  0.2901 -0.0148 -0.3595
 5389TIP3    H237659   4.037   2.031  15.526 -0.3276 -1.2462  1.1407
 5390TIP3   OH237660   1.538   0.527  16.282 -0.0116  0.0179  0.2307
 5390TIP3    H137661   1.509   0.442  16.314  0.6498  0.5538  2.2913
 5390TIP3    H237662   1.629   0.535  16.311  0.4233  0.7946 -1.2595
 5391TIP3   OH237663   5.791   3.321  15.299  0.9441  0.6164  0.4587
 5391TIP3    H137664   5.735   3.249  15.328 -0.5514  0.5449 -2.4734
 5391TIP3    H237665   5.880   3.286  15.307  0.2194 -1.7673 -1.3930
 5392TIP3   OH237666   6.700   5.420  13.090  0.0545 -0.0708 -0.4840
 5392TIP3    H137667   6.612   5.450  13.112  0.6749  1.6021 -0.2133
 5392TIP3    H237668   6.751   5.501  13.081  0.9112 -0.9069 -3.4506
 5393TIP3   OH237669   4.775   2.941  16.848  0.7286  0.5026 -0.1786
 5393TIP3    H137670   4.811   2.855  16.830  1.3992  0.3035  1.9286
 5393TIP3    H237671   4.707   2.925  16.914  1.4617  1.6758  0.8804
 5394TIP3   OH237672   0.194   5.969   1.973 -0.9737 -0.5643  0.0839
 5394TIP3    H137673   0.111   5.921   1.970 -1.2719 -0.1757  1.5445
 5394TIP3    H237674   0.254   5.909   2.017 -0.9963 -0.1215  0.7271
 5395TIP3   OH237675   5.822   5.541  12.368 -0.2141  0.3253 -0.0579
 5395TIP3    H137676   5.904   5.532  12.417  0.4415  0.6561 -1.0912
 5395TIP3    H237677   5.841   5.506  12.281 -0.3647  2.8316 -1.1627
 5396TIP3   OH237678   1.030   4.471   4.837 -0.5363  0.3897  0.1762
 5396TIP3    H137679   0.993   4.558   4.821 -1.4402  0.0263  0.2804
 5396TIP3    H237680   1.089   4.484   4.912  2.1749  1.6669 -2.0990
 5397TIP3   OH237681   5.849   5.636  13.330 -0.9035  0.1444  0.0470
 5397TIP3    H137682   5.798   5.555  13.318 -1.6225  0.6832 -0.5903
 5397TIP3    H237683   5.913   5.614  13.397 -0.9300 -1.0385 -0.3022
 5398TIP3   OH237684   1.285   3.679  11.790 -0.5416 -0.2168  0.1086
 5398TIP3    H137685   1.297   3.732  11.711 -0.9058 -1.0218 -0.5046
 5398TIP3    H237686   1.279   3.742  11.861  1.0611  0.4838 -0.3380
 5399TIP3   OH237687   4.238   1.698   3.843 -0.0290 -0.1059  0.3230
 5399TIP3    H137688   4.304   1.698   3.773 -0.3336 -3.7685 -0.0838
 5399TIP3    H237689   4.289   1.702   3.924  0.5133  0.5319 -0.0416
 5400TIP3   OH237690   3.012   6.581   1.699  0.8993  0.0677 -0.3883
 5400TIP3    H137691   3.102   6.558   1.674  0.4741 -1.0480 -0.9379
 5400TIP3    H237692   2.991   6.520   1.770  0.3097 -0.2139 -0.7968
 5401TIP3   OH237693   1.547   1.460   4.016  0.5123  0.5819  0.1539
 5401TIP3    H137694   1.588   1.481   4.100  1.6962  3.2900 -1.0215
 5401TIP3    H237695   1.615   1.412   3.968  0.0424 -0.4464  0.4941
 5402TIP3   OH237696   2.202   3.947  13.715  0.1519 -0.0238  0.4556
 5402TIP3    H137697   2.179   3.928  13.806 -1.3320  1.1248  0.3488
 5402TIP3    H237698   2.118   3.967  13.673  0.8243 -0.5685 -1.1719
 5403TIP3   OH237699   4.158   0.599   0.196  0.2870  0.7387 -0.3235
 5403TIP3    H137700   4.177   0.546   0.273  0.9921  1.5439  0.0681
 5403TIP3    H237701   4.063   0.594   0.187  0.6020 -3.1510 -2.1892
 5404TIP3   OH237702   6.720   4.722   3.009  0.4924  0.2599  0.0245
 5404TIP3    H137703   6.803   4.700   3.053  0.7463  0.8663 -0.1467
 5404TIP3    H237704   6.743   4.725   2.916 -0.0323 -0.9590 -0.1514
 5405TIP3   OH237705   5.594   5.412   0.212 -0.0853 -0.5624  0.3128
 5405TIP3    H137706   5.588   5.363   0.294 -0.1946  1.6286  1.6533
 5405TIP3    H237707   5.677   5.384   0.173 -0.0459 -1.6318  1.1395
 5406TIP3   OH237708   2.750   0.077   4.233 -0.0028  0.5381  0.0750
 5406TIP3    H137709   2.751  -0.019   4.236 -1.2684  0.5518  1.1826
 5406TIP3    H237710   2.685   0.097   4.165 -0.9823  0.6162  1.0227
 5407TIP3   OH237711   1.778   6.414   5.687 -0.1330  0.2500 -0.0432
 5407TIP3    H137712   1.733   6.388   5.607 -0.7337  0.5995  0.1800
 5407TIP3    H237713   1.709   6.450   5.743 -0.1282 -1.9664  1.5024
 5408TIP3   OH237714   4.818   6.527  16.159 -0.2599  0.0893  0.3337
 5408TIP3    H137715   4.747   6.471  16.190  0.7501 -1.4919 -0.1406
 5408TIP3    H237716   4.893   6.504  16.214  0.0670  1.3100  0.4310
 5409TIP3   OH237717   3.141   2.857   3.637  0.2683 -0.0778 -0.3188
 5409TIP3    H137718   3.055   2.897   3.625  0.4693  1.5175  2.8914
 5409TIP3    H237719   3.203   2.929   3.622  1.0687 -1.1559 -2.3763
 5410TIP3   OH237720   3.521   0.992   3.130 -0.2825 -1.1417  0.0372
 5410TIP3    H137721   3.438   1.035   3.107  0.6766  0.6707 -0.1284
 5410TIP3    H237722   3.561   1.051   3.194  1.1436 -1.7232 -0.3209
 5411TIP3   OH237723   4.156   5.936   5.234  0.4726  0.3761  0.2866
 5411TIP3    H137724   4.090   5.988   5.188  0.4653 -0.2089 -0.3653
 5411TIP3    H237725   4.182   5.869   5.171  0.6228 -0.2947  1.0586
 5412TIP3   OH237726   1.591   2.966  11.252  0.1830  0.2792  0.2869
 5412TIP3    H137727   1.651   3.025  11.206 -0.4448  1.0716  0.4793
 5412TIP3    H237728   1.516   2.957  11.194 -0.7584  1.5481  1.2722
 5413TIP3   OH237729   5.769   6.629   1.039 -0.3301  0.4130  1.0778
 5413TIP3    H137730   5.674   6.619   1.035 -0.7355  3.8694  0.4308
 5413TIP3    H237731   5.795   6.650   0.949  0.8368  1.0945  1.5691
 5414TIP3   OH237732   0.674   2.913  10.715 -0.0585  0.1495  0.2400
 5414TIP3    H137733   0.733   2.972  10.762  0.8997  1.3489 -2.3713
 5414TIP3    H237734   0.719   2.828  10.716  1.6405  0.9834 -1.4524
 5415TIP3   OH237735   3.468   5.140   4.223 -0.5356 -0.4223  0.1003
 5415TIP3    H137736   3.489   5.234   4.225 -1.7178 -0.0466 -2.3666
 5415TIP3    H237737   3.551   5.096   4.241  0.7187  1.0908 -1.7305
 5416TIP3   OH237738   2.572   3.592  13.251 -0.4280 -0.4549 -0.1528
 5416TIP3    H137739   2.569   3.608  13.345 -0.1129  0.3957 -0.2827
 5416TIP3    H237740   2.494   3.539  13.233 -2.2763  2.0749  0.0985
 5417TIP3   OH237741   1.281   4.558  13.890 -0.3420 -0.0293  0.1540
 5417TIP3    H137742   1.303   4.548  13.798 -1.3594  0.1913 -0.1212
 5417TIP3    H237743   1.321   4.641  13.915 -1.9042  1.0047 -0.6780
 5418TIP3   OH237744   3.609   3.889   3.536  0.3570 -0.4617 -0.2533
 5418TIP3    H137745   3.655   3.845   3.606 -0.1029  2.1917  1.8028
 5418TIP3    H237746   3.610   3.982   3.561 -0.6957  0.4248 -3.2410
 5419TIP3   OH237747   5.661   1.512  12.796 -0.0754  0.6029 -0.6295
 5419TIP3    H137748   5.748   1.523  12.835 -0.4531  2.4066 -0.2599
 5419TIP3    H237749   5.645   1.594  12.749 -1.8913  0.5968 -0.0491
 5420TIP3   OH237750   4.513   0.320   3.360  0.4719 -0.7628  0.4403
 5420TIP3    H137751   4.454   0.360   3.424 -0.4200 -1.4500  0.0608
 5420TIP3    H237752   4.548   0.393   3.310 -0.4342 -0.3816  0.3487
 5421TIP3   OH237753   5.086   3.353  12.464  0.2574  0.3351 -0.4216
 5421TIP3    H137754   5.074   3.327  12.555  0.9808 -0.8718 -0.6677
 5421TIP3    H237755   4.997   3.361  12.429 -0.0748  2.3383  0.8020
 5422TIP3   OH237756   0.372   1.086  17.264 -0.0783 -0.6837  0.4521
 5422TIP3    H137757   0.320   1.005  17.261  0.3843 -0.9940  0.8753
 5422TIP3    H237758   0.355   1.128  17.179 -3.1361  0.5361  1.6010
 5423TIP3   OH237759   0.512   2.489  16.471  0.0563 -0.5157 -0.2502
 5423TIP3    H137760   0.520   2.398  16.441 -3.4096 -0.9605 -0.0782
 5423TIP3    H237761   0.449   2.528  16.411 -0.3301  1.0803  1.1587
 5424TIP3   OH237762   4.122   5.261   0.655 -0.2496 -0.6207 -0.7654
 5424TIP3    H137763   4.178   5.319   0.604  1.7766 -1.1797  0.7658
 5424TIP3    H237764   4.136   5.174   0.617 -3.5941 -0.1529 -3.3282
 5425TIP3   OH237765   1.543   5.013   0.161 -0.4636  0.1214 -0.0685
 5425TIP3    H137766   1.448   5.027   0.166 -0.4452 -0.3707  2.5944
 5425TIP3    H237767   1.580   5.100   0.177 -0.4766  0.2779 -0.9088
 5426TIP3   OH237768   6.438   5.628  16.242  0.0181  0.1083  0.1803
 5426TIP3    H137769   6.382   5.680  16.299  1.3706  0.0683  1.5723
 5426TIP3    H237770   6.516   5.683  16.229  1.1479 -1.2560  1.0842
 5427TIP3   OH237771   3.269   3.519   3.152 -0.1763  0.0706 -0.5273
 5427TIP3    H137772   3.221   3.483   3.226 -1.8518  0.2000 -1.5140
 5427TIP3    H237773   3.321   3.445   3.119  0.6407  0.0374  0.7936
 5428TIP3   OH237774   4.961   0.863  14.263 -0.2148 -0.3780  0.4406
 5428TIP3    H137775   5.038   0.865  14.207  1.3275  1.5785  2.5589
 5428TIP3    H237776   4.942   0.955  14.282 -2.2410 -0.8886  1.0883
 5429TIP3   OH237777   2.557   2.212   0.361  0.0314 -0.0867 -0.1778
 5429TIP3    H137778   2.562   2.131   0.310 -1.0170 -0.5578  0.4486
 5429TIP3    H237779   2.511   2.274   0.303 -0.6136 -0.4371 -0.0462
 5430TIP3   OH237780   4.547   3.544  14.969  0.3333  0.1098 -0.0616
 5430TIP3    H137781   4.639   3.569  14.973  0.2957  0.6276 -2.2073
 5430TIP3    H237782   4.542   3.478  14.900 -1.0144  0.5580 -0.4093
 5431TIP3   OH237783   4.474   2.746   3.612 -0.1500  0.4490 -0.1148
 5431TIP3    H137784   4.395   2.707   3.649  1.1640 -1.2351  0.9825
 5431TIP3    H237785   4.503   2.808   3.680 -0.3084  0.7637 -0.3362
 5432TIP3   OH237786   0.620   5.738   0.594  0.3565  0.3333  0.1052
 5432TIP3    H137787   0.552   5.797   0.625 -1.1267 -1.2536 -0.0858
 5432TIP3    H237788   0.693   5.796   0.571 -0.1406  1.8713  2.2750
 5433TIP3   OH237789   3.496   4.807  14.290 -0.2084  0.2808 -0.1456
 5433TIP3    H137790   3.402   4.812  14.277 -0.3283 -0.1980  0.5098
 5433TIP3    H237791   3.532   4.786  14.204 -0.5782  1.7868 -0.6906
 5434TIP3   OH237792   1.946   2.238  12.880 -0.0004 -0.3028 -0.5297
 5434TIP3    H137793   2.012   2.280  12.824  0.0065 -0.0004 -0.2982
 5434TIP3    H237794   1.887   2.196  12.818 -0.7827  1.2038 -0.8465
 5435TIP3   OH237795   1.587   6.684   5.788  0.1123 -0.1203 -0.2865
 5435TIP3    H137796   1.598   6.593   5.760  0.3338  0.0914 -0.8700
 5435TIP3    H237797   1.545   6.676   5.874 -0.4475 -0.7631 -0.6062
 5436TIP3   OH237798   4.139   5.883   1.622 -0.0802  0.0479 -0.1618
 5436TIP3    H137799   4.143   5.854   1.531 -0.0009 -0.9464  0.1463
 5436TIP3    H237800   4.046   5.893   1.640 -0.0797  0.5576 -0.4502
 5437TIP3   OH237801   4.471   3.670   4.987 -0.0049 -0.3284 -0.0897
 5437TIP3    H137802   4.409   3.684   4.915  0.0958 -1.5596 -0.4232
 5437TIP3    H237803   4.416   3.641   5.060  0.0875 -0.7630 -0.1888
 5438TIP3   OH237804   4.592   3.634   5.978 -0.5378  0.0861 -0.4091
 5438TIP3    H137805   4.645   3.580   6.037  0.7853 -0.0397 -1.6948
 5438TIP3    H237806   4.503   3.624   6.011 -0.0948 -1.5642  0.3614
 5439TIP3   OH237807   5.837   5.358  13.711 -0.2670  0.1373 -0.3293
 5439TIP3    H137808   5.872   5.302  13.641  1.0973 -0.5816  0.8936
 5439TIP3    H237809   5.776   5.301  13.758  1.5542 -0.5653  1.2708
 5440TIP3   OH237810   1.726   6.075  16.923 -0.1001 -0.7298 -0.5480
 5440TIP3    H137811   1.763   6.046  17.007  1.6969  0.3549 -0.9351
 5440TIP3    H237812   1.793   6.052  16.858 -1.0423 -0.6553 -1.5549
 5441TIP3   OH237813   0.367   2.153  17.253  0.1260  0.1312  0.4700
 5441TIP3    H137814   0.419   2.167  17.173  0.1791 -0.4287  0.4096
 5441TIP3    H237815   0.405   2.214  17.316 -0.4662  1.2011 -0.1843
 5442TIP3   OH237816   3.848   1.963  12.832 -0.1592  0.1267  0.0469
 5442TIP3    H137817   3.887   1.877  12.840 -0.2917  0.1689  1.3968
 5442TIP3    H237818   3.773   1.961  12.892 -0.8407  0.8038 -0.7595
 5443TIP3   OH237819   2.146   2.155   6.051  0.0177  0.2841 -0.5310
 5443TIP3    H137820   2.071   2.148   5.991 -0.5706 -0.3136  0.2670
 5443TIP3    H237821   2.194   2.073   6.040 -2.5022 -1.8133  2.9818
 5444TIP3   OH237822   3.932   0.091   5.919 -0.3938 -0.1702 -0.2190
 5444TIP3    H137823   3.896   0.180   5.914  0.6841  0.2296 -1.3624
 5444TIP3    H237824   3.856   0.034   5.923 -1.1253  0.7438 -0.8915
 5445TIP3   OH237825   5.145   1.977  13.145  0.1549  0.1753  0.0922
 5445TIP3    H137826   5.142   1.916  13.072  0.4365  0.9393 -0.5724
 5445TIP3    H237827   5.115   2.060  13.108 -1.5481  0.1198  1.3229
 5446TIP3   OH237828   6.486   5.698  16.796 -0.5612 -0.2323  0.0954
 5446TIP3    H137829   6.415   5.676  16.857 -0.3848 -1.7250 -0.2333
 5446TIP3    H237830   6.454   5.775  16.750 -1.5321 -0.2720  0.6811
 5447TIP3   OH237831   4.359   0.963   2.753 -0.0302 -0.5303  0.0759
 5447TIP3    H137832   4.372   0.892   2.816  1.6950 -0.8169 -0.5621
 5447TIP3    H237833   4.341   1.040   2.807 -1.8853 -1.4355  0.7753
 5448TIP3   OH237834   0.075   0.511  13.737 -0.1130 -0.4574  0.5830
 5448TIP3    H137835   0.088   0.436  13.795 -1.6347 -0.8870  0.3963
 5448TIP3    H237836   0.097   0.480  13.650 -0.7667 -0.7110  0.5022
 5449TIP3   OH237837   4.403   6.157  11.845  0.5935 -0.0018  0.2624
 5449TIP3    H137838   4.332   6.143  11.907 -1.0792  0.8190 -1.4016
 5449TIP3    H237839   4.445   6.238  11.873  1.3017 -0.8415  1.6404
 5450TIP3   OH237840   5.763   3.794   2.800 -0.4147 -0.1007 -0.0783
 5450TIP3    H137841   5.780   3.751   2.884 -0.5913  1.9651  1.0416
 5450TIP3    H237842   5.847   3.789   2.753  0.2527  0.4440  1.0296
 5451TIP3   OH237843   6.629   4.058   1.551  0.0081  0.4179 -0.0019
 5451TIP3    H137844   6.660   3.967   1.558  0.9063  0.7117 -0.1461
 5451TIP3    H237845   6.618   4.072   1.457 -1.4049  0.0396  0.0967
 5452TIP3   OH237846   1.489   0.052  12.599  0.8003  0.2859  0.0017
 5452TIP3    H137847   1.414   0.048  12.539 -0.2952 -0.9081  1.4093
 5452TIP3    H237848   1.497   0.145  12.620  1.2513  0.7398 -2.0411
 5453TIP3   OH237849   4.433   0.792  14.318 -0.5676 -0.0056 -0.1873
 5453TIP3    H137850   4.483   0.770  14.239 -0.7573  0.7283 -0.5154
 5453TIP3    H237851   4.442   0.715  14.374 -1.4362 -1.0181 -1.4232
 5454TIP3   OH237852   1.198   6.175   1.346  0.2464 -0.1161 -0.1827
 5454TIP3    H137853   1.193   6.231   1.269 -0.6433  0.3924  0.2215
 5454TIP3    H237854   1.288   6.185   1.378  0.7660 -0.7464 -1.4450
 5455TIP3   OH237855   6.550   4.128   1.990 -0.1035  0.2721  0.4263
 5455TIP3    H137856   6.575   4.049   1.941  0.1986 -0.8440  2.3143
 5455TIP3    H237857   6.539   4.195   1.923  0.7847 -1.0787 -1.1199
 5456TIP3   OH237858   0.536   6.135  15.465 -0.2057 -0.0134 -0.1375
 5456TIP3    H137859   0.585   6.067  15.511  0.0992  1.7723  2.3271
 5456TIP3    H237860   0.603   6.187  15.420 -0.2586 -0.1697 -0.3986
 5457TIP3   OH237861   6.627   3.998   2.626 -0.4579  0.0427  0.5889
 5457TIP3    H137862   6.617   3.976   2.533 -1.4070  0.0154  0.6847
 5457TIP3    H237863   6.557   4.062   2.642  0.4026  0.8842  1.0209
 5458TIP3   OH237864   2.862   1.371   3.959 -0.2848  0.5252  0.0880
 5458TIP3    H137865   2.825   1.339   4.041  0.9793  0.5350  0.6763
 5458TIP3    H237866   2.786   1.392   3.905 -1.1796 -2.4952  0.0492
 5459TIP3   OH237867   5.446   1.393  12.473  0.1549 -0.5553 -0.0124
 5459TIP3    H137868   5.467   1.483  12.498  0.7084 -0.4038 -1.0306
 5459TIP3    H237869   5.455   1.343  12.555  1.2351  0.0704  0.2562
 5460TIP3   OH237870   1.455   0.198  13.802 -0.4351  0.1582 -0.2305
 5460TIP3    H137871   1.540   0.164  13.775 -0.3886  0.1384 -0.0627
 5460TIP3    H237872   1.470   0.291  13.817 -0.4453  0.1574 -0.2139
 5461TIP3   OH237873   0.613   6.318   1.054 -0.2030 -0.4646 -0.1204
 5461TIP3    H137874   0.570   6.248   1.004  0.5676 -1.1831  0.2044
 5461TIP3    H237875   0.689   6.342   1.001 -0.8918  0.6816 -0.6078
 5462TIP3   OH237876   3.532   4.108   1.512  0.4239  0.3752 -0.4257
 5462TIP3    H137877   3.545   4.147   1.598 -0.9885 -0.0581 -0.0019
 5462TIP3    H237878   3.594   4.036   1.508 -0.5830 -0.5850  0.8637
 5463TIP3   OH237879   3.776   5.436  11.781 -0.0382  0.1094  0.3263
 5463TIP3    H137880   3.750   5.346  11.797  0.3022  0.2207  1.5773
 5463TIP3    H237881   3.868   5.430  11.754  0.2153  0.1355  1.1704
 5464TIP3   OH237882   3.013   5.360   3.380 -0.5920 -0.0105  0.1892
 5464TIP3    H137883   2.976   5.362   3.292 -2.4364 -0.8392  0.9287
 5464TIP3    H237884   3.099   5.320   3.369 -0.2500  1.0798 -1.4107
 5465TIP3   OH237885   1.175   4.682   1.009  0.1355  0.0766  0.0016
 5465TIP3    H137886   1.240   4.718   1.069  0.5389 -1.0019  0.2194
 5465TIP3    H237887   1.096   4.731   1.027  1.0146  1.7720 -0.6281
 5466TIP3   OH237888   1.438   4.901   5.591 -0.5043 -0.1162  0.3236
 5466TIP3    H137889   1.373   4.919   5.659  0.3004  0.2478  1.0028
 5466TIP3    H237890   1.494   4.979   5.590  0.4593 -0.7987  0.3708
 5467TIP3   OH237891   6.138   3.857  17.278 -0.2058 -0.2118  0.6443
 5467TIP3    H137892   6.078   3.870  17.352 -1.7721  1.6879 -0.8876
 5467TIP3    H237893   6.127   3.936  17.225  0.0811 -1.9983 -2.1714
 5468TIP3   OH237894   0.362   5.025   2.068 -0.7745 -0.1250  0.1596
 5468TIP3    H137895   0.443   5.071   2.046 -0.6517 -1.0124 -1.2816
 5468TIP3    H237896   0.366   5.013   2.163  0.2470  0.8319  0.2440
 5469TIP3   OH237897   1.920   3.060   5.069  0.3134  0.1677  0.4511
 5469TIP3    H137898   1.913   3.155   5.065  1.0968  0.2975  2.2152
 5469TIP3    H237899   1.987   3.038   5.004  2.7478  1.1343  2.5518
 5470TIP3   OH237900   0.210   2.404   0.699 -0.1464 -0.1706 -0.1433
 5470TIP3    H137901   0.136   2.459   0.675 -2.0910 -2.3456  0.7145
 5470TIP3    H237902   0.197   2.323   0.651  2.9958  0.2312 -1.8578
 5471TIP3   OH237903   0.638   5.602   3.615 -0.0621  0.0509  0.1554
 5471TIP3    H137904   0.585   5.557   3.549  1.3154  0.6408 -1.3948
 5471TIP3    H237905   0.727   5.599   3.580  0.2895  2.7277  0.6848
 5472TIP3   OH237906   5.059   1.413   6.649 -0.3699 -0.6719  0.2188
 5472TIP3    H137907   5.086   1.341   6.707  0.4513 -1.2789 -0.9110
 5472TIP3    H237908   5.127   1.479   6.659  0.0149 -0.9759 -0.4218
 5473TIP3   OH237909   5.876   3.295  12.167 -0.0686  0.1479 -0.4842
 5473TIP3    H137910   5.854   3.252  12.250  2.0779 -0.0854  0.0024
 5473TIP3    H237911   5.906   3.382  12.192 -0.8266  0.6126 -1.1596
 5474TIP3   OH237912   1.809   6.617  14.487 -0.2891 -0.3145 -0.2579
 5474TIP3    H137913   1.797   6.694  14.432 -0.7552 -0.1857  0.0256
 5474TIP3    H237914   1.722   6.579  14.495 -0.0204 -1.0506 -0.6488
 5475TIP3   OH237915   2.730   2.635  14.118  0.0025  0.3503 -0.8026
 5475TIP3    H137916   2.749   2.673  14.032  1.7061  0.7016 -0.2821
 5475TIP3    H237917   2.814   2.634  14.163 -0.6984 -0.7235  0.5193
 5476TIP3   OH237918   0.569   1.946  15.274  0.1419 -0.9884 -0.6847
 5476TIP3    H137919   0.607   1.997  15.203 -2.2438 -0.7488 -1.8455
 5476TIP3    H237920   0.636   1.946  15.343  1.1966  1.5046 -1.6752
 5477TIP3   OH237921   4.999   5.877  12.962 -0.4438  0.2016 -0.0639
 5477TIP3    H137922   5.013   5.816  12.889 -2.1917 -1.2193  0.7379
 5477TIP3    H237923   5.082   5.878  13.009 -0.0793 -0.7894 -0.6675
 5478TIP3   OH237924   3.458   6.510  14.086 -0.0002  0.2703  0.7053
 5478TIP3    H137925   3.407   6.496  14.006  1.1421  0.0567  0.0132
 5478TIP3    H237926   3.394   6.497  14.157 -1.6635  3.0193 -0.1821
 5479TIP3   OH237927   3.451   6.113   4.850  0.0850  0.4481  0.6161
 5479TIP3    H137928   3.425   6.141   4.937  1.3771 -0.6582  1.3738
 5479TIP3    H237929   3.402   6.170   4.791 -2.6457 -0.3800  2.0090
 5480TIP3   OH237930   2.589   2.278  12.665 -0.5797  0.0721  0.3999
 5480TIP3    H137931   2.608   2.366  12.698 -0.5001 -0.5567  2.0896
 5480TIP3    H237932   2.544   2.293  12.582 -0.5836  1.6989  0.6680
 5481TIP3   OH237933   3.260   5.812  15.740  0.1023  0.0586 -0.0219
 5481TIP3    H137934   3.333   5.766  15.781  0.5572  2.2649  1.7349
 5481TIP3    H237935   3.217   5.746  15.686  1.7115 -1.9797  1.1277
 5482TIP3   OH237936   4.593   2.392   3.175 -0.1591 -0.4421 -0.1566
 5482TIP3    H137937   4.525   2.414   3.111  0.4354 -0.6384 -0.8674
 5482TIP3    H237938   4.561   2.313   3.218 -1.0080  0.2298  0.4629
 5483TIP3   OH237939   4.033   0.289   3.374  0.2974  0.3301 -0.1882
 5483TIP3    H137940   3.964   0.302   3.309 -0.1178 -1.8995 -0.2459
 5483TIP3    H237941   4.046   0.375   3.413 -1.4997  1.0864 -1.1877
 5484TIP3   OH237942   4.328   2.363  11.006 -0.8000 -0.2752  0.3722
 5484TIP3    H137943   4.333   2.323  10.919 -0.7913 -0.9270  0.6740
 5484TIP3    H237944   4.359   2.296  11.066  0.7349  0.7147  0.7200
 5485TIP3   OH237945   6.420   0.677   4.456 -0.1657 -0.3918  0.6909
 5485TIP3    H137946   6.475   0.652   4.530 -1.9817  1.0163  2.5687
 5485TIP3    H237947   6.342   0.622   4.465 -1.2527  1.1769  0.9733
 5486TIP3   OH237948   5.773   0.296   2.954 -0.0098  0.6811 -0.3791
 5486TIP3    H137949   5.793   0.281   2.862  1.2607 -0.5424  0.0647
 5486TIP3    H237950   5.678   0.308   2.958 -0.4594 -2.3207 -1.4581
 5487TIP3   OH237951   4.497   4.160   0.446 -0.4927  0.1369 -0.1329
 5487TIP3    H137952   4.449   4.160   0.529 -1.3460  2.9085 -0.5707
 5487TIP3    H237953   4.535   4.248   0.441  2.8737 -1.2774 -0.8454
 5488TIP3   OH237954   4.639   4.002  11.282  0.2868  0.5207 -0.3737
 5488TIP3    H137955   4.670   3.944  11.352 -0.5828  1.1681  0.5476
 5488TIP3    H237956   4.714   4.010  11.223  1.2141  0.4474  0.7884
 5489TIP3   OH237957   3.791   2.701  12.233  0.1268 -0.4767 -0.1794
 5489TIP3    H137958   3.758   2.787  12.258 -0.1864 -0.5283 -0.4054
 5489TIP3    H237959   3.747   2.681  12.150  0.6958 -0.5725 -0.4575
 5490TIP3   OH237960   0.088   2.281   5.148 -0.4160 -0.1838  0.3749
 5490TIP3    H137961   0.117   2.193   5.172 -1.9942 -1.3478 -1.7697
 5490TIP3    H237962   0.141   2.304   5.072 -1.4400 -0.1849 -0.3623
 5491TIP3   OH237963   0.367   2.257   4.607  0.3665  0.2289 -0.4294
 5491TIP3    H137964   0.412   2.272   4.690  0.4023  0.6640 -0.5267
 5491TIP3    H237965   0.423   2.196   4.560  0.6303  0.4244 -0.3684
 5492TIP3   OH237966   1.999   5.921   4.442 -0.6148  0.8900 -0.0522
 5492TIP3    H137967   2.050   5.994   4.405 -0.5568 -0.0028 -1.7786
 5492TIP3    H237968   2.063   5.851   4.456 -1.2816 -0.1471 -1.9915
 5493TIP3   OH237969   0.397   6.334  12.828  0.1469  0.0052 -0.3558
 5493TIP3    H137970   0.360   6.392  12.762 -1.4956 -0.4588  0.1449
 5493TIP3    H237971   0.414   6.392  12.903  0.2194  0.1798 -0.5075
 5494TIP3   OH237972   0.392   0.278  16.516 -0.1794  0.0807  0.2511
 5494TIP3    H137973   0.389   0.239  16.429 -1.0232  1.2123 -0.2528
 5494TIP3    H237974   0.483   0.306  16.526 -0.3544  1.0974 -0.8119
 5495TIP3   OH237975   4.234   0.291   1.066  0.7667 -0.4699 -0.1842
 5495TIP3    H137976   4.326   0.299   1.042  1.1210  0.9205  1.4874
 5495TIP3    H237977   4.229   0.213   1.120  1.2179  0.1716  0.7953
 5496TIP3   OH237978   5.735   1.631  11.927  0.0246  0.2299 -0.4626
 5496TIP3    H137979   5.799   1.617  11.997  0.3513  0.7948 -0.6446
 5496TIP3    H237980   5.786   1.667  11.855 -0.2526 -0.6457 -1.1071
 5497TIP3   OH237981   5.078   1.741   0.341  0.0762 -0.7851 -0.1612
 5497TIP3    H137982   5.102   1.731   0.249  2.2556 -2.3414  0.5404
 5497TIP3    H237983   5.091   1.834   0.359 -2.3783 -0.0667 -1.9421
 5498TIP3   OH237984   5.393   6.807   1.300 -0.1035 -0.3078  0.0974
 5498TIP3    H137985   5.382   6.721   1.340 -0.3588 -0.0230  0.6467
 5498TIP3    H237986   5.332   6.807   1.226  0.6242 -0.9636 -0.4979
 5499TIP3   OH237987   5.023   1.275   1.027 -0.2080  0.0470  0.1309
 5499TIP3    H137988   5.052   1.340   0.963 -0.7646  1.4360  1.2866
 5499TIP3    H237989   5.037   1.316   1.112 -0.2788 -1.4600  0.8845
 5500TIP3   OH237990   0.220   1.153   1.077 -0.1989 -0.3428 -0.0822
 5500TIP3    H137991   0.141   1.203   1.054  0.2321 -0.2170 -1.3386
 5500TIP3    H237992   0.250   1.191   1.159 -1.0920  0.0193  0.0848
 5501TIP3   OH237993   3.219   6.280   5.241 -0.2486 -0.0965 -0.3892
 5501TIP3    H137994   3.201   6.238   5.325 -0.3510  1.9289  0.6447
 5501TIP3    H237995   3.153   6.350   5.235  1.6463  1.7014 -0.7218
 5502TIP3   OH237996   1.383   3.794  14.818  0.0270  0.0551  0.4321
 5502TIP3    H137997   1.458   3.747  14.783  0.5038 -2.2043  4.1833
 5502TIP3    H237998   1.307   3.743  14.789  0.3578 -1.1668  1.6207
 5503TIP3   OH237999   6.616   6.659  16.159  0.0068 -0.0962 -0.9830
 5503TIP3    H138000   6.675   6.593  16.195  0.4905  0.1084 -1.3982
 5503TIP3    H238001   6.539   6.654  16.215  0.1315 -0.8462 -0.8629
 5504TIP3   OH238002   4.526   5.648  15.936  0.3812 -0.2859 -0.2050
 5504TIP3    H138003   4.612   5.633  15.975  0.2632  1.5745  0.8450
 5504TIP3    H238004   4.496   5.561  15.910  2.2955 -1.0317  0.0092
 5505TIP3   OH238005   2.966   3.326   5.611  0.2966  0.1901 -0.6337
 5505TIP3    H138006   3.046   3.274   5.601  0.0519 -0.3602  0.2586
 5505TIP3    H238007   2.994   3.404   5.659  0.0122 -0.7173  1.0300
 5506TIP3   OH238008   3.182   3.387   3.366 -0.1508 -0.5988  0.7205
 5506TIP3    H138009   3.142   3.307   3.331  1.8420 -1.8364  1.2020
 5506TIP3    H238010   3.272   3.362   3.386  0.4884  1.7625  0.9475
 5507TIP3   OH238011   2.029   4.050  14.038 -0.7740 -0.1679  0.9353
 5507TIP3    H138012   2.065   3.962  14.032 -0.1205 -0.1239  3.5444
 5507TIP3    H238013   2.102   4.104  14.067 -1.4130  1.0752  0.2910
 5508TIP3   OH238014   5.448   1.997  13.335  0.0384  0.5800 -0.6143
 5508TIP3    H138015   5.466   2.069  13.274  0.4322  0.4161 -0.6934
 5508TIP3    H238016   5.519   1.935  13.319 -0.2170  0.2440 -0.4362
 5509TIP3   OH238017   6.593   2.659   3.562  0.1058 -0.1188 -0.0736
 5509TIP3    H138018   6.563   2.617   3.482 -1.5086  0.1310  0.3722
 5509TIP3    H238019   6.534   2.734   3.574  1.1753  0.6488  0.6243
 5510TIP3   OH238020   2.955   5.482   4.532  0.4832  0.2979  0.3582
 5510TIP3    H138021   2.897   5.528   4.592 -0.8678  0.6571 -1.2007
 5510TIP3    H238022   2.931   5.514   4.445  1.8302 -0.8385 -0.4584
 5511TIP3   OH238023   1.755   5.382   0.454  0.0723  0.8238  0.4568
 5511TIP3    H138024   1.736   5.475   0.467 -2.3841  0.1107  2.3751
 5511TIP3    H238025   1.732   5.341   0.537  3.5670 -1.2011  0.5465
 5512TIP3   OH238026   6.779   6.201  15.367 -0.1312 -0.2038  0.1365
 5512TIP3    H138027   6.769   6.114  15.328  0.9132 -1.2174  2.0667
 5512TIP3    H238028   6.864   6.232  15.335 -0.5906  0.2199 -0.7087
 5513TIP3   OH238029   6.031   0.251   4.731 -0.1574  0.0250  0.0202
 5513TIP3    H138030   6.026   0.294   4.645  1.5173  0.7866  0.2697
 5513TIP3    H238031   6.054   0.322   4.791 -1.8677 -0.4059  1.1991
 5514TIP3   OH238032   0.259   0.525   4.130 -0.3587 -0.2061  0.7069
 5514TIP3    H138033   0.167   0.529   4.154 -0.9585  0.4436 -1.5873
 5514TIP3    H238034   0.278   0.431   4.122 -0.9675 -0.3243  0.6456
 5515TIP3   OH238035   6.583   1.737   3.774  0.2745  0.1013 -0.3003
 5515TIP3    H138036   6.562   1.773   3.861 -1.2470 -1.1120 -0.1499
 5515TIP3    H238037   6.500   1.735   3.728  0.7671 -0.9443 -1.1681
 5516TIP3   OH238038   2.290   5.903   5.651 -0.0290 -0.2614 -0.1135
 5516TIP3    H138039   2.218   5.876   5.709 -0.8597 -0.5547 -1.2527
 5516TIP3    H238040   2.291   5.998   5.656  1.0019 -0.3431  1.6681
 5517TIP3   OH238041   4.133   3.364  12.374 -0.1736 -0.3316  0.6842
 5517TIP3    H138042   4.204   3.357  12.310 -1.0288 -0.7232 -0.2467
 5517TIP3    H238043   4.076   3.289  12.355 -2.8522  2.0492 -1.1466
 5518TIP3   OH238044   4.793   4.213  12.078  0.2788  0.1387  0.0567
 5518TIP3    H138045   4.830   4.241  11.994  0.2120 -0.2193 -0.0904
 5518TIP3    H238046   4.869   4.194  12.133  0.3308  0.7811  0.2176
 5519TIP3   OH238047   1.858   5.707   5.591  0.6179 -0.1941  0.1734
 5519TIP3    H138048   1.938   5.727   5.543  0.7160  1.4309  0.9713
 5519TIP3    H238049   1.867   5.755   5.674 -1.1675  0.0084  0.2725
 5520TIP3   OH238050   5.823   2.298  13.014  0.0917 -0.5632  0.3993
 5520TIP3    H138051   5.897   2.255  12.970  2.4037  2.7123  0.8846
 5520TIP3    H238052   5.861   2.336  13.093 -2.4400  0.0184  1.3765
 5521TIP3   OH238053   1.327   4.286  13.871  0.1657  0.2972  0.3623
 5521TIP3    H138054   1.347   4.258  13.961  1.0872 -0.0582  0.0471
 5521TIP3    H238055   1.290   4.374  13.882  0.8472  0.5076  1.0494
 5522TIP3   OH238056   0.122   0.207   0.096  0.0108 -0.0187  0.2864
 5522TIP3    H138057   0.143   0.292   0.059  1.9254 -0.7110 -0.2693
 5522TIP3    H238058   0.168   0.204   0.180  2.8042 -1.7888 -1.2270
 5523TIP3   OH238059   6.285   2.351  12.629 -0.0153 -0.0762  0.1930
 5523TIP3    H138060   6.246   2.369  12.543 -0.8848 -0.7432  0.4421
 5523TIP3    H238061   6.358   2.413  12.636  0.1196 -0.0877 -1.0700
 5524TIP3   OH238062   6.532   0.578   5.986  0.5369  0.4134 -0.1326
 5524TIP3    H138063   6.457   0.562   6.043  2.0990 -1.1363  1.5246
 5524TIP3    H238064   6.585   0.643   6.032  1.2991 -0.0934 -0.2774
 5525TIP3   OH238065   3.238   5.437  15.665 -0.5574  0.1073 -0.5957
 5525TIP3    H138066   3.325   5.408  15.637 -0.6579 -0.1128 -0.6770
 5525TIP3    H238067   3.192   5.357  15.687  0.6080  0.4322  3.4285
 5526TIP3   OH238068   6.784   0.624  14.089 -0.4117 -0.3072  0.7040
 5526TIP3    H138069   6.707   0.680  14.084 -0.5756 -0.6331 -0.5519
 5526TIP3    H238070   6.856   0.680  14.062 -0.6890 -0.9123 -1.3183
 5527TIP3   OH238071   4.570   6.606   0.111  0.0538 -0.7032 -0.2519
 5527TIP3    H138072   4.486   6.561   0.104 -1.5982  2.0259  0.8884
 5527TIP3    H238073   4.589   6.606   0.205  0.4192  0.2423 -0.3178
 5528TIP3   OH238074   6.598   4.797  11.767  0.0033 -0.5028 -0.0156
 5528TIP3    H138075   6.634   4.791  11.678 -0.9501  0.1971 -0.4595
 5528TIP3    H238076   6.597   4.890  11.786 -1.9241 -0.4653 -0.1751
 5529TIP3   OH238077   4.264   5.618   0.407 -0.9956  0.0116 -0.2432
 5529TIP3    H138078   4.316   5.615   0.327  0.8701  0.8986  0.9185
 5529TIP3    H238079   4.237   5.710   0.414  0.4360  0.3342  1.1439
 5530TIP3   OH238080   0.932   5.402  14.039 -0.7191 -0.6866  0.7796
 5530TIP3    H138081   1.012   5.455  14.043 -2.8113  2.4513  4.2593
 5530TIP3    H238082   0.890   5.428  13.957  1.4425 -1.9166 -0.7802
 5531TIP3   OH238083   3.618   5.277   3.405  0.3924  0.2186 -0.0473
 5531TIP3    H138084   3.542   5.237   3.362  1.7465 -0.2421 -2.0580
 5531TIP3    H238085   3.655   5.206   3.458  0.4384 -0.0669 -0.4558
 5532TIP3   OH238086   4.838   5.083  13.404  0.0869 -0.3778  0.3022
 5532TIP3    H138087   4.753   5.121  13.426  0.5562  0.2584  1.0441
 5532TIP3    H238088   4.852   5.015  13.469 -0.8510 -2.0046 -1.1575
 5533TIP3   OH238089   3.681   2.374  12.051 -0.3009 -0.0927  0.1653
 5533TIP3    H138090   3.634   2.303  12.094 -1.6427  0.0376 -1.0698
 5533TIP3    H238091   3.768   2.373  12.092 -0.3462 -2.3448  0.2657
 5534TIP3   OH238092   2.250   5.392   2.984 -0.4372  0.7069 -0.0399
 5534TIP3    H138093   2.302   5.357   3.056  0.8318  1.0562 -0.7771
 5534TIP3    H238094   2.160   5.372   3.008  0.1841 -2.5295 -0.1413
 5535TIP3   OH238095   2.973   5.654   2.775 -0.3106  0.0406  0.3519
 5535TIP3    H138096   2.968   5.559   2.764 -1.2341 -0.2368  2.7945
 5535TIP3    H238097   2.947   5.668   2.866 -0.3874  2.6612 -0.0592
 5536TIP3   OH238098   5.542   4.248  14.805 -0.7310  0.5791  0.0793
 5536TIP3    H138099   5.573   4.332  14.772  1.5527 -0.0423  0.5075
 5536TIP3    H238100   5.491   4.270  14.883 -0.4060  1.5951  0.0152
 5537TIP3   OH238101   4.496   5.575   1.729  0.7271  0.6198  0.0439
 5537TIP3    H138102   4.511   5.662   1.691 -0.5406  0.3998 -0.9815
 5537TIP3    H238103   4.521   5.514   1.659 -0.1640  0.1891  0.0987
 5538TIP3   OH238104   1.772   6.372  14.955  0.8530 -0.3919  0.1566
 5538TIP3    H138105   1.817   6.411  14.881 -0.9159 -0.0294 -0.7710
 5538TIP3    H238106   1.810   6.285  14.963  3.1401  0.6261  0.7197
 5539TIP3   OH238107   5.978   3.189  16.849 -0.1496  0.2168  0.0141
 5539TIP3    H138108   6.047   3.253  16.828 -0.0721  0.3320  0.6192
 5539TIP3    H238109   6.006   3.109  16.805  0.3652  0.2685  0.2478
 5540TIP3   OH238110   4.464   4.190   2.674 -0.2313  0.4371  0.0881
 5540TIP3    H138111   4.421   4.271   2.699  1.6269  1.8620 -1.1764
 5540TIP3    H238112   4.430   4.171   2.586  0.4588  0.6911 -0.2420
 5541TIP3   OH238113   1.402   1.849   2.591  0.4835 -0.6035  0.0976
 5541TIP3    H138114   1.358   1.930   2.566 -0.0718 -0.9401 -0.0142
 5541TIP3    H238115   1.357   1.780   2.542 -0.7002 -1.2865  2.0655
 5542TIP3   OH238116   5.257   6.513   4.727  0.6736  0.7482 -0.2765
 5542TIP3    H138117   5.251   6.547   4.638 -1.9754  2.0617  0.3547
 5542TIP3    H238118   5.274   6.590   4.781  0.1557  0.2805  0.5678
 5543TIP3   OH238119   2.737   3.719  11.465  0.4012  0.0053  0.0102
 5543TIP3    H138120   2.719   3.625  11.466  0.3901  0.0014 -0.3936
 5543TIP3    H238121   2.698   3.751  11.546  0.1536 -0.2936  0.0149
 5544TIP3   OH238122   4.001   3.529   1.825  0.1399 -0.4274  0.3596
 5544TIP3    H138123   4.064   3.502   1.759  0.7101  0.3842  0.5611
 5544TIP3    H238124   4.025   3.478   1.903  1.8019  1.2970  1.0161
 5545TIP3   OH238125   3.837   4.438   5.457 -0.1286  0.4995  0.0813
 5545TIP3    H138126   3.835   4.477   5.545  1.6870 -1.2210  0.9346
 5545TIP3    H238127   3.782   4.360   5.464  2.7710 -1.5850  0.7401
 5546TIP3   OH238128   5.587   6.032  13.050  0.4663  0.2417 -0.2979
 5546TIP3    H138129   5.544   6.098  12.996 -0.4732  0.1412  0.3151
 5546TIP3    H238130   5.674   6.067  13.065  0.8785  0.0893 -2.1985
 5547TIP3   OH238131   1.395   3.451  13.876  0.1550  0.0953  0.5043
 5547TIP3    H138132   1.362   3.457  13.966 -0.5427  0.8437  0.1981
 5547TIP3    H238133   1.377   3.536  13.838  0.3848 -0.2470 -0.3743
 5548TIP3   OH238134   6.331   3.351   4.140 -0.2816 -0.4010 -0.5694
 5548TIP3    H138135   6.256   3.304   4.103 -1.1695  1.6873 -1.4741
 5548TIP3    H238136   6.292   3.423   4.189  0.9801 -1.7783  2.5916
 5549TIP3   OH238137   4.626   0.036  12.388  0.3686 -0.1507  0.5808
 5549TIP3    H138138   4.566   0.020  12.460  0.1744  0.1655  0.4912
 5549TIP3    H238139   4.573   0.025  12.309  0.6215 -0.6629  0.4816
 5550TIP3   OH238140   2.098   6.451  11.533 -0.3863 -0.4433 -0.0358
 5550TIP3    H138141   2.085   6.455  11.628 -0.9289 -1.0452 -0.0821
 5550TIP3    H238142   2.030   6.508  11.497 -1.8841 -2.2891 -0.1931
 5551TIP3   OH238143   3.811   5.550  16.990 -0.4253  0.0667 -0.0245
 5551TIP3    H138144   3.842   5.622  16.934  0.2421  0.4464  0.8151
 5551TIP3    H238145   3.727   5.580  17.024  0.9045  1.4656  2.1479
 5552TIP3   OH238146   6.339   6.296   1.963 -0.5493  0.1307 -0.5385
 5552TIP3    H138147   6.402   6.356   2.005  0.1635  1.0395 -2.8377
 5552TIP3    H238148   6.385   6.263   1.886 -2.8260  0.6886 -2.1771
 5553TIP3   OH238149   4.319   2.798  16.323  0.0234 -0.1583 -0.0886
 5553TIP3    H138150   4.358   2.749  16.395 -1.3971  0.7375  1.2883
 5553TIP3    H238151   4.391   2.807  16.259  0.9689 -1.8850  0.7125
 5554TIP3   OH238152   1.244   6.142   6.816 -0.5339  0.2261  0.4777
 5554TIP3    H138153   1.309   6.103   6.874 -1.4154 -0.7967  0.7856
 5554TIP3    H238154   1.266   6.235   6.814  0.9081 -0.1086  0.6108
 5555TIP3   OH238155   0.530   3.518  13.827  0.3363  0.4212  0.1498
 5555TIP3    H138156   0.569   3.441  13.785 -0.1429 -0.9308  2.1122
 5555TIP3    H238157   0.436   3.508  13.811  0.4023  1.4170 -0.8961
 5556TIP3   OH238158   0.947   0.839  10.869  0.3580  0.2052 -0.6504
 5556TIP3    H138159   0.946   0.773  10.938  1.8869 -1.9387 -2.6198
 5556TIP3    H238160   0.855   0.864  10.859 -0.2474 -1.7093  0.0295
 5557TIP3   OH238161   6.340   5.133   3.975 -0.1037  0.0364 -0.1259
 5557TIP3    H138162   6.324   5.201   3.909  0.9330  0.2719 -0.1380
 5557TIP3    H238163   6.265   5.138   4.033 -0.5979  0.4235 -0.7865
 5558TIP3   OH238164   0.719   0.814  16.368  0.2153 -0.0415  0.3646
 5558TIP3    H138165   0.667   0.754  16.314 -0.9382 -0.0807  1.4753
 5558TIP3    H238166   0.695   0.791  16.458  1.3367  0.7030  0.8617
 5559TIP3   OH238167   6.771   1.635   2.706  0.8549 -0.3854 -0.6623
 5559TIP3    H138168   6.727   1.702   2.759  0.2142 -2.3629  1.3510
 5559TIP3    H238169   6.856   1.623   2.747  0.2908 -2.0510  0.0354
 5560TIP3   OH238170   4.785   5.842   5.812  0.3411  0.3760 -0.3838
 5560TIP3    H138171   4.746   5.908   5.755 -1.4251 -0.8392 -0.6148
 5560TIP3    H238172   4.799   5.766   5.756 -0.2546 -0.4086  0.5014
 5561TIP3   OH238173   5.753   2.114  16.785  0.3204 -0.4835  0.2900
 5561TIP3    H138174   5.670   2.149  16.816  0.0019  0.3611 -1.5139
 5561TIP3    H238175   5.777   2.048  16.851 -0.1768  1.5098  2.5384
 5562TIP3   OH238176   2.418   3.912  10.876 -0.8175 -0.1917  0.2499
 5562TIP3    H138177   2.497   3.906  10.822 -0.5235  0.1264  0.6414
 5562TIP3    H238178   2.451   3.905  10.966 -1.1010  1.2289  0.4697
 5563TIP3   OH238179   0.567   5.708  13.543  0.4865 -0.0915  0.2055
 5563TIP3    H138180   0.657   5.696  13.573  0.6421 -0.5157 -0.4285
 5563TIP3    H238181   0.548   5.800  13.561  1.6495  0.4525 -1.2601
 5564TIP3   OH238182   4.332   4.060   2.927 -0.4495 -0.0951 -0.1278
 5564TIP3    H138183   4.326   4.036   3.019  0.6795  1.3220  0.3243
 5564TIP3    H238184   4.307   3.981   2.880 -1.5845 -0.6643  1.3954
 5565TIP3   OH238185   1.061   6.773  15.877 -0.1102 -0.4430 -0.0513
 5565TIP3    H138186   1.046   6.868  15.877  0.0411 -0.4127 -1.3612
 5565TIP3    H238187   0.996   6.738  15.817  0.7368 -1.0130 -0.6515
 5566TIP3   OH238188   1.800   1.690  16.156 -0.4295  0.2221 -0.2239
 5566TIP3    H138189   1.711   1.683  16.122 -0.5488  0.3184  0.0752
 5566TIP3    H238190   1.791   1.727  16.243 -0.0580  0.6667 -0.3732
 5567TIP3   OH238191   0.141   1.379   6.217 -0.7198  0.0607  0.6525
 5567TIP3    H138192   0.198   1.454   6.199 -2.3516  1.1246 -0.3307
 5567TIP3    H238193   0.188   1.304   6.182 -0.8659  1.2264 -2.1934
 5568TIP3   OH238194   4.068   2.660   1.168 -0.2407 -0.2649 -0.1295
 5568TIP3    H138195   3.987   2.669   1.218  0.0398  2.0669 -0.0532
 5568TIP3    H238196   4.042   2.679   1.078  0.2598  0.7949 -0.0590
 5569TIP3   OH238197   6.364   6.289   5.339  0.2753  0.1046 -0.0380
 5569TIP3    H138198   6.355   6.336   5.422  0.9140  0.1629 -0.0020
 5569TIP3    H238199   6.423   6.343   5.287  0.0411 -0.0382 -0.4562
 5570TIP3   OH238200   4.791   5.709  13.063  0.0253  0.7440  0.1045
 5570TIP3    H138201   4.844   5.630  13.059  0.0444  0.7392  0.4197
 5570TIP3    H238202   4.843   5.775  13.016 -0.9540  0.0361 -2.0152
 5571TIP3   OH238203   6.032   0.366   5.617 -0.4440  0.9740 -0.3323
 5571TIP3    H138204   6.071   0.353   5.531  0.6124  1.1074  0.1205
 5571TIP3    H238205   5.937   0.366   5.601 -0.3315 -1.4089 -1.1509
 5572TIP3   OH238206   4.839   5.554   6.550 -0.1703 -0.3090  0.8664
 5572TIP3    H138207   4.752   5.583   6.579 -0.6759 -1.9587  1.0451
 5572TIP3    H238208   4.826   5.528   6.459  0.0391 -0.9380  1.0143
 5573TIP3   OH238209   5.155   1.031  14.548 -0.5176  0.2100  0.5717
 5573TIP3    H138210   5.063   1.042  14.574 -0.2263  1.9697  0.9120
 5573TIP3    H238211   5.203   1.022  14.630 -0.3318 -0.3961  0.4030
 5574TIP3   OH238212   5.520   4.693  13.992  0.4307 -0.3022  0.0387
 5574TIP3    H138213   5.554   4.651  14.071  3.0680 -1.8566 -1.8434
 5574TIP3    H238214   5.457   4.630  13.957  0.6210 -0.4519 -0.0423
 5575TIP3   OH238215   6.499   3.708   4.328 -0.0810  0.4978 -0.4203
 5575TIP3    H138216   6.595   3.700   4.326 -0.0540  0.6801  0.1633
 5575TIP3    H238217   6.471   3.674   4.243  0.2721 -2.6293  0.6527
 5576TIP3   OH238218   6.592   5.357  15.669 -0.2597  0.1694 -0.1134
 5576TIP3    H138219   6.497   5.346  15.671 -0.4152  1.5635  0.3979
 5576TIP3    H238220   6.624   5.277  15.628 -1.6667 -0.2307 -0.4633
 5577TIP3   OH238221   1.040   0.647  11.213 -0.0778 -0.0900  0.7538
 5577TIP3    H138222   1.090   0.728  11.202 -1.2804  0.7957  1.6911
 5577TIP3    H238223   1.005   0.629  11.126 -0.2057  0.6721  0.6438
 5578TIP3   OH238224   1.898   0.912   0.373  0.2642  0.6766 -0.4290
 5578TIP3    H138225   1.869   0.878   0.458  0.0984 -1.1541 -1.1899
 5578TIP3    H238226   1.958   0.983   0.395  0.6746 -0.1503  1.2388
 5579TIP3   OH238227   5.301   5.467   6.491 -0.1850  0.1121  0.0797
 5579TIP3    H138228   5.260   5.393   6.447  0.7455 -1.2793  1.5015
 5579TIP3    H238229   5.265   5.466   6.579  1.6086 -0.0824  0.8231
 5580TIP3   OH238230   5.537   2.057  10.628  0.0431 -0.0902 -0.5782
 5580TIP3    H138231   5.527   2.049  10.533  0.4390  0.0293 -0.6287
 5580TIP3    H238232   5.572   2.145  10.642 -0.4219  0.0522 -0.2902
 5581TIP3   OH238233   5.643   5.089  13.675 -0.2384 -0.1123 -0.2940
 5581TIP3    H138234   5.664   5.076  13.768  2.0511  0.7787 -0.6410
 5581TIP3    H238235   5.574   5.155  13.675 -0.7661 -0.6501  0.7979
 5582TIP3   OH238236   2.100   0.451   3.062  0.5194  0.3515  0.1904
 5582TIP3    H138237   2.136   0.386   3.123  2.9818  1.3144 -0.1923
 5582TIP3    H238238   2.087   0.403   2.981  1.4542  0.1281  0.1775
 5583TIP3   OH238239   6.742   1.053  13.550 -0.2218 -0.2142 -0.4532
 5583TIP3    H138240   6.828   1.050  13.507  0.4454 -1.2197  0.9311
 5583TIP3    H238241   6.760   1.091  13.636 -1.4342  1.0602 -0.7454
 5584TIP3   OH238242   1.431   0.051   1.311 -0.0955 -0.2420 -0.3271
 5584TIP3    H138243   1.400   0.124   1.258  0.2793  0.8065  0.8497
 5584TIP3    H238244   1.413  -0.027   1.259 -0.8082  0.6675 -1.4614
 5585TIP3   OH238245   0.428   1.780  15.125 -0.2249 -0.3547 -0.0792
 5585TIP3    H138246   0.344   1.818  15.151  0.5833  0.9035  0.7503
 5585TIP3    H238247   0.494   1.835  15.168  1.0417 -0.9264 -1.2416
 5586TIP3   OH238248   5.651   5.223   1.652 -0.5395 -0.0840  0.3756
 5586TIP3    H138249   5.671   5.188   1.565  0.3121  1.1341  0.0850
 5586TIP3    H238250   5.586   5.291   1.635 -1.5119 -0.8721  0.8609
 5587TIP3   OH238251   0.122   6.278  12.742 -0.2629  0.2532 -0.2923
 5587TIP3    H138252   0.128   6.221  12.666  2.5415 -0.6436  0.5606
 5587TIP3    H238253   0.176   6.236  12.809  1.1130  3.4123  0.6777
 5588TIP3   OH238254   5.942   5.679  11.588 -0.0827  0.2119  0.1615
 5588TIP3    H138255   5.992   5.735  11.648  0.4814 -0.7350  0.5874
 5588TIP3    H238256   5.872   5.736  11.555  1.6738  1.7653 -0.9886
 5589TIP3   OH238257   3.296   0.871   0.066  0.0863  0.0809  0.5575
 5589TIP3    H138258   3.331   0.811   0.131  1.4433  0.6039  0.3322
 5589TIP3    H238259   3.367   0.884   0.004 -1.2214 -0.4973 -1.1097
 5590TIP3   OH238260   5.747   4.291  10.533 -0.2736 -0.4029  0.2730
 5590TIP3    H138261   5.731   4.205  10.494 -0.8853 -0.6092  0.9928
 5590TIP3    H238262   5.677   4.303  10.596  1.6492 -0.7847  2.5345
 5591TIP3   OH238263   4.491   2.893   3.847 -0.0527  0.3026  0.5265
 5591TIP3    H138264   4.441   2.950   3.906 -1.0248  0.8194 -0.7853
 5591TIP3    H238265   4.503   2.812   3.898  0.0296  1.1081  1.8229
 5592TIP3   OH238266   6.710   6.185   1.932  0.0192  0.0024 -0.1296
 5592TIP3    H138267   6.770   6.259   1.945 -0.7035  0.6851 -0.6043
 5592TIP3    H238268   6.684   6.159   2.020  1.1603 -0.4342  0.0968
 5593TIP3   OH238269   4.054   5.102   4.435  0.2042  0.0805  0.2596
 5593TIP3    H138270   4.100   5.039   4.491 -0.3347 -0.0191  0.5855
 5593TIP3    H238271   4.094   5.088   4.348  0.3226 -0.4777  0.3962
 5594TIP3   OH238272   5.591   1.656  14.202  0.3561  0.4556  0.3407
 5594TIP3    H138273   5.587   1.597  14.126 -0.0287 -1.1739  1.5951
 5594TIP3    H238274   5.500   1.663  14.231  0.3336  2.0632 -0.0667
 5595TIP3   OH238275   6.719   1.945   5.923 -0.3198  0.3063 -0.2914
 5595TIP3    H138276   6.658   1.875   5.898 -0.4759  0.6514 -0.8759
 5595TIP3    H238277   6.792   1.937   5.861 -0.8693  1.3855 -1.0814
 5596TIP3   OH238278   3.324   0.891  16.398  0.3393  0.3442 -0.0745
 5596TIP3    H138279   3.318   0.830  16.472 -2.4935 -2.5927 -2.5640
 5596TIP3    H238280   3.261   0.960  16.418  0.9661  0.5704  1.1314
 5597TIP3   OH238281   2.889   1.124   0.407  0.2102  0.1475  0.0133
 5597TIP3    H138282   2.931   1.210   0.411 -0.2422  0.3573  0.2843
 5597TIP3    H238283   2.835   1.128   0.329  2.0492 -0.7528 -1.3549
 5598TIP3   OH238284   0.589   3.489  16.078  0.0883 -0.0404  0.0523
 5598TIP3    H138285   0.539   3.432  16.021 -1.2172  2.3044 -1.2072
 5598TIP3    H238286   0.533   3.501  16.155  0.1464 -0.0708  0.0993
 5599TIP3   OH238287   2.084   4.013  14.657 -0.7234 -0.4660  0.6296
 5599TIP3    H138288   2.077   4.097  14.702  0.5696  0.1398 -0.2489
 5599TIP3    H238289   2.160   3.970  14.697  0.5320  0.1463 -1.0276
 5600TIP3   OH238290   5.197   4.586   0.978  0.0430 -0.2030  0.9283
 5600TIP3    H138291   5.186   4.492   0.995 -0.7746  0.1895  2.7147
 5600TIP3    H238292   5.108   4.619   0.969  0.3438  0.3416 -0.0571
 5601TIP3   OH238293   4.896   1.716   4.381 -0.6464 -0.1364 -0.4066
 5601TIP3    H138294   4.940   1.741   4.299  1.7231 -1.6176  0.3384
 5601TIP3    H238295   4.935   1.772   4.447  0.7491 -1.9628  0.3837
 5602TIP3   OH238296   6.333   1.147  16.127  0.8775  0.2264  0.2542
 5602TIP3    H138297   6.346   1.091  16.051 -0.2289 -1.0597  0.9908
 5602TIP3    H238298   6.419   1.151  16.169  1.1647 -0.2031 -0.2935
 5603TIP3   OH238299   5.402   3.367   3.361  0.2387  0.5527  0.1061
 5603TIP3    H138300   5.360   3.419   3.292  0.1576  1.0242  0.5085
 5603TIP3    H238301   5.496   3.371   3.340  0.2342  0.8687  0.1394
 5604TIP3   OH238302   1.820   4.437  16.010  0.1017  0.1030  0.1260
 5604TIP3    H138303   1.844   4.522  15.972 -0.8429  0.1773 -0.3234
 5604TIP3    H238304   1.845   4.373  15.944 -0.1775  0.1147  0.0094
 5605TIP3   OH238305   4.149   3.337  10.288 -0.4358  0.8315 -0.2234
 5605TIP3    H138306   4.234   3.295  10.276 -1.0300 -0.0546 -1.4286
 5605TIP3    H238307   4.096   3.271  10.332 -0.0434  1.9670  2.0796
 5606TIP3   OH238308   3.892   5.431   2.849 -0.2868 -0.1453 -0.2447
 5606TIP3    H138309   3.858   5.478   2.773 -0.6141 -0.2235 -0.1459
 5606TIP3    H238310   3.985   5.419   2.830 -0.4075 -0.3370 -0.7240
 5607TIP3   OH238311   1.300   2.611  11.930 -0.2490  0.4469  0.1696
 5607TIP3    H138312   1.214   2.609  11.972  0.4094 -0.8381  1.5044
 5607TIP3    H238313   1.281   2.620  11.836 -1.8412 -0.4043  0.3979
 5608TIP3   OH238314   4.082   0.797  15.330  0.2691 -0.4971 -0.3038
 5608TIP3    H138315   4.014   0.762  15.388 -0.4840 -0.1036 -0.9394
 5608TIP3    H238316   4.063   0.757  15.245 -0.3778  1.1323 -0.9535
 5609TIP3   OH238317   3.727   2.453   3.714 -0.0561 -0.8164 -0.1476
 5609TIP3    H138318   3.802   2.479   3.659  0.3058  0.3696  0.8684
 5609TIP3    H238319   3.650   2.469   3.659  0.2568  1.0434 -0.0822
 5610TIP3   OH238320   3.195   1.492   2.143  0.1945 -0.3869 -0.1026
 5610TIP3    H138321   3.248   1.470   2.066  1.1500  1.1419  0.1089
 5610TIP3    H238322   3.190   1.410   2.192  1.0914 -0.9231 -0.8821
 5611TIP3   OH238323   3.822   2.775   4.213 -0.3250 -0.2246 -0.0869
 5611TIP3    H138324   3.826   2.861   4.254  0.3206  1.1820 -3.0300
 5611TIP3    H238325   3.731   2.747   4.224 -0.3826  0.4938  1.4618
 5612TIP3   OH238326   1.737   1.917  17.174 -0.3186  0.2508  0.1205
 5612TIP3    H138327   1.791   1.844  17.145  0.7958  0.8907  0.5412
 5612TIP3    H238328   1.788   1.995  17.153 -2.3782  1.0353 -2.1840
 5613TIP3   OH238329   1.958   5.366   3.040 -0.3386 -0.4283 -0.1940
 5613TIP3    H138330   1.898   5.413   3.098  1.1491  2.4367 -0.8592
 5613TIP3    H238331   1.910   5.357   2.958  0.6925  3.5107 -1.3308
 5614TIP3   OH238332   6.358   4.806   5.778  0.4407  0.2472 -0.5146
 5614TIP3    H138333   6.422   4.754   5.729  0.5443 -0.2602  0.1442
 5614TIP3    H238334   6.411   4.857   5.840  0.1852 -0.4931  0.3236
 5615TIP3   OH238335   4.042   4.706   1.185 -1.0912 -0.0888 -0.6048
 5615TIP3    H138336   4.012   4.789   1.221  0.4134 -0.4593  1.5451
 5615TIP3    H238337   3.977   4.642   1.214 -1.5144  0.1051 -1.1164
 5616TIP3   OH238338   2.212   4.798  13.176 -0.0493 -0.6938 -0.3389
 5616TIP3    H138339   2.220   4.704  13.193  0.6971 -0.0542  3.4747
 5616TIP3    H238340   2.122   4.819  13.199  0.9263  0.1687  3.0152
 5617TIP3   OH238341   1.293   6.683   1.694  0.1326 -0.2738 -0.3955
 5617TIP3    H138342   1.303   6.638   1.610  0.3912  0.8776 -0.9999
 5617TIP3    H238343   1.278   6.613   1.758 -1.1665 -1.0766 -1.5647
 5618TIP3   OH238344   2.488   3.573   1.156  0.2394 -0.8229  0.6704
 5618TIP3    H138345   2.489   3.550   1.249 -2.2204 -2.3653  0.3617
 5618TIP3    H238346   2.537   3.502   1.114  1.6794  0.0738  0.8088
 5619TIP3   OH238347   3.970   5.900  14.948 -0.4767  0.3560 -0.0635
 5619TIP3    H138348   3.988   5.806  14.957  0.6627  0.2854 -2.7033
 5619TIP3    H238349   3.877   5.905  14.927 -0.5400 -0.1840  0.0779
 5620TIP3   OH238350   2.897   1.059  17.014  0.1957 -0.7717 -0.3727
 5620TIP3    H138351   2.972   1.049  17.072  0.1904 -0.1631 -0.2632
 5620TIP3    H238352   2.933   1.048  16.926  0.5227  0.1466 -0.3542
 5621TIP3   OH238353   0.388   1.455   3.941  0.1915 -0.0840  0.5025
 5621TIP3    H138354   0.367   1.419   4.027  0.5355  0.3687  0.7813
 5621TIP3    H238355   0.400   1.379   3.885  1.5521 -0.4299  1.2376
 5622TIP3   OH238356   0.367   5.852  13.346 -0.3774  0.0620 -0.0082
 5622TIP3    H138357   0.454   5.861  13.307 -0.3623 -0.3714 -0.0864
 5622TIP3    H238358   0.358   5.927  13.405  0.2854 -0.2087  0.4450
 5623TIP3   OH238359   1.442   6.013  16.932  0.0781 -0.0949  0.5177
 5623TIP3    H138360   1.412   6.004  17.022 -0.5434 -2.3915  0.1146
 5623TIP3    H238361   1.536   6.032  16.940 -0.2807  1.2410  1.6621
 5624TIP3   OH238362   2.024   0.117   2.411 -0.1245  0.0432  0.2164
 5624TIP3    H138363   2.067   0.167   2.342  0.4669  3.6060  3.0273
 5624TIP3    H238364   1.939   0.160   2.424 -0.2385 -0.5642  1.7064
 5625TIP3   OH238365   0.126   0.613   6.779 -0.2613 -0.1852 -0.2927
 5625TIP3    H138366   0.197   0.570   6.826 -0.1154 -2.0852 -2.2235
 5625TIP3    H238367   0.170   0.659   6.707 -0.9316 -0.8748 -1.1384
 5626TIP3   OH238368   2.101   5.162   5.809  0.7272 -0.0338  0.2752
 5626TIP3    H138369   2.129   5.224   5.876  0.5611  0.9610 -0.5571
 5626TIP3    H238370   2.045   5.213   5.751  0.8204 -0.8920 -0.5825
 5627TIP3   OH238371   4.853   6.600  15.027 -0.6890 -0.2053  0.0661
 5627TIP3    H138372   4.827   6.686  15.060 -2.5506 -1.0611  0.9538
 5627TIP3    H238373   4.928   6.576  15.081  0.5453  1.3155 -0.9354
 5628TIP3   OH238374   4.274   2.201   3.947  0.0120 -0.5605  0.1318
 5628TIP3    H138375   4.360   2.160   3.954 -0.1209 -0.6367  1.3979
 5628TIP3    H238376   4.294   2.294   3.931  0.3268 -0.6976 -0.2725
 5629TIP3   OH238377   0.928   2.012  10.953  0.1570  0.8378 -0.5505
 5629TIP3    H138378   0.958   1.952  10.885 -0.4980  0.9234 -0.9215
 5629TIP3    H238379   0.866   2.070  10.909 -1.8529 -0.4110  0.5477
 5630TIP3   OH238380   2.663   4.115  11.253  0.0593 -0.0382  0.0450
 5630TIP3    H138381   2.700   4.027  11.246 -0.7623 -0.2424 -1.9699
 5630TIP3    H238382   2.642   4.125  11.346 -0.2393 -2.1385  0.2286
 5631TIP3   OH238383   6.325   3.862   2.347 -0.5227  0.3715  0.2134
 5631TIP3    H138384   6.410   3.906   2.345 -0.2099 -0.3073 -1.7418
 5631TIP3    H238385   6.264   3.926   2.309 -0.4470 -0.0670 -0.6496
 5632TIP3   OH238386   4.787   1.416   1.987 -0.1355 -0.0728 -0.3507
 5632TIP3    H138387   4.716   1.475   1.966 -0.8296  0.1031  2.3284
 5632TIP3    H238388   4.867   1.467   1.970 -0.7050  1.1632  0.6194
 5633TIP3   OH238389   6.433   1.339  14.199 -1.2334  0.1925 -0.0725
 5633TIP3    H138390   6.429   1.258  14.249  0.8444  3.0016  4.9625
 5633TIP3    H238391   6.501   1.324  14.134  1.5164 -1.0764  2.9745
 5634TIP3   OH238392   2.470   2.609   3.919  0.4230  0.2770  0.1830
 5634TIP3    H138393   2.470   2.615   3.823 -1.0594 -2.7184 -0.0599
 5634TIP3    H238394   2.547   2.556   3.939 -1.3894 -2.4373  0.3039
 5635TIP3   OH238395   4.032   4.114   0.515  0.1525 -0.6233 -0.0646
 5635TIP3    H138396   3.943   4.079   0.517  0.0092 -0.2202  0.5382
 5635TIP3    H238397   4.076   4.073   0.589 -0.0204  0.4729  0.6503
 5636TIP3   OH238398   5.621   4.653  16.924  0.4149 -0.0058 -0.1071
 5636TIP3    H138399   5.609   4.746  16.942  2.0885  0.2296 -0.1858
 5636TIP3    H238400   5.532   4.621  16.905 -0.2439  1.4417  0.4796
 5637TIP3   OH238401   6.645   0.917  16.266  0.0413 -0.5188 -0.0641
 5637TIP3    H138402   6.601   0.894  16.184  1.6944  1.1138 -1.4392
 5637TIP3    H238403   6.640   1.012  16.271 -0.9675 -0.6605  2.2857
 5638TIP3   OH238404   0.404   2.720  15.646 -0.3985  0.1633  0.0970
 5638TIP3    H138405   0.442   2.764  15.723 -1.5451 -0.5842  1.1141
 5638TIP3    H238406   0.480   2.689  15.596  0.3659  0.8107  0.8363
 5639TIP3   OH238407   0.765   1.828   3.997  0.0080  0.2731 -0.3467
 5639TIP3    H138408   0.824   1.864   3.931 -0.8200 -1.6214 -2.1606
 5639TIP3    H238409   0.712   1.763   3.950 -1.0804 -0.6184  2.0179
 5640TIP3   OH238410   4.885   0.999  14.639 -0.0532  0.3682  0.1129
 5640TIP3    H138411   4.803   0.960  14.669 -0.4054  1.2855  0.3493
 5640TIP3    H238412   4.858   1.069  14.580  0.5842  0.1003 -0.5130
 5641TIP3   OH238413   6.644   4.289  16.616  0.1431  0.0323  0.1345
 5641TIP3    H138414   6.657   4.195  16.629 -0.0671  0.0741  0.6524
 5641TIP3    H238415   6.659   4.302  16.522  0.6885 -0.4344  0.1521
 5642TIP3   OH238416   5.281   2.829  16.128 -0.2534 -0.5573 -0.0576
 5642TIP3    H138417   5.289   2.767  16.201  1.6926  0.5291  0.6850
 5642TIP3    H238418   5.369   2.834  16.092 -0.7143  0.6997 -1.0105
 5643TIP3   OH238419   4.558   1.206  16.417 -0.0928  0.3424  0.2931
 5643TIP3    H138420   4.623   1.189  16.349 -0.5945 -3.3450  0.6191
 5643TIP3    H238421   4.607   1.199  16.499 -0.2045  1.0779  0.4209
 5644TIP3   OH238422   1.515   3.161  14.876  0.4491  0.0724  0.0714
 5644TIP3    H138423   1.425   3.171  14.907 -0.0157  0.3001 -1.3137
 5644TIP3    H238424   1.506   3.116  14.792  1.5566  1.0838 -0.5865
 5645TIP3   OH238425   4.054   6.037   2.282 -0.3713 -0.1703  0.5748
 5645TIP3    H138426   4.116   6.039   2.355 -0.3368 -0.4335  0.5530
 5645TIP3    H238427   3.982   6.093   2.311 -0.9842 -1.3645  1.3869
 5646TIP3   OH238428   5.065   4.012   1.600 -0.3052  0.2787  0.3438
 5646TIP3    H138429   5.073   4.075   1.529 -1.4180 -0.2096 -0.2213
 5646TIP3    H238430   5.132   3.947   1.582  0.7211  1.1903  0.8246
 5647TIP3   OH238431   1.177   0.293   6.577 -0.8988 -0.9660 -0.2290
 5647TIP3    H138432   1.270   0.274   6.571 -1.0635 -1.5580 -0.8252
 5647TIP3    H238433   1.133   0.214   6.547 -1.5868 -0.3628 -0.8521
 5648TIP3   OH238434   6.355   3.824  16.487 -0.2338  0.0786  0.1184
 5648TIP3    H138435   6.416   3.831  16.561  1.1940 -2.3580 -0.7720
 5648TIP3    H238436   6.300   3.748  16.509 -1.0470  0.4971 -0.4555
 5649TIP3   OH238437   0.882   3.687   4.966 -0.3129  0.7155 -0.3353
 5649TIP3    H138438   0.903   3.636   5.045  1.7724 -0.1635 -1.4004
 5649TIP3    H238439   0.808   3.641   4.926 -0.4941  0.3739  0.3923
 5650TIP3   OH238440   5.036   1.948  14.729 -0.5888 -0.3222 -0.8510
 5650TIP3    H138441   5.086   1.922  14.806 -0.6573  0.8351 -0.4066
 5650TIP3    H238442   5.021   1.866  14.681 -1.5816 -1.2313  0.9660
 5651TIP3   OH238443   3.545   2.670  12.604  0.4835 -0.1542  0.1570
 5651TIP3    H138444   3.496   2.717  12.536 -0.7699 -1.4172  0.1555
 5651TIP3    H238445   3.611   2.620  12.557  0.8134  0.3927  0.0320
 5652TIP3   OH238446   0.114   0.314   1.565  0.5213  0.1679  0.9407
 5652TIP3    H138447   0.021   0.310   1.585  0.4986 -0.9206  0.6316
 5652TIP3    H238448   0.126   0.397   1.519 -0.3904  0.0456  0.4837
 5653TIP3   OH238449   2.500   2.086  15.667  0.0544 -0.1688  0.1445
 5653TIP3    H138450   2.447   2.148  15.617  0.6101 -0.6546 -1.0593
 5653TIP3    H238451   2.586   2.129  15.675  0.3360 -0.6149 -0.3930
 5654TIP3   OH238452   6.333   4.156   5.207 -0.5423  0.5745 -0.2381
 5654TIP3    H138453   6.258   4.189   5.257 -1.0452 -2.0180  0.8428
 5654TIP3    H238454   6.297   4.134   5.121 -0.0789  3.2764 -1.1653
 5655TIP3   OH238455   4.119   6.658   4.382 -0.3731  0.1857  0.2567
 5655TIP3    H138456   4.153   6.616   4.303 -3.9969 -0.1939 -1.2084
 5655TIP3    H238457   4.034   6.616   4.397 -1.3503  2.7258  2.3293
 5656TIP3   OH238458   4.928   4.709   0.504 -0.4756  0.4918  0.0995
 5656TIP3    H138459   4.880   4.691   0.424 -2.1470  0.9832  0.9574
 5656TIP3    H238460   4.886   4.787   0.540 -1.0418 -0.8420  2.4579
 5657TIP3   OH238461   0.751   1.451   0.320  0.0451 -0.7007 -0.0575
 5657TIP3    H138462   0.742   1.379   0.383 -2.0978 -0.5998 -0.2148
 5657TIP3    H238463   0.770   1.527   0.374  1.2648 -1.1654  0.1960
 5658TIP3   OH238464   5.040   2.691  17.174  0.3313 -0.3213 -0.2542
 5658TIP3    H138465   5.128   2.691  17.136  0.4768 -0.5543  0.0808
 5658TIP3    H238466   5.022   2.783  17.193  0.3545 -0.2288 -0.6564
 5659TIP3   OH238467   5.406   4.798  11.266  0.4445  0.1034  0.1265
 5659TIP3    H138468   5.323   4.846  11.267 -1.2253 -2.5944 -2.2254
 5659TIP3    H238469   5.468   4.861  11.229 -0.5092  2.1352  1.8429
 5660TIP3   OH238470   2.709   3.016   0.468  0.5802  0.5667 -0.0849
 5660TIP3    H138471   2.711   3.059   0.554  0.3590 -0.2566  0.3403
 5660TIP3    H238472   2.626   2.969   0.467  1.0477 -0.2633 -0.3320
 5661TIP3   OH238473   5.815   3.754  15.118  0.2567 -0.1164  0.3309
 5661TIP3    H138474   5.837   3.701  15.195 -0.0034 -1.1306 -0.2749
 5661TIP3    H238475   5.849   3.841  15.138  1.1095 -0.6310  1.1547
 5662TIP3   OH238476   0.123   2.536   6.804  0.2182  0.3648  0.4993
 5662TIP3    H138477   0.137   2.471   6.873  2.7574  0.3498  0.0177
 5662TIP3    H238478   0.114   2.486   6.724  0.2457  0.5126  0.4029
 5663TIP3   OH238479   0.195   1.022   2.768  0.3523 -0.1727  0.3602
 5663TIP3    H138480   0.172   1.100   2.819 -0.4112  0.1625 -0.4853
 5663TIP3    H238481   0.111   0.991   2.734  0.7634 -0.8678 -0.0109
 5664TIP3   OH238482   1.641   6.184  15.618  0.2209 -0.0041  0.0396
 5664TIP3    H138483   1.547   6.198  15.606  0.7378  1.6449 -2.4859
 5664TIP3    H238484   1.647   6.104  15.671 -2.5904 -0.2003  0.1252
 5665TIP3   OH238485   5.031   6.188  11.795  0.1669 -0.6518  0.5139
 5665TIP3    H138486   5.026   6.093  11.787 -1.0771 -0.4020 -2.3529
 5665TIP3    H238487   5.027   6.221  11.705  0.6895  2.1098  1.4304
 5666TIP3   OH238488   2.297   5.597   3.783  0.1697 -0.4272  0.0469
 5666TIP3    H138489   2.237   5.593   3.708 -1.0282  2.6606  0.7773
 5666TIP3    H238490   2.255   5.543   3.850 -0.3466 -0.5928 -0.4045
 5667TIP3   OH238491   4.869   5.786   0.601 -0.2683  0.0754 -0.2036
 5667TIP3    H138492   4.783   5.747   0.588  0.1329 -0.1513 -2.3903
 5667TIP3    H238493   4.916   5.769   0.519  1.8960  0.0985  0.9881
 5668TIP3   OH238494   5.165   6.463  17.202  0.8307 -0.2019  0.0363
 5668TIP3    H138495   5.164   6.531  17.269  0.1917 -0.0703 -0.1036
 5668TIP3    H238496   5.251   6.422  17.211  0.7978 -0.0999  0.8487
 5669TIP3   OH238497   2.118   1.193   0.774  0.1945 -0.6642 -0.6443
 5669TIP3    H138498   2.045   1.133   0.758  0.7780 -1.6873  0.4611
 5669TIP3    H238499   2.079   1.266   0.823  0.1477 -1.8651  1.1617
 5670TIP3   OH238500   0.123   5.947   3.400 -0.7902  0.1824  0.0629
 5670TIP3    H138501   0.119   5.975   3.309 -2.0955 -0.8704 -0.2191
 5670TIP3    H238502   0.140   5.853   3.396  0.1455  0.3041  0.9347
 5671TIP3   OH238503   3.660   3.985   2.070 -0.2148  0.3778  0.4933
 5671TIP3    H138504   3.578   4.028   2.048 -0.9384 -1.4128 -0.3838
 5671TIP3    H238505   3.668   3.914   2.006  1.6049  0.0336  1.0809
 5672TIP3   OH238506   4.402   1.148   2.955  0.9297 -0.3754  0.1209
 5672TIP3    H138507   4.374   1.237   2.938  0.9568 -0.6946 -1.6956
 5672TIP3    H238508   4.334   1.111   3.012  0.9378  0.7887  0.9025
 5673TIP3   OH238509   4.170   3.881   1.794  0.5942 -0.4257  0.1152
 5673TIP3    H138510   4.261   3.873   1.824  0.4084 -1.2491  0.4892
 5673TIP3    H238511   4.118   3.849   1.868 -0.0555  1.0250  0.2969
 5674TIP3   OH238512   5.117   5.531   0.545  0.1748  0.0390  0.2730
 5674TIP3    H138513   5.187   5.551   0.483  0.6182 -0.0002  0.7560
 5674TIP3    H238514   5.123   5.600   0.611  0.9326 -0.9744  1.2960
 5675TIP3   OH238515   5.069   4.023   5.194  0.4114 -0.5806 -0.3012
 5675TIP3    H138516   5.148   4.030   5.141  0.5132  0.1593 -0.0573
 5675TIP3    H238517   5.048   3.930   5.194  1.1573 -0.7506 -0.5482
 5676TIP3   OH238518   0.120   2.977  15.290 -0.2788 -0.6093 -0.1274
 5676TIP3    H138519   0.073   3.060  15.287 -1.7110 -1.4569 -2.6804
 5676TIP3    H238520   0.063   2.918  15.338  0.6789 -0.1963  1.5672
 5677TIP3   OH238521   3.287   4.302  14.431 -0.2027 -0.2659 -0.5907
 5677TIP3    H138522   3.338   4.383  14.431  0.1840 -0.4902 -1.8515
 5677TIP3    H238523   3.199   4.329  14.404  0.1625 -0.3796 -1.9619
 5678TIP3   OH238524   1.373   1.194   4.081  0.0933  0.0400 -0.0788
 5678TIP3    H138525   1.429   1.259   4.039 -0.2048 -0.5360 -1.4038
 5678TIP3    H238526   1.346   1.234   4.164  2.5478  0.2723  0.6329
 5679TIP3   OH238527   5.323   3.553   0.224  0.2495  0.1587  0.4698
 5679TIP3    H138528   5.235   3.525   0.249 -0.9302  2.7837 -0.6111
 5679TIP3    H238529   5.331   3.642   0.259  2.4614 -0.0098  0.4821
 5680TIP3   OH238530   5.171   4.121   4.692 -0.5576 -0.0944 -0.3261
 5680TIP3    H138531   5.158   4.204   4.646 -1.0012 -0.5765 -1.0713
 5680TIP3    H238532   5.124   4.056   4.639  0.7911 -1.0239 -0.4145
 5681TIP3   OH238533   3.053   5.365   5.788 -0.2489  0.1945  1.0578
 5681TIP3    H138534   3.123   5.397   5.845 -0.3800  0.8423  0.8627
 5681TIP3    H238535   3.024   5.442   5.740 -1.3243 -0.0021  1.3772
 5682TIP3   OH238536   0.646   5.907  12.313 -0.4723 -0.0748  0.2177
 5682TIP3    H138537   0.637   5.983  12.255 -0.9265 -0.0829  0.2776
 5682TIP3    H238538   0.598   5.932  12.392  0.0075 -0.1286  0.5313
 5683TIP3   OH238539   5.640   3.013  14.685 -0.2255  0.5667 -0.4945
 5683TIP3    H138540   5.590   2.975  14.613  0.2354  0.9343 -1.0086
 5683TIP3    H238541   5.724   3.037  14.647  0.2605  0.1668  0.3181
 5684TIP3   OH238542   3.459   4.534   2.266 -0.3348  0.3426 -0.1138
 5684TIP3    H138543   3.464   4.530   2.170 -1.9768 -1.0081 -0.1566
 5684TIP3    H238544   3.550   4.544   2.293 -0.0599  3.4816 -1.9015
 5685TIP3   OH238545   0.272   2.821  13.302  0.2343 -0.0965  0.0578
 5685TIP3    H138546   0.207   2.845  13.235 -0.1003 -1.9156 -0.3024
 5685TIP3    H238547   0.300   2.733  13.277  1.8854  0.1633  0.9678
 5686TIP3   OH238548   1.968   6.112   0.696 -0.0391 -0.0733  0.0195
 5686TIP3    H138549   1.955   6.205   0.714  1.7268  0.2396 -0.2813
 5686TIP3    H238550   1.887   6.070   0.725  0.2519  1.1960  2.7636
 5687TIP3   OH238551   3.214   1.170  14.316  0.4934 -0.0193 -0.2611
 5687TIP3    H138552   3.170   1.105  14.371  1.1757 -0.5607 -0.3446
 5687TIP3    H238553   3.147   1.199  14.254  0.2834 -0.9365 -0.4748
 5688TIP3   OH238554   0.060   6.533  14.000 -0.1905  0.1423 -0.1448
 5688TIP3    H138555   0.122   6.496  13.937 -1.0074  0.5185 -1.1861
 5688TIP3    H238556   0.040   6.620  13.967  0.5773  0.9739  1.5054
 5689TIP3   OH238557   4.950   2.379   4.353 -0.3053 -0.3711  0.5273
 5689TIP3    H138558   4.972   2.309   4.414 -0.4243 -1.2417 -0.4250
 5689TIP3    H238559   4.863   2.356   4.320  0.3183 -0.6141 -0.9670
 5690TIP3   OH238560   0.214   3.889  15.275 -0.4012  0.2180  0.2618
 5690TIP3    H138561   0.130   3.897  15.321 -0.1523  1.2206  0.5396
 5690TIP3    H238562   0.246   3.979  15.267  0.4854 -0.1322 -0.1570
 5691TIP3   OH238563   1.249   5.827  12.790 -0.0744 -0.7701  0.0132
 5691TIP3    H138564   1.194   5.797  12.862 -0.0848 -0.8635 -0.0332
 5691TIP3    H238565   1.201   5.902  12.754  0.6509  0.1868  1.0182
 5692TIP3   OH238566   1.336   3.097   1.914 -0.1926 -0.6341 -0.2471
 5692TIP3    H138567   1.289   3.040   1.853 -2.7683  1.4733 -0.2862
 5692TIP3    H238568   1.347   3.179   1.867 -0.1686  0.2594  1.3018
 5693TIP3   OH238569   6.520   4.639   1.287 -0.0429 -0.2537  0.1228
 5693TIP3    H138570   6.529   4.601   1.374 -0.1970  1.5663  0.9579
 5693TIP3    H238571   6.608   4.669   1.264 -0.2729  0.5824  0.2927
 5694TIP3   OH238572   4.368   0.377  10.530 -0.1059 -0.5001  0.0190
 5694TIP3    H138573   4.381   0.446  10.595  1.0900 -1.3400  0.6929
 5694TIP3    H238574   4.279   0.346  10.546 -0.3710  0.3619  0.2195
 5695TIP3   OH238575   3.094   0.450  16.881  0.0096 -0.1972  0.2341
 5695TIP3    H138576   3.041   0.451  16.802  0.0604 -0.6130  0.1919
 5695TIP3    H238577   3.065   0.526  16.931  0.9549  0.8675 -0.8160
 5696TIP3   OH238578   2.307   5.549   6.160  0.0679 -0.1548 -0.2010
 5696TIP3    H138579   2.330   5.606   6.233  0.9648 -1.1008  0.2572
 5696TIP3    H238580   2.239   5.597   6.113 -1.3942 -0.0713  1.9500
 5697TIP3   OH238581   5.479   5.007   4.496 -0.7124 -0.1654  0.0832
 5697TIP3    H138582   5.553   4.996   4.557  0.3211  0.2035 -1.0834
 5697TIP3    H238583   5.519   5.043   4.417 -2.5847  2.8669  0.4400
 5698TIP3   OH238584   6.748   2.985   1.222 -0.4012  0.2118  0.0023
 5698TIP3    H138585   6.668   2.951   1.183 -0.6171 -0.1733  0.7757
 5698TIP3    H238586   6.732   2.985   1.316  0.6542 -0.2765  0.1995
 5699TIP3   OH238587   1.864   1.157   3.286 -0.8034  0.0257  0.1475
 5699TIP3    H138588   1.866   1.247   3.252  1.8784  0.4653  1.4067
 5699TIP3    H238589   1.925   1.109   3.231 -2.0795 -0.9977 -0.3895
 5700TIP3   OH238590   3.271   1.167   3.310 -0.0237  0.4560 -0.0596
 5700TIP3    H138591   3.317   1.213   3.381 -0.1708 -0.2292  0.4867
 5700TIP3    H238592   3.228   1.093   3.353  2.5105 -1.8611 -1.3645
 5701TIP3   OH238593   0.887   4.547  12.946  1.0196 -0.0582  0.7609
 5701TIP3    H138594   0.857   4.558  12.855  0.9115 -0.4521  0.7487
 5701TIP3    H238595   0.946   4.472  12.942  1.6653  0.4450  0.8677
 5702TIP3   OH238596   0.052   0.832   0.712  0.1679  0.4167  0.4326
 5702TIP3    H138597   0.070   0.738   0.717  1.3965  0.7245  2.3079
 5702TIP3    H238598  -0.036   0.838   0.675  1.1206 -1.3752 -2.2803
 5703TIP3   OH238599   1.559   5.471  12.091  0.3802 -0.0792  0.3814
 5703TIP3    H138600   1.606   5.541  12.047  0.0302  0.2395  0.5194
 5703TIP3    H238601   1.497   5.439  12.026 -0.0194  0.2785  0.5916
 5704TIP3   OH238602   3.488   5.134   4.516 -0.0137 -0.2163 -0.1060
 5704TIP3    H138603   3.501   5.180   4.599  1.3474  0.2148 -0.5356
 5704TIP3    H238604   3.394   5.124   4.508 -0.3386  2.2820  0.1386
 5705TIP3   OH238605   1.671   6.657   2.612  0.0160  0.0189 -0.3850
 5705TIP3    H138606   1.766   6.665   2.613  0.1364 -1.2288  1.7266
 5705TIP3    H238607   1.642   6.699   2.693 -0.9828 -2.0254  0.3536
 5706TIP3   OH238608   3.288   6.625   0.456  0.6036 -0.0052  0.2962
 5706TIP3    H138609   3.237   6.544   0.455  0.8843 -0.1807 -0.4852
 5706TIP3    H238610   3.226   6.693   0.430 -0.0392  0.2922  2.5276
 5707TIP3   OH238611   2.106   0.284   1.751  0.3047 -0.7447 -0.0721
 5707TIP3    H138612   2.152   0.226   1.690 -0.7796 -0.9787 -0.6789
 5707TIP3    H238613   2.032   0.233   1.781  0.9999 -0.7387  1.7031
 5708TIP3   OH238614   3.906   0.267  16.604 -0.0068  0.3319  0.1146
 5708TIP3    H138615   3.881   0.182  16.570 -3.6776  1.1786  0.4439
 5708TIP3    H238616   3.939   0.249  16.693 -1.4420 -0.6668  0.4520
 5709TIP3   OH238617   2.768   0.057  17.064  0.1655  0.1061  0.0061
 5709TIP3    H138618   2.860   0.063  17.090  0.5493  0.5670 -1.4400
 5709TIP3    H238619   2.758  -0.033  17.032 -0.0897 -0.1884  0.8969
 5710TIP3   OH238620   2.073   6.330   1.147  0.3045 -0.1771  0.2351
 5710TIP3    H138621   2.152   6.382   1.131  0.9388 -0.9383  0.8410
 5710TIP3    H238622   2.006   6.371   1.093  1.2241  0.2018 -0.6282
 5711TIP3   OH238623   1.056   5.094  16.435 -0.1721 -0.3895 -0.4992
 5711TIP3    H138624   1.056   5.168  16.375 -2.1222 -1.0041 -1.2961
 5711TIP3    H238625   1.149   5.080  16.455  0.2258  2.1617 -0.4148
 5712TIP3   OH238626   3.967   5.339   3.145  0.1965 -0.0105  0.1290
 5712TIP3    H138627   3.965   5.266   3.084 -1.7467 -0.3163  0.5165
 5712TIP3    H238628   3.876   5.350   3.172  0.1103  3.8843 -1.4868
 5713TIP3   OH238629   3.764   1.589  16.736  0.1395 -0.3024  0.2247
 5713TIP3    H138630   3.841   1.641  16.714  0.6331 -0.1749  2.1804
 5713TIP3    H238631   3.720   1.574  16.652 -0.1709  3.5110 -0.3615
 5714TIP3   OH238632   4.425   2.523  14.478 -0.2538  0.0782  0.1821
 5714TIP3    H138633   4.466   2.607  14.498 -0.6882  0.8518 -2.0653
 5714TIP3    H238634   4.469   2.461  14.536 -1.0754  2.0792  3.0519
 5715TIP3   OH238635   2.109   0.701   0.869  0.4747 -0.0180 -0.4019
 5715TIP3    H138636   2.136   0.792   0.870 -0.5909  0.3044 -0.7337
 5715TIP3    H238637   2.172   0.656   0.925  0.1865  1.1537  0.8709
 5716TIP3   OH238638   1.993   5.382  12.356  0.2092 -0.1451 -0.1308
 5716TIP3    H138639   2.075   5.404  12.312 -0.4475 -0.4173 -1.5062
 5716TIP3    H238640   1.925   5.401  12.291 -0.6764 -1.8712  0.2835
 5717TIP3   OH238641   3.191   4.353   5.029 -0.2155 -0.3171  0.3152
 5717TIP3    H138642   3.211   4.439   5.066  1.6551 -0.4429 -0.3304
 5717TIP3    H238643   3.135   4.311   5.094  0.1107  0.8073  1.3482
 5718TIP3   OH238644   5.818   3.306   5.508  0.2073 -0.3198 -0.2874
 5718TIP3    H138645   5.751   3.248   5.543 -0.1884  1.5958  2.3310
 5718TIP3    H238646   5.817   3.382   5.567  3.7417  0.3569 -0.9679
 5719TIP3   OH238647   5.955   2.090  12.877 -0.1203 -0.4938 -0.6063
 5719TIP3    H138648   5.969   2.041  12.796  0.1745 -0.9575 -0.2784
 5719TIP3    H238649   5.925   2.025  12.940  0.1645 -0.2348 -0.1994
 5720TIP3   OH238650   5.623   5.269  11.361  0.2025 -0.1313  0.2726
 5720TIP3    H138651   5.572   5.349  11.369 -0.1825 -0.3394 -0.0266
 5720TIP3    H238652   5.711   5.298  11.340 -0.0477  0.2033 -0.3363
 5721TIP3   OH238653   4.261   5.194  15.869 -0.1288 -0.2545 -0.1149
 5721TIP3    H138654   4.344   5.235  15.892 -0.5625 -0.0261  1.1393
 5721TIP3    H238655   4.217   5.182  15.954 -1.1065 -0.9231 -0.7096
 5722TIP3   OH238656   2.708   5.132  13.799  0.5309 -0.4907 -0.4848
 5722TIP3    H138657   2.711   5.171  13.711 -0.7380 -0.6920 -0.6232
 5722TIP3    H238658   2.628   5.080  13.799  0.8195 -0.9390  0.6160
 5723TIP3   OH238659   4.780   5.222  15.508 -0.2237 -0.1025 -0.8487
 5723TIP3    H138660   4.867   5.212  15.469 -0.1342  1.8897 -1.2454
 5723TIP3    H238661   4.741   5.295  15.460 -1.5719 -0.0632  0.2768
 5724TIP3   OH238662   5.366   2.277   2.597 -0.1974  0.0414 -0.0282
 5724TIP3    H138663   5.400   2.312   2.679 -0.3627 -0.1252  0.1105
 5724TIP3    H238664   5.433   2.215   2.568  0.0216  0.3546 -0.1938
 5725TIP3   OH238665   6.190   4.896   3.502 -0.4987 -0.3054 -0.4388
 5725TIP3    H138666   6.105   4.859   3.481 -1.7862  2.5833 -0.5879
 5725TIP3    H238667   6.179   4.991   3.489  3.0714  0.0256 -1.6860
 5726TIP3   OH238668   4.578   5.701  12.701  0.2175  0.0286 -0.0686
 5726TIP3    H138669   4.609   5.787  12.673  0.0875 -0.1260 -0.6850
 5726TIP3    H238670   4.502   5.684  12.645 -0.1855 -0.1759  0.5329
 5727TIP3   OH238671   5.610   4.239   3.314  0.5939 -0.1537  0.5042
 5727TIP3    H138672   5.640   4.213   3.228  3.1784  2.1165  0.6369
 5727TIP3    H238673   5.668   4.194   3.375 -0.1271 -0.4142  1.0070
 5728TIP3   OH238674   2.863   3.023  16.790  0.4285 -0.7484 -0.3168
 5728TIP3    H138675   2.938   3.073  16.757 -0.9783  1.2385 -0.5920
 5728TIP3    H238676   2.813   3.002  16.711 -1.6121  1.8193  0.2113
 5729TIP3   OH238677   2.068   2.577  16.018  0.3652 -0.2426 -0.3513
 5729TIP3    H138678   2.162   2.565  16.028  0.4916 -0.2696 -1.5135
 5729TIP3    H238679   2.032   2.489  16.013  0.4056 -0.2214 -1.0276
 5730TIP3   OH238680   0.972   2.024  14.282  0.1845 -0.8654  1.1498
 5730TIP3    H138681   0.964   1.971  14.203 -0.3390 -0.5488  0.9838
 5730TIP3    H238682   0.896   1.999  14.335 -0.4700  0.2315  0.7534
 5731TIP3   OH238683   3.914   5.014  15.552 -0.0744 -0.4309 -0.1955
 5731TIP3    H138684   3.982   5.082  15.551  0.5929 -1.0940 -0.0352
 5731TIP3    H238685   3.899   4.993  15.460  0.3355 -0.6820 -0.2037
 5732TIP3   OH238686   0.309   1.583  13.303  0.3874 -0.3042 -0.0838
 5732TIP3    H138687   0.279   1.666  13.264  0.2289  0.7981  2.2583
 5732TIP3    H238688   0.281   1.516  13.240  2.1443  1.5187 -2.9423
 5733TIP3   OH238689   3.018   5.253  11.414 -0.4446  0.0296 -0.0079
 5733TIP3    H138690   2.974   5.327  11.373 -1.1101 -0.6027 -0.4586
 5733TIP3    H238691   3.101   5.246  11.367 -0.1298  0.8441  0.4262
 5734TIP3   OH238692   0.409   4.714  16.281 -0.2868  0.7763 -0.3669
 5734TIP3    H138693   0.392   4.621  16.299 -1.3047  1.2422  1.2306
 5734TIP3    H238694   0.503   4.725  16.298 -0.3631  0.2377  0.4437
 5735TIP3   OH238695   0.797   4.041   1.607 -0.4941 -0.2269 -0.3109
 5735TIP3    H138696   0.733   4.112   1.615 -0.4263 -0.0027 -1.6669
 5735TIP3    H238697   0.743   3.962   1.602 -0.5724 -0.2662  1.1096
 5736TIP3   OH238698   4.152   1.179   1.171  0.1093  0.0851 -0.3716
 5736TIP3    H138699   4.195   1.259   1.140 -0.7842  0.2773 -1.1177
 5736TIP3    H238700   4.060   1.190   1.147 -0.2791 -0.5395  0.7873
 5737TIP3   OH238701   4.721   4.243   4.941 -0.0492 -0.0688 -0.1039
 5737TIP3    H138702   4.728   4.312   5.006  0.1642 -1.1965  1.0816
 5737TIP3    H238703   4.649   4.188   4.971  1.2496 -1.6452  0.1909
 5738TIP3   OH238704   6.088   3.902   5.795 -0.3017 -0.0157 -0.1818
 5738TIP3    H138705   6.126   3.946   5.871 -0.3759 -0.2149 -0.0315
 5738TIP3    H238706   6.118   3.954   5.721 -0.0054  0.0192 -0.0378
 5739TIP3   OH238707   2.488   2.829   0.525  0.4870  0.2016  0.0077
 5739TIP3    H138708   2.412   2.829   0.467  0.0413 -1.1538  0.5797
 5739TIP3    H238709   2.471   2.757   0.587  1.6127  0.7311  0.9428
 5740TIP3   OH238710   5.352   3.195  16.013 -0.1497 -0.0166  0.2007
 5740TIP3    H138711   5.290   3.215  16.083  1.3615  0.0387  1.5590
 5740TIP3    H238712   5.387   3.281  15.988  1.1072 -0.2428  1.1051
 5741TIP3   OH238713   3.386   2.035   3.538 -0.2191  0.3440  0.3950
 5741TIP3    H138714   3.363   1.949   3.505  0.1514  0.2574  0.3545
 5741TIP3    H238715   3.302   2.078   3.556 -0.3791 -0.7634  2.3773
 5742TIP3   OH238716   1.096   6.797   1.837 -0.4233 -0.4840 -0.2283
 5742TIP3    H138717   1.159   6.754   1.779 -0.3918  0.2649 -0.7539
 5742TIP3    H238718   1.070   6.876   1.790 -1.4820 -0.5959  0.1512
 5743TIP3   OH238719   5.025   1.504  13.349  0.3147  0.6316 -0.4024
 5743TIP3    H138720   5.077   1.481  13.272  0.0146  1.4070 -0.8413
 5743TIP3    H238721   4.978   1.424  13.372 -0.1051  0.5787 -1.4259
 5744TIP3   OH238722   2.022   6.111  12.795 -0.0018  0.0882  0.0276
 5744TIP3    H138723   2.072   6.072  12.867 -0.5499  1.7435  1.3366
 5744TIP3    H238724   1.970   6.038  12.760  1.9542 -1.2405 -0.1820
 5745TIP3   OH238725   0.870   2.226   4.504 -0.0396 -0.1205 -0.0424
 5745TIP3    H138726   0.799   2.239   4.566  0.5978  0.2875  0.6053
 5745TIP3    H238727   0.919   2.308   4.506  0.2369 -0.2634 -0.7594
 5746TIP3   OH238728   1.294   4.294  11.975  0.1546  0.0975  0.5396
 5746TIP3    H138729   1.257   4.338  11.900 -0.3726 -0.2061  0.6200
 5746TIP3    H238730   1.225   4.295  12.041  1.1038  1.6469  1.5419
 5747TIP3   OH238731   1.499   6.103   1.299  0.2136  0.4462  0.5657
 5747TIP3    H138732   1.485   6.009   1.286 -1.6469  0.7825  0.0518
 5747TIP3    H238733   1.462   6.121   1.385 -1.5610  1.1256 -0.3119
 5748TIP3   OH238734   3.137   5.873  14.339  0.8952  0.4945 -0.5077
 5748TIP3    H138735   3.126   5.885  14.244 -0.7241  0.7419 -0.3118
 5748TIP3    H238736   3.128   5.962  14.375 -0.3976  0.1672  0.0244
 5749TIP3   OH238737   3.153   5.539   3.198  0.6212 -0.4998 -0.4985
 5749TIP3    H138738   3.159   5.463   3.140  2.5370 -2.1972  1.8466
 5749TIP3    H238739   3.163   5.504   3.286 -1.1208  2.1737  0.8452
 5750TIP3   OH238740   2.319   0.056  11.996  0.0729  0.0820  0.4333
 5750TIP3    H138741   2.312   0.009  12.079 -2.0396  0.1498  0.3288
 5750TIP3    H238742   2.336   0.147  12.022 -1.5233  0.2803  0.8546
 5751TIP3   OH238743   0.746   6.222  13.229 -0.0368  0.2509  0.1081
 5751TIP3    H138744   0.750   6.267  13.145 -2.0617 -0.1463 -0.2237
 5751TIP3    H238745   0.767   6.131  13.209  0.3574  0.3244  0.1812
 5752TIP3   OH238746   1.945   2.001   4.336 -0.7137 -0.3046  0.0376
 5752TIP3    H138747   1.974   1.983   4.425  2.6558  0.8257 -0.7598
 5752TIP3    H238748   1.955   1.917   4.290  1.1662  0.0203 -0.1734
 5753TIP3   OH238749   4.005   5.311  11.145 -0.1930  0.2452 -0.1808
 5753TIP3    H138750   3.924   5.261  11.158 -0.5887  0.6862 -0.9406
 5753TIP3    H238751   4.014   5.363  11.225 -1.5028  1.3672 -0.7406
 5754TIP3   OH238752   1.846   0.814   2.469 -0.6633 -0.4690 -0.0213
 5754TIP3    H138753   1.803   0.745   2.418 -0.3733 -0.9709  0.4058
 5754TIP3    H238754   1.804   0.895   2.440 -2.7748 -1.0682  1.2492
 5755TIP3   OH238755   4.139   0.551  16.810 -0.1056 -0.2913 -0.6494
 5755TIP3    H138756   4.127   0.515  16.723 -1.7010  0.1363 -0.6191
 5755TIP3    H238757   4.081   0.499  16.866  2.1180 -1.6616  0.4713
 5756TIP3   OH238758   5.709   3.040   3.466  0.3672 -0.4446 -0.3230
 5756TIP3    H138759   5.623   3.075   3.442  0.4846 -1.1391 -1.7930
 5756TIP3    H238760   5.702   3.022   3.560  0.0900  2.8979  0.3637
 5757TIP3   OH238761   3.226   0.091  13.839 -0.2192  0.3594  0.0748
 5757TIP3    H138762   3.316   0.070  13.865 -0.8752 -0.5794  1.6269
 5757TIP3    H238763   3.220   0.186  13.847 -0.1159  0.1915  2.4877
 5758TIP3   OH238764   5.501   3.070  17.233 -0.6281  0.1743 -0.1383
 5758TIP3    H138765   5.486   3.152  17.186 -1.1666 -1.3636 -2.7567
 5758TIP3    H238766   5.532   3.009  17.166  2.4684 -1.0382  2.2924
 5759TIP3   OH238767   5.972   0.288  15.510 -0.5485  0.0562 -0.3003
 5759TIP3    H138768   5.949   0.220  15.574 -1.0958  0.5740  0.0592
 5759TIP3    H238769   6.065   0.304  15.525 -1.1390  1.7107  1.8617
 5760TIP3   OH238770   3.369   3.918   5.563 -0.4517 -0.8250  0.2757
 5760TIP3    H138771   3.277   3.897   5.547 -0.0821 -0.3414 -2.8836
 5760TIP3    H238772   3.415   3.880   5.488  1.7809 -0.1221  1.2684
 5761TIP3   OH238773   2.698   5.066   3.962  0.1306  0.0123  0.0132
 5761TIP3    H138774   2.636   5.010   4.009  0.2945  0.3439  0.6186
 5761TIP3    H238775   2.783   5.022   3.973  0.1133 -0.0967 -0.2720
 5762TIP3   OH238776   4.795   5.830   1.125 -0.2935 -0.5099  0.1154
 5762TIP3    H138777   4.845   5.749   1.134  1.7705  0.5146 -1.7129
 5762TIP3    H238778   4.860   5.897   1.105 -1.9865  1.6042  1.4677
 5763TIP3   OH238779   6.288   3.862  15.264 -0.3458  0.2323 -0.1840
 5763TIP3    H138780   6.320   3.795  15.204  1.7595  0.0506  1.0854
 5763TIP3    H238781   6.306   3.826  15.351 -0.6042  1.7733  0.5193
 5764TIP3   OH238782   3.921   4.291  10.893  0.3020 -0.3283  0.1030
 5764TIP3    H138783   4.016   4.289  10.887  0.3359 -0.5766  0.7037
 5764TIP3    H238784   3.892   4.210  10.851  0.3201  0.0709 -0.6866
 5765TIP3   OH238785   1.104   0.489  14.371  0.2884  0.2267 -0.2216
 5765TIP3    H138786   1.087   0.576  14.334 -2.7142  0.9124  2.5527
 5765TIP3    H238787   1.041   0.431  14.328  1.0722 -0.2317 -0.7603
 5766TIP3   OH238788   1.556   1.033  11.662 -0.5765  0.1983 -0.2180
 5766TIP3    H138789   1.581   1.051  11.752 -0.0374  1.4800 -0.6002
 5766TIP3    H238790   1.625   1.073  11.609 -1.4534  0.4428 -1.2110
 5767TIP3   OH238791   2.985   2.787  11.024  0.3383  0.4308 -0.0956
 5767TIP3    H138792   3.072   2.747  11.028  0.3486  0.4210 -0.4743
 5767TIP3    H238793   2.968   2.800  10.931 -2.0784 -4.0305 -0.3995
 5768TIP3   OH238794   1.391   3.830  12.538 -0.2438  0.1414 -0.3127
 5768TIP3    H138795   1.370   3.772  12.612 -1.3274  1.7057  0.6557
 5768TIP3    H238796   1.486   3.838  12.540 -0.2521  0.0654  0.8438
 5769TIP3   OH238797   0.407   2.572  14.074 -0.3500  0.2242 -0.2139
 5769TIP3    H138798   0.365   2.650  14.038  1.2972  1.1678 -0.1331
 5769TIP3    H238799   0.392   2.577  14.168  0.4344  0.8677 -0.1200
 5770TIP3   OH238800   2.872   5.390   3.157  0.2261  0.5767  0.9457
 5770TIP3    H138801   2.913   5.390   3.071 -0.8105  2.6321  0.4240
 5770TIP3    H238802   2.791   5.341   3.146 -0.5035  1.8811  0.4373
 5771TIP3   OH238803   2.014   4.985  15.949 -0.6016 -0.4888  0.0032
 5771TIP3    H138804   2.027   5.063  16.003 -0.7108  0.3364 -1.1499
 5771TIP3    H238805   2.045   5.011  15.862 -2.0522 -1.2318 -0.7514
 5772TIP3   OH238806   3.471   2.459  10.497  0.0976 -0.1744  0.0890
 5772TIP3    H138807   3.542   2.419  10.447  2.2230  0.0868  2.8148
 5772TIP3    H238808   3.497   2.551  10.506 -1.3684  0.2825 -0.2356
 5773TIP3   OH238809   4.124   4.775  11.545 -0.0870 -0.4237  0.2320
 5773TIP3    H138810   4.102   4.839  11.612  0.1514  2.9464 -2.7853
 5773TIP3    H238811   4.041   4.757  11.500  0.3599  0.0108 -0.7875
 5774TIP3   OH238812   5.699   5.986   1.114  0.1563 -0.4250 -0.2059
 5774TIP3    H138813   5.651   5.963   1.034 -2.0859 -0.3290  1.0827
 5774TIP3    H238814   5.726   5.902   1.150 -1.4625 -0.6697  0.5008
 5775TIP3   OH238815   4.402   1.256   1.534  0.3345  0.1207  0.3827
 5775TIP3    H138816   4.429   1.341   1.500 -2.3300 -0.3460 -3.1457
 5775TIP3    H238817   4.477   1.198   1.518  0.5356  0.8168 -1.2403
 5776TIP3   OH238818   6.287   4.114   0.360  0.5666 -0.2356  0.9216
 5776TIP3    H138819   6.326   4.046   0.305 -0.2031 -1.1223  1.4559
 5776TIP3    H238820   6.351   4.185   0.359  0.2239  0.0935 -1.7550
 5777TIP3   OH238821   3.708   5.305   4.878 -0.5864  0.0798  0.4220
 5777TIP3    H138822   3.621   5.284   4.843  0.1606 -0.4916 -1.1742
 5777TIP3    H238823   3.746   5.364   4.813  0.9789 -1.2811  0.0700
 5778TIP3   OH238824   5.228   6.489  12.891  0.0116 -0.1224 -0.1317
 5778TIP3    H138825   5.190   6.456  12.809 -0.7683 -1.2025  0.6495
 5778TIP3    H238826   5.240   6.411  12.945 -0.9133  0.7417  1.3644
 5779TIP3   OH238827   0.178   5.532   1.516  0.4674  0.0591  0.0906
 5779TIP3    H138828   0.267   5.545   1.549  0.1206 -1.4269  1.6967
 5779TIP3    H238829   0.131   5.610   1.545  0.3812 -0.8218  2.4687
 5780TIP3   OH238830   4.121   6.188  14.048 -0.1238  0.2703  0.3580
 5780TIP3    H138831   4.166   6.271  14.034 -1.8907  1.3797  1.0856
 5780TIP3    H238832   4.110   6.151  13.960  0.1135  1.1019 -0.0230
 5781TIP3   OH238833   1.441   1.214   1.863  0.1501 -0.3496  0.6963
 5781TIP3    H138834   1.401   1.278   1.804  1.2762  0.5936  0.9135
 5781TIP3    H238835   1.509   1.264   1.909  0.0985 -1.3649  1.9146
 5782TIP3   OH238836   5.607   1.793  16.446 -0.7652 -0.2491  0.1461
 5782TIP3    H138837   5.689   1.831  16.478 -1.6225  0.3921  1.6064
 5782TIP3    H238838   5.620   1.786  16.351  1.1824 -0.6598  0.4121
 5783TIP3   OH238839   0.844   4.615  15.546  0.0869  0.1217  0.0373
 5783TIP3    H138840   0.936   4.618  15.570 -0.2432 -2.7362  1.9608
 5783TIP3    H238841   0.802   4.679  15.604  0.6622  0.3731  0.1776
 5784TIP3   OH238842   3.671   4.832  17.016  0.1441  0.2756 -0.2085
 5784TIP3    H138843   3.658   4.888  17.092  0.7304  0.6809 -0.3954
 5784TIP3    H238844   3.584   4.823  16.977 -0.2653 -0.4426  0.8518
 5785TIP3   OH238845   0.273   2.796  14.882 -0.8380  0.2741 -0.1829
 5785TIP3    H138846   0.193   2.843  14.904 -1.0454 -0.2682  0.2319
 5785TIP3    H238847   0.340   2.863  14.878 -1.5783  0.9557 -1.9545
 5786TIP3   OH238848   4.792   5.023   3.260  0.1757 -0.1384  0.0361
 5786TIP3    H138849   4.766   4.963   3.191  0.9533 -0.0379 -0.3446
 5786TIP3    H238850   4.741   4.996   3.336  1.0738 -1.7687  0.0841
 5787TIP3   OH238851   6.040   4.274  15.072  0.3447 -0.0079  0.0527
 5787TIP3    H138852   6.125   4.247  15.038 -0.2160  0.4139 -1.7197
 5787TIP3    H238853   6.061   4.329  15.148  1.6668  0.5204 -0.6746
 5788TIP3   OH238854   5.104   4.505  10.758 -0.4350  0.0292  0.0542
 5788TIP3    H138855   5.039   4.561  10.802 -2.0992  0.0504 -2.3120
 5788TIP3    H238856   5.079   4.416  10.781 -1.8678 -0.0057 -1.4784
 5789TIP3   OH238857   3.751   6.180  12.523  0.3344 -0.0888 -0.8691
 5789TIP3    H138858   3.721   6.254  12.576 -1.4555 -0.9620 -0.6324
 5789TIP3    H238859   3.793   6.121  12.586  0.2377 -0.0620 -0.7792
 5790TIP3   OH238860   2.489   6.119   0.848  0.1814  0.3331  0.7098
 5790TIP3    H138861   2.407   6.138   0.803 -0.3040  1.2341  1.9830
 5790TIP3    H238862   2.508   6.028   0.824 -1.5075 -0.0892  0.9264
 5791TIP3   OH238863   4.191   2.022  16.472  0.0583 -0.5394  0.7756
 5791TIP3    H138864   4.128   2.078  16.427  0.6880 -0.8917 -0.5849
 5791TIP3    H238865   4.179   2.041  16.565 -1.0403  0.4568  0.4393
 5792TIP3   OH238866   6.792   1.167   6.000  0.0890  0.1369 -0.3379
 5792TIP3    H138867   6.712   1.216   5.984  0.1282  0.9645  1.8538
 5792TIP3    H238868   6.762   1.082   6.034  0.0862 -0.6108 -2.1486
 5793TIP3   OH238869   0.896   1.574   1.494  0.4505  0.0102 -0.0711
 5793TIP3    H138870   0.810   1.549   1.526 -0.5365  1.1730 -1.7347
 5793TIP3    H238871   0.919   1.651   1.545  0.1876  0.1163 -0.1123
 5794TIP3   OH238872   6.211   3.833  13.364 -0.1391  0.3305 -0.5826
 5794TIP3    H138873   6.147   3.834  13.293  0.7791 -1.3609 -1.4861
 5794TIP3    H238874   6.287   3.787  13.326 -0.0206 -1.5358  1.8280
 5795TIP3   OH238875   3.590   0.817  15.839 -0.3956  0.2470  0.1918
 5795TIP3    H138876   3.545   0.745  15.796 -0.4694 -0.2990  1.1666
 5795TIP3    H238877   3.537   0.894  15.819 -0.2904  0.0444 -0.8887
 5796TIP3   OH238878   0.922   3.161  16.829 -0.4067  0.1888  0.7145
 5796TIP3    H138879   0.837   3.185  16.864  0.0840  1.2169  1.2162
 5796TIP3    H238880   0.951   3.238  16.780  0.5559  0.1181  1.1590
 5797TIP3   OH238881   3.787   5.082   1.799 -0.0832 -0.1129 -0.7148
 5797TIP3    H138882   3.876   5.067   1.769  0.6437  0.7681  0.9369
 5797TIP3    H238883   3.732   5.057   1.725  1.5517 -0.2251 -1.9135
 5798TIP3   OH238884   6.463   5.363   3.565  0.1832  0.6208 -0.5544
 5798TIP3    H138885   6.530   5.305   3.529 -0.0673 -0.2182  0.2981
 5798TIP3    H238886   6.402   5.378   3.493  0.7095  0.5285 -1.0253
 5799TIP3   OH238887   5.793   0.437  17.070 -0.1624  0.2019  0.4673
 5799TIP3    H138888   5.791   0.345  17.097  1.5920  0.6505  2.2547
 5799TIP3    H238889   5.758   0.485  17.145 -2.7599  0.8895 -1.1393
 5800TIP3   OH238890   2.087   6.278  12.130  0.4800  0.0429 -0.3614
 5800TIP3    H138891   1.999   6.258  12.163  0.5651 -0.1207 -0.2292
 5800TIP3    H238892   2.111   6.201  12.079  0.1577  0.4976 -1.2011
 5801TIP3   OH238893   3.229   0.974   4.301  0.1988 -0.9313 -0.3401
 5801TIP3    H138894   3.148   0.957   4.350 -1.1599  1.3735 -1.7117
 5801TIP3    H238895   3.227   0.911   4.229 -1.9961  1.1594 -2.1793
 5802TIP3   OH238896   1.859   3.599   5.840  0.0179 -0.1618 -0.0976
 5802TIP3    H138897   1.948   3.569   5.860  0.0981  0.1805  0.0635
 5802TIP3    H238898   1.852   3.683   5.885 -0.7263 -0.6499  0.6998
 5803TIP3   OH238899   1.137   1.753   4.887  0.0643 -0.2878 -0.1100
 5803TIP3    H138900   1.055   1.717   4.922 -0.1230  0.0978 -0.1476
 5803TIP3    H238901   1.166   1.815   4.954  0.0367 -0.0174 -0.3468
 5804TIP3   OH238902   3.204   5.880   4.148 -0.1487 -0.1356 -0.3259
 5804TIP3    H138903   3.135   5.944   4.131  0.8586  0.9741 -0.2525
 5804TIP3    H238904   3.169   5.798   4.112 -1.1092  0.6160 -1.1502
 5805TIP3   OH238905   4.271   3.100   1.953 -0.7389  0.1384  0.4260
 5805TIP3    H138906   4.348   3.117   1.899  0.4653 -2.3350  1.2590
 5805TIP3    H238907   4.240   3.015   1.923 -2.2822  0.4635  1.0937
 5806TIP3   OH238908   4.482   6.114   3.356  0.3538 -0.1437  0.3026
 5806TIP3    H138909   4.514   6.132   3.444 -0.2994 -2.9646  1.1813
 5806TIP3    H238910   4.407   6.056   3.370 -0.3756  0.1973 -2.0657
 5807TIP3   OH238911   5.785   5.029  14.676  0.1028  0.5832  0.7698
 5807TIP3    H138912   5.857   5.084  14.705  1.2341 -1.1481  1.3525
 5807TIP3    H238913   5.746   4.996  14.757  0.1564 -0.3536  0.4241
 5808TIP3   OH238914   4.450   2.599  11.007  0.3841 -1.2183 -0.6431
 5808TIP3    H138915   4.416   2.517  11.044  0.1110 -0.9972 -0.3991
 5808TIP3    H238916   4.505   2.572  10.934  0.5926 -1.6416 -0.3325
 5809TIP3   OH238917   3.582   3.820  10.557 -0.1693  0.0627  0.2335
 5809TIP3    H138918   3.501   3.788  10.598 -0.8644  0.7525 -0.5945
 5809TIP3    H238919   3.645   3.749  10.572 -0.5512  0.0561  2.0305
 5810TIP3   OH238920   5.881   3.004   4.824  0.0978 -0.0803  0.5360
 5810TIP3    H138921   5.935   3.023   4.900 -0.9934  1.1765  1.0046
 5810TIP3    H238922   5.796   2.981   4.860 -0.9169  2.1766 -0.3440
 5811TIP3   OH238923   2.537   4.080  11.616  0.0019 -0.5321  0.0501
 5811TIP3    H138924   2.530   4.010  11.680 -1.3149  1.0216  1.6755
 5811TIP3    H238925   2.451   4.121  11.615 -0.1881 -0.8199 -3.1339
 5812TIP3   OH238926   0.792   1.924   5.023 -0.1743  0.3170 -0.8253
 5812TIP3    H138927   0.817   1.831   5.018 -1.6409 -0.1144 -0.3296
 5812TIP3    H238928   0.854   1.961   5.086 -1.1260 -0.8985  0.9126
 5813TIP3   OH238929   1.697   3.577  10.897 -0.6052 -0.0263 -0.0171
 5813TIP3    H138930   1.691   3.667  10.928 -2.3141 -0.1632  0.1104
 5813TIP3    H238931   1.624   3.532  10.940  0.4966 -1.5732  0.2688
 5814TIP3   OH238932   5.771   4.650  11.932  0.1813  0.2833 -0.3766
 5814TIP3    H138933   5.730   4.668  11.847  1.0216  0.0637 -0.8438
 5814TIP3    H238934   5.707   4.598  11.979  0.3012 -0.8911 -1.4733
 5815TIP3   OH238935   3.590   6.126   6.157  0.2401 -0.5360  0.1520
 5815TIP3    H138936   3.600   6.180   6.079  1.1064 -0.0665  0.5950
 5815TIP3    H238937   3.604   6.185   6.230  1.1847 -1.3480  0.6407
 5816TIP3   OH238938   3.945   4.611   1.507 -0.0590 -0.3367  0.2574
 5816TIP3    H138939   3.976   4.701   1.501 -1.9876  0.2616 -0.8801
 5816TIP3    H238940   3.893   4.597   1.428  2.3139 -3.2983 -0.9072
 5817TIP3   OH238941   2.640   5.772   6.110  0.0025 -0.4654 -0.3554
 5817TIP3    H138942   2.687   5.852   6.084 -0.6222  0.3737  1.0507
 5817TIP3    H238943   2.674   5.753   6.197  0.6495 -2.1491 -0.9544
 5818TIP3   OH238944   4.195   2.539   1.401 -0.6160  0.6116  0.4676
 5818TIP3    H138945   4.131   2.588   1.349 -0.3641  1.6688  1.1281
 5818TIP3    H238946   4.277   2.547   1.351 -0.6227  0.6833  0.4675
 5819TIP3   OH238947   0.857   4.936   3.535 -0.4293 -0.1858 -0.2215
 5819TIP3    H138948   0.907   4.923   3.616 -1.8922 -0.3686  0.6697
 5819TIP3    H238949   0.843   4.847   3.502  2.0427 -0.0118 -1.8726
 5820TIP3   OH238950   6.573   0.991   3.702 -0.0567 -0.5625  0.4554
 5820TIP3    H138951   6.490   1.010   3.747  0.8759  1.5444  1.3447
 5820TIP3    H238952   6.640   1.024   3.761  1.3906 -1.4262 -0.6831
 5821TIP3   OH238953   5.411   6.073   6.714  0.0226 -0.1349  0.7649
 5821TIP3    H138954   5.355   6.151   6.718  0.2465  0.1217 -0.6940
 5821TIP3    H238955   5.351   6.000   6.726 -0.7313  0.1093 -1.3086
 5822TIP3   OH238956   0.608   5.113  16.952  0.5092 -0.8418 -0.1931
 5822TIP3    H138957   0.584   5.047  16.887 -3.8655  1.2350 -0.8486
 5822TIP3    H238958   0.656   5.179  16.902  0.0439 -0.8391 -0.6332
 5823TIP3   OH238959   6.685   3.454   0.845 -0.6208  0.8161 -0.4972
 5823TIP3    H138960   6.778   3.453   0.870 -0.9049 -1.2449  0.6124
 5823TIP3    H238961   6.660   3.546   0.849  0.3679  0.9961  3.0786
 5824TIP3   OH238962   2.456   3.482  14.411  0.5052 -0.4407  0.2298
 5824TIP3    H138963   2.401   3.481  14.333  0.3021 -0.9420  0.3824
 5824TIP3    H238964   2.521   3.551  14.393  1.2411 -1.4236 -0.9285
 5825TIP3   OH238965   3.807   4.103  13.039  0.1313  0.6249 -0.2367
 5825TIP3    H138966   3.839   4.135  12.954 -0.3590 -1.6925 -1.3340
 5825TIP3    H238967   3.744   4.034  13.017  0.8501 -0.8162  2.0289
 5826TIP3   OH238968   1.000   2.766   4.812 -0.3939 -0.7952  0.2992
 5826TIP3    H138969   1.068   2.699   4.818  1.4722  0.8640 -1.7054
 5826TIP3    H238970   0.940   2.746   4.885  2.5301 -1.9464  2.4808
 5827TIP3   OH238971   0.351   5.111  15.434 -0.1639 -0.1412  0.3155
 5827TIP3    H138972   0.384   5.087  15.348 -0.1362 -0.2057  0.3445
 5827TIP3    H238973   0.428   5.112  15.491 -0.2193 -0.3362  0.3933
 5828TIP3   OH238974   4.023   1.076  12.334 -0.5478 -0.1972  0.1677
 5828TIP3    H138975   3.992   1.156  12.291 -0.6650  1.2390  2.8733
 5828TIP3    H238976   3.944   1.030  12.362 -0.4232 -0.2347  0.4627
 5829TIP3   OH238977   5.177   4.936   3.486 -0.1561  0.0062  0.3927
 5829TIP3    H138978   5.144   5.012   3.437  4.5271  0.0670 -2.9971
 5829TIP3    H238979   5.168   4.961   3.577 -2.9026  2.7448 -0.5456
 5830TIP3   OH238980   0.640   1.051  13.561  0.1693 -0.0358  0.0135
 5830TIP3    H138981   0.580   1.007  13.501 -0.7028  0.0184  0.8328
 5830TIP3    H238982   0.588   1.068  13.640  0.9949  0.8514  0.3881
 5831TIP3   OH238983   6.276   2.876   1.843 -0.7199  0.4452 -0.2704
 5831TIP3    H138984   6.338   2.877   1.916  0.9576 -0.4339 -1.6486
 5831TIP3    H238985   6.330   2.862   1.766 -2.5811  0.3303 -1.5866
 5832TIP3   OH238986   4.624   5.392   2.764 -0.3619 -0.2512  0.2274
 5832TIP3    H138987   4.560   5.353   2.705 -0.1261 -0.9708  0.4428
 5832TIP3    H238988   4.574   5.455   2.815 -0.7084 -0.1409 -0.2532
 5833TIP3   OH238989   4.060   4.406  17.000  0.5048 -0.4133 -0.0133
 5833TIP3    H138990   4.090   4.466  16.932 -1.7495 -1.1604 -1.7556
 5833TIP3    H238991   3.991   4.454  17.046  0.5453 -0.6878  0.3307
 5834TIP3   OH238992   5.055   4.160   3.485  0.4956  0.0280  0.8453
 5834TIP3    H138993   5.086   4.240   3.442 -1.9744  0.9355  0.6980
 5834TIP3    H238994   4.972   4.184   3.525 -1.6275 -3.0903 -1.4068
 5835TIP3   OH238995   5.055   0.114   5.479 -0.0239  0.2483  0.5540
 5835TIP3    H138996   5.132   0.062   5.504 -0.9784 -1.8302 -0.7023
 5835TIP3    H238997   4.985   0.082   5.535 -0.7365 -0.1596 -0.5621
 5836TIP3   OH238998   1.192   2.101  14.798  0.3901  0.2151  0.3588
 5836TIP3    H138999   1.125   2.167  14.779 -0.1034 -0.7091 -1.2570
 5836TIP3    H239000   1.274   2.150  14.798  0.0959  0.7492 -1.4625
 5837TIP3   OH239001   5.206   6.585   2.079 -0.3095 -0.0099  0.2439
 5837TIP3    H139002   5.232   6.537   2.001 -0.6823  0.0938  0.0571
 5837TIP3    H239003   5.168   6.666   2.046 -3.0739 -1.1778  0.4259
 5838TIP3   OH239004   0.603   0.640   1.876  0.7656 -0.2274  0.2217
 5838TIP3    H139005   0.649   0.711   1.830 -0.1727  0.1238 -0.1973
 5838TIP3    H239006   0.628   0.650   1.968  0.0923  1.0980  0.2789
 5839TIP3   OH239007   3.299   4.510  13.435  0.7234 -0.4025 -0.2947
 5839TIP3    H139008   3.277   4.417  13.432 -1.2280  0.0182  0.3222
 5839TIP3    H239009   3.345   4.526  13.353  0.3662 -1.7497 -0.7736
 5840TIP3   OH239010   1.981   3.729   4.737 -0.1828  0.0912 -0.4148
 5840TIP3    H139011   1.975   3.715   4.832 -0.2940  1.7126 -0.1672
 5840TIP3    H239012   2.066   3.691   4.713  1.7230  3.1751  1.0384
 5841TIP3   OH239013   1.233   0.525  16.523 -0.1183  0.2072 -0.3675
 5841TIP3    H139014   1.311   0.486  16.483  0.0510 -1.1625  1.2269
 5841TIP3    H239015   1.231   0.614  16.489  1.7760  0.0585 -0.9439
 5842TIP3   OH239016   0.856   3.630  15.295  0.3297 -0.2589 -0.0088
 5842TIP3    H139017   0.812   3.545  15.287  1.6379 -1.0211  0.5722
 5842TIP3    H239018   0.835   3.676  15.213 -1.7478 -0.4708  0.3852
 5843TIP3   OH239019   2.864   1.959  14.348  0.3239 -0.1000  0.8488
 5843TIP3    H139020   2.889   1.878  14.302  0.4987 -0.3997  1.4637
 5843TIP3    H239021   2.795   1.997  14.294  0.7544 -0.2816  0.1664
 5844TIP3   OH239022   4.632   6.811   5.781 -0.3862 -0.1013  0.1237
 5844TIP3    H139023   4.602   6.735   5.831  0.6865 -1.0572 -0.6807
 5844TIP3    H239024   4.583   6.806   5.699 -0.6487  0.3408  0.2503
 5845TIP3   OH239025   0.163   3.637   6.360  0.1159  0.6440 -0.2223
 5845TIP3    H139026   0.230   3.569   6.365  0.5148  1.1121  0.7670
 5845TIP3    H239027   0.205   3.716   6.393 -0.0936  1.5869 -2.1310
 5846TIP3   OH239028   2.361   2.935   5.543  0.0242 -0.2708  0.8270
 5846TIP3    H139029   2.339   2.855   5.590  0.1832 -1.8435 -1.6896
 5846TIP3    H239030   2.282   2.988   5.546 -0.7531 -1.4245  0.7072
 5847TIP3   OH239031   6.689   3.693  13.521  0.5095 -0.0047 -0.1446
 5847TIP3    H139032   6.729   3.606  13.518  0.0438 -0.1763 -1.9853
 5847TIP3    H239033   6.762   3.754  13.519  0.7582 -0.3351 -1.0802
 5848TIP3   OH239034   5.721   2.679   0.501 -0.0972  0.5795 -0.5184
 5848TIP3    H139035   5.662   2.736   0.551 -1.0471 -0.4897 -0.4054
 5848TIP3    H239036   5.663   2.633   0.440  0.4942 -1.2226  0.2696
 5849TIP3   OH239037   5.781   1.080  16.452 -0.8083 -0.0437  0.2257
 5849TIP3    H139038   5.825   1.154  16.411  0.2031  0.1283  1.5712
 5849TIP3    H239039   5.793   1.007  16.391 -2.2758  1.0123 -1.3615
 5850TIP3   OH239040   3.684   2.239   4.685  0.7169 -0.0612 -0.0362
 5850TIP3    H139041   3.774   2.263   4.704  0.3685  1.1085  0.2059
 5850TIP3    H239042   3.690   2.155   4.640  1.9405  0.1489 -0.2784
 5851TIP3   OH239043   5.939   3.538   4.987 -1.2069 -0.0204 -0.2799
 5851TIP3    H139044   5.935   3.552   4.892  0.4387 -0.7781 -0.4687
 5851TIP3    H239045   5.919   3.624   5.024  1.5205  1.1652 -1.3743
 5852TIP3   OH239046   5.368   4.275  12.092  0.0222  0.0482 -0.2493
 5852TIP3    H139047   5.304   4.205  12.082  1.7395 -1.9029  1.8801
 5852TIP3    H239048   5.451   4.235  12.068  0.9232  1.5849  0.2393
 5853TIP3   OH239049   1.313   6.365  14.202  0.0473 -0.2764 -0.2920
 5853TIP3    H139050   1.353   6.425  14.139  0.9906 -0.4959  0.1011
 5853TIP3    H239051   1.323   6.409  14.287  0.3890 -0.8182 -0.0552
 5854TIP3   OH239052   0.393   3.258  15.462 -0.4885 -0.0858 -0.3400
 5854TIP3    H139053   0.481   3.246  15.498 -0.5022  0.1706 -0.2220
 5854TIP3    H239054   0.351   3.173  15.473 -0.4504 -0.0418  0.1278
 5855TIP3   OH239055   1.429   3.319   3.822  0.6878 -0.3044 -0.2114
 5855TIP3    H139056   1.522   3.343   3.824  0.2878  1.5197 -1.4953
 5855TIP3    H239057   1.391   3.380   3.759 -1.5295 -0.5026  0.8987
 5856TIP3   OH239058   0.118   3.226  10.828  0.4632  0.3310  0.1782
 5856TIP3    H139059   0.117   3.231  10.733  1.3086  0.6518  0.1810
 5856TIP3    H239060   0.053   3.291  10.856 -0.3922 -0.3471 -0.1878
 5857TIP3   OH239061   4.188   3.632   1.305 -0.4977  0.0187  0.5604
 5857TIP3    H139062   4.111   3.591   1.342 -0.7026  2.2931  2.7455
 5857TIP3    H239063   4.162   3.723   1.289  1.6558  0.7804  1.2074
 5858TIP3   OH239064   5.474   2.777  12.164  0.3336 -0.2448 -0.0001
 5858TIP3    H139065   5.549   2.718  12.174 -1.1444 -2.0150  1.0061
 5858TIP3    H239066   5.507   2.862  12.191  2.5547 -0.5464 -1.5550
 5859TIP3   OH239067   5.470   1.987  12.697  0.3664  1.4492  0.4469
 5859TIP3    H139068   5.435   2.033  12.620  0.6487 -0.4142 -0.8160
 5859TIP3    H239069   5.413   2.015  12.769 -1.5705  1.1709 -0.9296
 5860TIP3   OH239070   2.890   5.832  14.104  0.5922 -0.1349  0.2561
 5860TIP3    H139071   2.821   5.778  14.066  0.6934 -0.3975  0.4384
 5860TIP3    H239072   2.969   5.808  14.055  0.9511 -1.3145  1.3756
 5861TIP3   OH239073   5.342   3.198   4.836 -0.4204  0.5133  0.1680
 5861TIP3    H139074   5.292   3.117   4.822  1.2472 -0.3831 -0.7960
 5861TIP3    H239075   5.412   3.194   4.771  0.8574  1.7848  1.4261
 5862TIP3   OH239076   2.033   6.382   1.717 -0.2443  0.3922 -0.2761
 5862TIP3    H139077   2.027   6.360   1.624  1.4006 -0.4883 -0.1882
 5862TIP3    H239078   2.090   6.315   1.754 -1.6090  0.2019  1.5579
 5863TIP3   OH239079   4.820   5.843   4.785  0.2361  0.1295 -0.1466
 5863TIP3    H139080   4.789   5.811   4.870 -0.1021 -0.3948 -0.4657
 5863TIP3    H239081   4.843   5.764   4.737 -1.1519  0.3160 -1.1479
 5864TIP3   OH239082   0.294   0.976  10.654  0.0893  0.0053 -0.0642
 5864TIP3    H139083   0.341   1.030  10.591 -1.4123  1.2602 -0.1480
 5864TIP3    H239084   0.237   0.920  10.600  0.0686 -0.1359  0.1031
 5865TIP3   OH239085   0.808   5.475   5.592 -0.3443 -0.2343  0.1687
 5865TIP3    H139086   0.761   5.526   5.658 -0.3355 -1.8785  1.4989
 5865TIP3    H239087   0.752   5.479   5.515 -1.6833 -0.4473  1.0976
 5866TIP3   OH239088   5.255   4.284   4.065  0.6481 -0.2377  0.1779
 5866TIP3    H139089   5.322   4.349   4.085  0.6946 -0.3080  0.2501
 5866TIP3    H239090   5.254   4.226   4.141  0.3943 -0.1460  0.2446
 5867TIP3   OH239091   3.570   4.538  17.275 -0.2881  0.1969  0.2713
 5867TIP3    H139092   3.548   4.469  17.338 -1.8992 -0.0746 -0.5389
 5867TIP3    H239093   3.569   4.619  17.326  2.9291 -0.4838  1.5146
 5868TIP3   OH239094   4.190   0.280  12.953 -0.3470  0.2125 -0.1243
 5868TIP3    H139095   4.169   0.346  13.019 -0.5706 -0.0123  0.0297
 5868TIP3    H239096   4.276   0.248  12.979 -1.7100 -1.9987  1.7899
 5869TIP3   OH239097   4.045   0.140  15.921  0.0660  0.1092  0.1114
 5869TIP3    H139098   4.068   0.067  15.864 -0.7231  0.6717 -0.9419
 5869TIP3    H239099   3.953   0.158  15.901 -0.6099 -0.5081  2.4808
 5870TIP3   OH239100   1.005   3.342  15.061 -0.4292 -0.3247 -0.2164
 5870TIP3    H139101   1.035   3.389  15.138 -2.4576 -1.3491  1.2321
 5870TIP3    H239102   1.029   3.251  15.077 -1.2187 -0.6061 -0.6104
 5871TIP3   OH239103   1.579   1.082  12.852  0.2448 -0.4407 -0.4546
 5871TIP3    H139104   1.641   1.154  12.845 -0.6552  0.3425 -0.4695
 5871TIP3    H239105   1.630   1.010  12.891  1.3423 -0.0549 -1.1624
 5872TIP3   OH239106   1.349   1.246  10.608 -0.2674  0.2483 -0.3395
 5872TIP3    H139107   1.300   1.178  10.654 -1.1307  0.5700 -0.7699
 5872TIP3    H239108   1.291   1.274  10.537  0.0138  1.5502 -0.0643
 5873TIP3   OH239109   4.419   2.938  13.518 -0.4549  0.3494  0.8747
 5873TIP3    H139110   4.398   3.030  13.533 -3.5544 -0.0528 -0.5737
 5873TIP3    H239111   4.460   2.936  13.431 -3.0372  0.1111 -0.4090
 5874TIP3   OH239112   4.422   1.400   0.171  0.2870  0.6652  0.7621
 5874TIP3    H139113   4.374   1.458   0.229  0.5818  0.2995  1.3784
 5874TIP3    H239114   4.457   1.332   0.229 -0.1966 -0.2155  0.0286
 5875TIP3   OH239115   5.113   5.326   3.650  0.3144 -0.0839 -0.2400
 5875TIP3    H139116   5.103   5.414   3.612  1.2281 -0.8657 -2.3522
 5875TIP3    H239117   5.206   5.308   3.644  0.3302 -0.6995  1.4354
 5876TIP3   OH239118   6.724   0.486  17.188  0.6127 -0.0853  0.4216
 5876TIP3    H139119   6.682   0.452  17.267 -0.7416  1.3737  0.3373
 5876TIP3    H239120   6.656   0.481  17.120  1.7240 -1.2074 -0.6372
 5877TIP3   OH239121   4.567   6.086  13.187  0.5046  0.3716 -0.3338
 5877TIP3    H139122   4.658   6.105  13.210  0.6438 -0.2921 -0.3305
 5877TIP3    H239123   4.521   6.087  13.271  1.1354 -2.7373  0.1166
 5878TIP3   OH239124   6.763   0.317   4.047  0.1299 -0.3002  0.1789
 5878TIP3    H139125   6.811   0.392   4.082  0.0804  0.6550 -1.7501
 5878TIP3    H239126   6.695   0.355   3.992 -0.8690 -1.7214  0.4112
 5879TIP3   OH239127   6.669   1.775   1.403 -0.7837 -0.0531 -0.0394
 5879TIP3    H139128   6.642   1.823   1.482 -1.4563  0.1460 -0.3813
 5879TIP3    H239129   6.755   1.810   1.381 -1.1164  0.7434 -0.0781
 5880TIP3   OH239130   5.846   1.621  11.293  0.7091 -0.1905 -0.1398
 5880TIP3    H139131   5.914   1.570  11.337 -0.4737 -2.2737 -0.6669
 5880TIP3    H239132   5.875   1.626  11.202  0.2535 -0.9178 -0.3258
 5881TIP3   OH239133   0.554   0.255  14.624  0.0558 -0.2755  0.3320
 5881TIP3    H139134   0.548   0.303  14.706  1.8549 -0.0655  0.3547
 5881TIP3    H239135   0.624   0.299  14.575  0.0450 -1.3398 -0.6696
 5882TIP3   OH239136   2.063   4.675  13.878 -0.2087 -0.6372  1.1008
 5882TIP3    H139137   2.046   4.583  13.860  0.4095 -0.4927 -0.2287
 5882TIP3    H239138   2.134   4.699  13.819 -1.0594  0.9719  0.7050
 5883TIP3   OH239139   1.597   5.471  11.770  0.0169 -0.0032 -0.9207
 5883TIP3    H139140   1.552   5.550  11.801 -0.6804 -0.5297 -0.5840
 5883TIP3    H239141   1.683   5.474  11.813 -0.6248 -0.2881  0.4281
 5884TIP3   OH239142   4.478   0.127  13.807 -0.3327 -0.0329  0.0077
 5884TIP3    H139143   4.429   0.209  13.799 -1.3682 -0.6551  0.0082
 5884TIP3    H239144   4.533   0.140  13.885 -0.9395  0.4204  0.3642
 5885TIP3   OH239145   0.349   3.746  17.196  0.3308 -0.3336 -0.4409
 5885TIP3    H139146   0.312   3.759  17.283 -0.0726 -1.8510 -0.3710
 5885TIP3    H239147   0.303   3.810  17.140 -0.5702 -0.4660  0.1388
 5886TIP3   OH239148   1.042   5.868  13.793 -0.2518 -0.3009  0.1597
 5886TIP3    H139149   0.956   5.829  13.778 -0.0296 -0.7064 -0.0615
 5886TIP3    H239150   1.025   5.941  13.853 -0.8514  0.0802 -0.4727
 5887TIP3   OH239151   2.045   2.415  14.375  0.0959 -0.4720 -0.4106
 5887TIP3    H139152   2.137   2.391  14.383 -0.0561 -0.9193  0.0421
 5887TIP3    H239153   2.041   2.474  14.299  1.3312  2.5212  1.7653
 5888TIP3   OH239154   2.109   6.564   0.858 -0.2063  0.1600 -0.0149
 5888TIP3    H139155   2.069   6.613   0.929 -1.2539  0.4467 -0.7915
 5888TIP3    H239156   2.126   6.629   0.790  2.9027  0.3008  0.8419
 5889TIP3   OH239157   2.510   3.091   2.955 -0.0214 -0.0972  0.1431
 5889TIP3    H139158   2.571   3.157   2.920 -0.1030 -0.2013 -0.1986
 5889TIP3    H239159   2.435   3.095   2.896 -0.0466 -0.4669  0.1525
 5890TIP3   OH239160   3.169   0.161  13.545 -0.2660 -0.0528  0.1003
 5890TIP3    H139161   3.173   0.099  13.618  1.1022 -0.9353 -0.6987
 5890TIP3    H239162   3.236   0.226  13.565  1.4147 -1.3138 -1.2424
 5891TIP3   OH239163   1.469   1.618   6.997  0.3208  0.1743 -0.5135
 5891TIP3    H139164   1.382   1.608   7.037  0.7015  0.3502  0.3549
 5891TIP3    H239165   1.454   1.599   6.904 -0.7712  0.7744 -0.4751
 5892TIP3   OH239166   5.002   1.757   6.526  0.1002  0.0298 -0.2785
 5892TIP3    H139167   5.036   1.768   6.615  1.1697  1.4240 -0.8265
 5892TIP3    H239168   4.986   1.847   6.496  0.1452 -0.4094 -1.6319
 5893TIP3   OH239169   6.732   5.223   4.853  0.2823 -0.0656 -0.1141
 5893TIP3    H139170   6.775   5.216   4.768 -0.0579  0.0674 -0.3009
 5893TIP3    H239171   6.734   5.317   4.874 -2.2742  0.3369 -1.3861
 5894TIP3   OH239172   4.389   5.732   0.690 -0.0801 -0.4102 -0.0726
 5894TIP3    H139173   4.366   5.647   0.727 -2.4070 -0.6983 -2.0598
 5894TIP3    H239174   4.315   5.788   0.711  0.4389  0.5254 -0.7111
 5895TIP3   OH239175   1.591   2.806  13.565  0.4243  0.3507  0.0961
 5895TIP3    H139176   1.592   2.797  13.470 -1.4726 -0.8367  0.1705
 5895TIP3    H239177   1.575   2.718  13.598  2.8542  0.4172  1.6109
 5896TIP3   OH239178   1.687   6.077  14.229 -0.6069 -0.4149  0.7148
 5896TIP3    H139179   1.624   6.018  14.188 -1.6180  0.6987  0.6313
 5896TIP3    H239180   1.743   6.106  14.158 -1.0060 -0.1617  0.5033
 5897TIP3   OH239181   4.474   0.483   4.068  0.2226 -0.4574 -0.2160
 5897TIP3    H139182   4.553   0.529   4.097 -0.2791  1.6825 -2.0592
 5897TIP3    H239183   4.402   0.540   4.095 -0.5096 -0.8328 -1.3491
 5898TIP3   OH239184   1.934   4.650  16.672 -0.1260  0.4073 -0.5267
 5898TIP3    H139185   1.861   4.589  16.658  0.5746 -0.5499 -0.0446
 5898TIP3    H239186   1.983   4.647  16.589  0.5950 -0.6280 -0.0739
 5899TIP3   OH239187   2.859   4.340  15.715 -0.3769  0.1682 -0.2620
 5899TIP3    H139188   2.811   4.278  15.770  0.0647  1.5610  1.7742
 5899TIP3    H239189   2.827   4.325  15.626  0.6130 -3.7855 -0.0189
 5900TIP3   OH239190   0.133   5.242   0.785 -0.4586  0.4472  0.1153
 5900TIP3    H139191   0.192   5.269   0.715  1.3612  0.1988  1.4988
 5900TIP3    H239192   0.134   5.146   0.782  0.1564  0.4257  0.9034
 5901TIP3   OH239193   5.159   0.979  12.796 -0.2497 -0.0464  0.2018
 5901TIP3    H139194   5.102   1.033  12.740 -0.8153 -1.5701 -0.7005
 5901TIP3    H239195   5.233   0.956  12.740 -0.5201 -1.0817  0.2750
 5902TIP3   OH239196   0.988   1.923   0.335  0.3140 -0.4412 -0.0852
 5902TIP3    H139197   1.004   1.982   0.409 -0.3153 -1.5830  0.9840
 5902TIP3    H239198   0.922   1.969   0.282  0.5318  0.2429  0.2304
 5903TIP3   OH239199   6.675   0.319  12.319 -0.0881 -0.4648 -0.4472
 5903TIP3    H139200   6.705   0.268  12.243 -0.4158 -1.5061  0.1190
 5903TIP3    H239201   6.753   0.330  12.373  0.5204  1.6491 -1.6745
 5904TIP3   OH239202   1.630   2.681  17.091  0.6159 -0.0318  0.0067
 5904TIP3    H139203   1.723   2.688  17.112  0.4947 -0.7339  0.8275
 5904TIP3    H239204   1.626   2.696  16.996  1.4241  1.1176  0.1389
 5905TIP3   OH239205   6.156   2.709   4.045 -0.0923 -0.1524  0.2376
 5905TIP3    H139206   6.113   2.790   4.071  1.7321  0.7163  0.5540
 5905TIP3    H239207   6.249   2.730   4.040  0.3663 -2.1034 -0.1126
 5906TIP3   OH239208   1.921   4.555  12.431 -0.3908 -0.5958 -0.2008
 5906TIP3    H139209   1.832   4.521  12.424 -1.0348  0.9833  0.1518
 5906TIP3    H239210   1.914   4.629  12.491  0.9410  0.2473 -1.0586
 5907TIP3   OH239211   1.528   2.792  12.945  0.3376 -0.5922  0.5269
 5907TIP3    H139212   1.618   2.759  12.954  0.0033 -0.8811  2.9171
 5907TIP3    H239213   1.536   2.864  12.883  1.8514 -2.0681 -1.0608
 5908TIP3   OH239214   3.865   1.249  13.806  0.5852 -0.2201 -0.5919
 5908TIP3    H139215   3.789   1.307  13.796 -0.5615 -1.8644 -1.5162
 5908TIP3    H239216   3.912   1.285  13.881 -0.7759  1.1871 -0.3868
 5909TIP3   OH239217   5.509   4.933  12.082 -0.4562  0.3104  0.2336
 5909TIP3    H139218   5.459   4.860  12.117 -0.5136  0.3739  0.2812
 5909TIP3    H239219   5.593   4.930  12.128  0.0588 -0.5578 -0.7390
 5910TIP3   OH239220   4.540   1.824   5.124  0.4317  0.3752  0.7028
 5910TIP3    H139221   4.559   1.887   5.194  0.7004  0.6269  0.4061
 5910TIP3    H239222   4.459   1.856   5.084  0.4415  0.4034  0.7052
 5911TIP3   OH239223   5.512   4.089   0.492 -0.5428  0.1903 -0.1674
 5911TIP3    H139224   5.480   4.027   0.427  0.8637 -1.9830  1.1624
 5911TIP3    H239225   5.606   4.097   0.472 -0.3955  0.6288  0.6950
 5912TIP3   OH239226   0.179   2.831   1.142 -1.0758 -0.2488 -0.3572
 5912TIP3    H139227   0.105   2.886   1.167 -1.2412 -0.8896  0.5719
 5912TIP3    H239228   0.222   2.809   1.224 -1.2025 -1.7703 -0.6870
 5913TIP3   OH239229   6.573   3.001   5.842  0.3371  0.1720  0.0417
 5913TIP3    H139230   6.534   2.978   5.758  1.2725  0.9181 -0.6022
 5913TIP3    H239231   6.499   3.023   5.898 -0.2254  0.5520 -0.8555
 5914TIP3   OH239232   4.901   3.863  12.931 -0.2986 -0.3576 -0.0552
 5914TIP3    H139233   4.913   3.924  13.004 -1.2734 -2.0487  1.5390
 5914TIP3    H239234   4.806   3.848  12.927 -0.2343 -0.5168 -1.4950
 5915TIP3   OH239235   2.262   1.583  10.725 -0.2582 -0.3545 -0.3201
 5915TIP3    H139236   2.217   1.634  10.793  0.6818  1.2569 -0.8921
 5915TIP3    H239237   2.194   1.565  10.660 -0.6786 -0.1717  0.0673
 5916TIP3   OH239238   1.943   1.031   4.351 -0.3132 -0.3851 -0.4599
 5916TIP3    H139239   1.901   1.087   4.286 -1.9163 -2.5953 -1.3767
 5916TIP3    H239240   1.906   1.059   4.434 -1.6758 -0.5970 -0.9892
 5917TIP3   OH239241   2.371   2.551   4.652 -0.4639 -0.2006 -0.9003
 5917TIP3    H139242   2.286   2.513   4.627 -0.8361  0.2151 -0.2873
 5917TIP3    H239243   2.405   2.589   4.571 -0.5651 -0.9264 -1.2938
 5918TIP3   OH239244   2.246   1.568  16.035 -0.8923  0.4171 -0.0190
 5918TIP3    H139245   2.250   1.475  16.009 -2.2896  0.4018 -0.2364
 5918TIP3    H239246   2.187   1.569  16.109 -2.6979  1.4165 -1.4341
 5919TIP3   OH239247   2.835   3.439  12.148 -0.3916  0.4161  0.2222
 5919TIP3    H139248   2.770   3.493  12.103  0.8918  2.2817  0.5467
 5919TIP3    H239249   2.795   3.417  12.232 -1.0332  0.6242 -0.0239
 5920TIP3   OH239250   2.963   5.588   4.264 -0.0201  0.0620  0.0898
 5920TIP3    H139251   2.975   5.627   4.177 -0.9474 -2.9269 -1.4671
 5920TIP3    H239252   3.033   5.523   4.270  0.0670  0.2971  1.6245
 5921TIP3   OH239253   5.409   0.616  12.148  0.1318  0.5734  0.4120
 5921TIP3    H139254   5.435   0.549  12.085  1.1563  0.1855  1.2528
 5921TIP3    H239255   5.313   0.616  12.144  0.1719  0.0483 -0.6200
 5922TIP3   OH239256   6.102   3.823   2.915 -0.3367  0.1008  0.5304
 5922TIP3    H139257   6.065   3.828   3.004 -0.2102 -0.2207  0.6023
 5922TIP3    H239258   6.151   3.741   2.915  1.7634  1.3170  0.9584
 5923TIP3   OH239259   0.770   3.793  15.069  0.2968 -0.3926  0.7957
 5923TIP3    H139260   0.752   3.747  14.987  0.4189  0.0583  0.5128
 5923TIP3    H239261   0.834   3.860  15.045 -0.9292  0.8421  0.9053
 5924TIP3   OH239262   5.808   4.411   1.333  0.1938  0.1945  0.4855
 5924TIP3    H139263   5.828   4.388   1.243  2.3078  2.0452  0.4278
 5924TIP3    H239264   5.751   4.488   1.327  1.5659  1.2550  0.6935
 5925TIP3   OH239265   4.097   0.781   4.833  0.0108  0.2160 -0.0366
 5925TIP3    H139266   4.177   0.825   4.806  1.3940 -1.2621  1.5141
 5925TIP3    H239267   4.094   0.791   4.928 -0.5032 -1.5567  0.1710
 5926TIP3   OH239268   6.520   4.910  16.122 -0.1411  1.3096 -0.3464
 5926TIP3    H139269   6.436   4.952  16.142 -0.2516  0.1279  1.8995
 5926TIP3    H239270   6.584   4.961  16.172 -0.0622 -0.0760  1.0418
 5927TIP3   OH239271   2.029   3.400   0.579  0.5031  0.1919 -0.1109
 5927TIP3    H139272   1.996   3.311   0.594 -2.4760  1.2617  0.1374
 5927TIP3    H239273   2.117   3.400   0.615  0.4974 -2.6250 -0.0032
 5928TIP3   OH239274   3.508   6.117  15.818 -0.4438  0.1949 -0.3724
 5928TIP3    H139275   3.499   6.206  15.853 -0.5627 -0.2070  0.6444
 5928TIP3    H239276   3.418   6.089  15.801 -0.4170  0.2180 -0.5477
 5929TIP3   OH239277   3.614   0.958   1.284  0.2092 -0.5318  0.0083
 5929TIP3    H139278   3.640   0.890   1.222  0.4098 -1.7288  1.3766
 5929TIP3    H239279   3.614   0.914   1.370 -2.5416  0.4149  0.5560
 5930TIP3   OH239280   4.093   3.898  12.318 -0.3573  0.2180  0.1782
 5930TIP3    H139281   4.031   3.950  12.266 -1.6294 -1.0085  0.4320
 5930TIP3    H239282   4.037   3.843  12.373  0.8243 -3.3705 -1.9978
 5931TIP3   OH239283   0.493   1.622  17.223 -0.2941 -0.1477 -0.3879
 5931TIP3    H139284   0.556   1.620  17.296  0.2244  2.7973 -0.6989
 5931TIP3    H239285   0.546   1.604  17.145 -0.6956 -2.3788 -0.1886
 5932TIP3   OH239286   1.032   0.369   5.917 -0.2101  0.0990 -0.2947
 5932TIP3    H139287   1.086   0.322   5.854 -1.0661  0.1341 -1.0660
 5932TIP3    H239288   0.942   0.347   5.893 -0.5347 -0.3936  1.3160
 5933TIP3   OH239289   0.689   1.642   4.709  0.2398  1.2196 -0.4453
 5933TIP3    H139290   0.777   1.607   4.724 -0.0691  0.1675 -0.9991
 5933TIP3    H239291   0.655   1.589   4.637 -1.4411  0.5157  0.8355
 5934TIP3   OH239292   1.372   5.242   5.496 -0.3514  0.0069 -0.3496
 5934TIP3    H139293   1.297   5.251   5.556  0.5507 -2.2307  1.1360
 5934TIP3    H239294   1.446   5.223   5.553  0.1838 -4.0314 -2.2943
 5935TIP3   OH239295   0.064   4.405  14.939 -0.2203 -0.1148 -0.1208
 5935TIP3    H139296   0.023   4.480  14.982 -0.7169 -1.4271  1.7464
 5935TIP3    H239297   0.030   4.329  14.985  1.3287 -1.4293 -1.0819
 5936TIP3   OH239298   4.047   5.826  12.808 -0.5650 -0.2017  0.2802
 5936TIP3    H139299   4.015   5.776  12.732  0.0263  0.3974 -0.3627
 5936TIP3    H239300   4.142   5.819  12.802 -0.4896  0.8511  0.2960
 5937TIP3   OH239301   2.787   4.779  14.743 -0.4903 -0.3154 -0.7206
 5937TIP3    H139302   2.837   4.855  14.714  0.5657 -1.0309 -0.8132
 5937TIP3    H239303   2.716   4.770  14.679 -1.7492  1.7016  0.3469
 5938TIP3   OH239304   0.327   5.348  16.981  0.6313  0.3008 -0.0194
 5938TIP3    H139305   0.333   5.279  16.915 -0.4118 -1.1619  1.3675
 5938TIP3    H239306   0.413   5.347  17.024 -0.9465 -3.7221  3.4007
 5939TIP3   OH239307   3.196   1.210   0.980 -0.4194  0.0551  0.0246
 5939TIP3    H139308   3.195   1.115   0.973  2.4837 -0.0794  0.9523
 5939TIP3    H239309   3.139   1.228   1.055 -3.5290 -0.6801 -2.0599
 5940TIP3   OH239310   3.022   5.619  16.353  0.3220 -0.0822  0.6013
 5940TIP3    H139311   3.017   5.679  16.427 -0.1854 -0.3740  0.8082
 5940TIP3    H239312   2.982   5.666  16.280  1.4154  0.4611  0.3308
 5941TIP3   OH239313   3.727   3.631   4.688  0.0795  0.2077 -0.3487
 5941TIP3    H139314   3.680   3.662   4.766 -0.1392 -0.2931 -0.2822
 5941TIP3    H239315   3.758   3.711   4.646 -0.1278  0.5003  0.0487
 5942TIP3   OH239316   6.025   1.061  12.899  0.5116  0.8524  0.2267
 5942TIP3    H139317   6.109   1.052  12.854  1.1665 -0.5962  1.6763
 5942TIP3    H239318   5.963   1.018  12.840  0.8328  1.6026 -0.6804
 5943TIP3   OH239319   5.043   2.078   4.151 -0.5398 -0.6084 -0.0550
 5943TIP3    H139320   4.966   2.073   4.207 -2.8595 -1.2916 -3.2303
 5943TIP3    H239321   5.033   2.160   4.102  0.3238 -1.0871 -1.0631
 5944TIP3   OH239322   6.166   0.143  16.727  0.3782  0.4107  0.0033
 5944TIP3    H139323   6.194   0.222  16.772 -0.5378  0.0446  1.2214
 5944TIP3    H239324   6.127   0.088  16.795  0.7711 -0.9853 -0.8645
 5945TIP3   OH239325   2.926   2.372  10.739 -0.4322  0.4122 -0.1625
 5945TIP3    H139326   3.008   2.340  10.701  0.4320  1.6514  0.6111
 5945TIP3    H239327   2.867   2.297  10.735  0.1622  0.0086 -2.3570
 5946TIP3   OH239328   1.369   2.943  15.035  0.5159 -0.1847 -0.5781
 5946TIP3    H139329   1.304   2.885  14.994 -0.6485  2.2074 -2.1903
 5946TIP3    H239330   1.448   2.932  14.983 -0.0564  0.5603 -1.6016
 5947TIP3   OH239331   3.397   4.867  11.471  0.1169 -0.3509  0.6173
 5947TIP3    H139332   3.361   4.785  11.438 -0.9122 -0.0112  0.8560
 5947TIP3    H239333   3.343   4.887  11.548 -1.8375  2.2659 -1.3738
 5948TIP3   OH239334   5.918   0.026   4.844 -0.4022  0.1767  0.1010
 5948TIP3    H139335   5.957   0.095   4.791 -0.4754  1.2215  1.3659
 5948TIP3    H239336   5.963  -0.054   4.817  1.7352  1.1530  0.6405
 5949TIP3   OH239337   3.968   6.810  15.541  0.5987 -0.1864 -0.2725
 5949TIP3    H139338   4.006   6.876  15.483  0.4137 -0.8420 -1.1511
 5949TIP3    H239339   4.028   6.805  15.615  0.7379  0.7913 -0.3184
 5950TIP3   OH239340   1.441   1.694   1.966  0.1254  0.2169 -0.2070
 5950TIP3    H139341   1.349   1.683   1.945 -0.4729  2.1161  1.2690
 5950TIP3    H239342   1.442   1.747   2.045  2.4759 -0.4787  0.2992
 5951TIP3   OH239343   6.314   4.020   3.100 -0.3350 -0.4322 -0.6039
 5951TIP3    H139344   6.262   3.985   3.172  0.3254 -0.4058 -0.1102
 5951TIP3    H239345   6.254   4.077   3.052 -0.5827  0.1042  0.3397
 5952TIP3   OH239346   5.259   2.398  12.513 -0.3303 -0.4815 -0.8542
 5952TIP3    H139347   5.312   2.472  12.542  0.5750 -1.0632 -0.9769
 5952TIP3    H239348   5.237   2.418  12.422 -1.3699  0.3445 -0.4263
 5953TIP3   OH239349   4.036   5.538  14.295 -0.0801  0.1131  0.6409
 5953TIP3    H139350   4.115   5.500  14.256  0.4535 -1.2206  2.9504
 5953TIP3    H239351   3.990   5.579  14.221  2.3814  0.2578 -0.8554
 5954TIP3   OH239352   3.300   2.194  16.559  0.5584 -0.1807 -0.5097
 5954TIP3    H139353   3.315   2.125  16.623 -0.2780  1.3193  1.3591
 5954TIP3    H239354   3.211   2.180  16.528  0.0065  0.6616  0.6605
 5955TIP3   OH239355   0.115   0.198  16.086 -0.1912  0.3940  0.0095
 5955TIP3    H139356   0.048   0.267  16.076 -0.5299  0.0204 -0.3195
 5955TIP3    H239357   0.081   0.125  16.035  2.0720  1.3199 -2.9010
 5956TIP3   OH239358   6.265   3.248   3.842 -0.2798  0.4315  0.6734
 5956TIP3    H139359   6.191   3.283   3.793 -0.2800  2.4900  2.1050
 5956TIP3    H239360   6.226   3.214   3.923  0.2611  0.8524  1.1074
 5957TIP3   OH239361   4.495   4.229  12.617 -0.0024 -0.4469  0.0081
 5957TIP3    H139362   4.435   4.168  12.575 -0.1418 -0.4217  0.1689
 5957TIP3    H239363   4.561   4.174  12.658  0.6169 -0.4396 -0.9763
 5958TIP3   OH239364   1.625   4.338  12.977 -0.4817 -0.2041  0.4002
 5958TIP3    H139365   1.694   4.393  12.939  0.7546  0.3328  3.2584
 5958TIP3    H239366   1.667   4.253  12.990 -0.7960 -0.2832  0.8909
 5959TIP3   OH239367   6.168   1.404  14.117 -0.1997  0.1534  0.1354
 5959TIP3    H139368   6.211   1.360  14.190 -0.4791 -0.1691  0.1094
 5959TIP3    H239369   6.224   1.386  14.042 -0.2125  0.0090  0.1610
 5960TIP3   OH239370   2.725   2.415   6.775  0.1856 -0.1575  0.3744
 5960TIP3    H139371   2.725   2.508   6.753  0.2662  0.1614  1.6756
 5960TIP3    H239372   2.632   2.393   6.782  0.1756 -0.0128  0.7112
 5961TIP3   OH239373   4.258   2.474   2.961  0.2737  0.3683  0.8063
 5961TIP3    H139374   4.261   2.463   2.866  0.0614  1.0173  0.7271
 5961TIP3    H239375   4.194   2.410   2.990  1.6100 -1.0657  0.6920
 5962TIP3   OH239376   6.479   1.081  11.931 -0.3880  0.4706 -0.4617
 5962TIP3    H139377   6.486   1.032  12.012  1.0403 -0.3658 -1.0626
 5962TIP3    H239378   6.492   1.172  11.956  0.3921  0.1813  0.2092
 5963TIP3   OH239379   1.883   0.543  10.893 -0.0170 -0.4526  0.2155
 5963TIP3    H139380   1.839   0.533  10.809 -0.6064 -0.3381  0.5102
 5963TIP3    H239381   1.928   0.460  10.906  1.8186  0.3012 -1.2017
 5964TIP3   OH239382   5.768   0.128  14.245  0.5189  0.6681  0.2380
 5964TIP3    H139383   5.736   0.191  14.309  0.2582  1.2281 -0.4391
 5964TIP3    H239384   5.705   0.131  14.173  0.1906 -0.7710  0.4369
 5965TIP3   OH239385   3.368   0.463  16.974 -0.2319 -0.0192 -0.0679
 5965TIP3    H139386   3.281   0.496  16.949 -0.2245  0.0447 -0.0112
 5965TIP3    H239387   3.412   0.539  17.013 -0.5987 -0.3672  1.0560
 5966TIP3   OH239388   1.593   1.171   0.393 -0.3403 -0.2189  0.9090
 5966TIP3    H139389   1.552   1.248   0.352 -1.4330 -1.2534 -0.0011
 5966TIP3    H239390   1.666   1.206   0.442  0.7425  1.1560 -1.5744
 5967TIP3   OH239391   1.847   4.403   4.771  0.7469 -0.0706 -0.6938
 5967TIP3    H139392   1.913   4.434   4.710  0.2584  1.7739 -0.3247
 5967TIP3    H239393   1.803   4.483   4.801  0.4030 -1.0041  1.3817
 5968TIP3   OH239394   1.282   6.560   5.667 -0.1878 -0.7049 -0.3930
 5968TIP3    H139395   1.222   6.545   5.593 -0.6786 -0.6600 -0.0064
 5968TIP3    H239396   1.368   6.537   5.633 -0.6874 -2.7075 -0.3536
 5969TIP3   OH239397   4.120   3.184   0.080  0.9983 -0.7843  0.1949
 5969TIP3    H139398   4.201   3.179   0.131  1.9634 -1.6991 -1.3715
 5969TIP3    H239399   4.143   3.146  -0.005 -1.4782 -2.5295  0.2384
 5970TIP3   OH239400   3.174   1.804   0.712 -0.4013  0.6155 -0.0279
 5970TIP3    H139401   3.267   1.788   0.702 -1.0455 -2.4091 -1.9970
 5970TIP3    H239402   3.151   1.862   0.639 -0.3399  0.0056 -0.5365
 5971TIP3   OH239403   0.711   2.271  11.078 -0.0373 -0.5514 -0.2428
 5971TIP3    H139404   0.793   2.316  11.060 -0.1542 -0.3082 -0.1737
 5971TIP3    H239405   0.710   2.197  11.018 -0.3761  0.1852 -1.1441
 5972TIP3   OH239406   3.626   1.932   2.222 -0.5079  0.6473  0.1554
 5972TIP3    H139407   3.539   1.897   2.238 -0.6862  0.8324 -0.4232
 5972TIP3    H239408   3.639   1.924   2.128 -0.1205  1.1400  0.1653
 5973TIP3   OH239409   2.240   2.824   0.792  0.4846 -0.1004 -0.0640
 5973TIP3    H139410   2.178   2.841   0.863 -0.0390  2.5533 -1.0676
 5973TIP3    H239411   2.190   2.841   0.713  1.5145 -1.4351 -1.0122
 5974TIP3   OH239412   5.955   3.240   1.935 -0.2170  0.1486 -0.1870
 5974TIP3    H139413   5.949   3.151   1.903 -0.5078  0.4597 -1.0109
 5974TIP3    H239414   5.957   3.294   1.856  1.5646  0.7767  0.2669
 5975TIP3   OH239415   1.815   5.741  12.900  0.5651  0.2266  0.2074
 5975TIP3    H139416   1.833   5.810  12.836  2.9021 -0.5187  0.0231
 5975TIP3    H239417   1.737   5.697  12.866  1.2741  0.3943 -1.6823
 5976TIP3   OH239418   6.311   0.322   4.530 -0.1814 -0.2155  0.1808
 5976TIP3    H139419   6.397   0.348   4.562 -0.6489 -0.6882  1.8289
 5976TIP3    H239420   6.289   0.245   4.582 -1.8054  0.1748  0.0758
 5977TIP3   OH239421   5.409   2.713  15.101  0.1013  0.7099  0.2642
 5977TIP3    H139422   5.498   2.708  15.066 -0.4492  0.9499 -1.1878
 5977TIP3    H239423   5.370   2.629  15.079  0.7292 -0.4072  3.1024
 5978TIP3   OH239424   5.432   5.365  12.412  0.0160 -0.3762 -0.1879
 5978TIP3    H139425   5.486   5.337  12.486  0.1294 -1.5220 -0.6989
 5978TIP3    H239426   5.439   5.461  12.413 -0.5403 -0.3381  1.6905
 5979TIP3   OH239427   1.368   5.857  11.609 -0.0135  0.1979  0.5435
 5979TIP3    H139428   1.401   5.946  11.618 -1.4440  0.6308  1.8199
 5979TIP3    H239429   1.388   5.832  11.519  1.1266  1.5108  0.4307
 5980TIP3   OH239430   2.268   3.683  13.326 -0.3154  0.4091 -0.3502
 5980TIP3    H139431   2.208   3.739  13.277 -1.5973 -0.4407  0.2083
 5980TIP3    H239432   2.269   3.601  13.277  2.5408  1.3065 -1.8718
 5981TIP3   OH239433   4.613   6.532   5.152 -0.2512 -0.3647  0.9264
 5981TIP3    H139434   4.674   6.543   5.079 -1.4969  1.2037  0.0745
 5981TIP3    H239435   4.540   6.483   5.115 -0.3961 -0.5253  1.4249
 5982TIP3   OH239436   3.025   4.986  12.921 -0.4861 -0.0080 -0.1609
 5982TIP3    H139437   2.987   4.898  12.927 -0.2451 -0.0136  1.7734
 5982TIP3    H239438   3.119   4.971  12.915 -0.3087  0.1203  1.8916
 5983TIP3   OH239439   5.954   2.511  14.899  0.3915  0.3120 -0.0600
 5983TIP3    H139440   5.953   2.443  14.832  1.3659 -0.2396  0.4692
 5983TIP3    H239441   5.911   2.471  14.975 -0.8768  0.9967 -0.4001
 5984TIP3   OH239442   1.884   1.924  16.751  0.0527  0.1423 -0.2831
 5984TIP3    H139443   1.789   1.933  16.745  0.0358 -0.6226 -1.3104
 5984TIP3    H239444   1.916   1.940  16.662  0.8657  0.2452  0.0217
 5985TIP3   OH239445   5.783   0.340  15.718 -0.7213  0.1903  0.2510
 5985TIP3    H139446   5.787   0.259  15.767 -0.7914  1.4305  2.3606
 5985TIP3    H239447   5.862   0.341  15.664  0.0386 -0.5640  1.3519
 5986TIP3   OH239448   0.721   5.340   0.350  0.3277 -0.3403 -0.4149
 5986TIP3    H139449   0.680   5.378   0.427  1.1554  1.1120 -0.6709
 5986TIP3    H239450   0.688   5.392   0.276  2.4919  0.7703 -0.6329
 5987TIP3   OH239451   3.517   1.230   0.282  0.0149 -0.3472  0.1367
 5987TIP3    H139452   3.495   1.277   0.202 -2.9274 -1.9266 -0.0705
 5987TIP3    H239453   3.478   1.283   0.352  1.1074  0.1430  0.3835
 5988TIP3   OH239454   2.074   0.127  14.603 -0.2255  0.2535  0.5541
 5988TIP3    H139455   2.110   0.064  14.541 -0.8069 -0.3658  0.8393
 5988TIP3    H239456   2.069   0.209  14.554  1.6474  0.3834  0.5328
 5989TIP3   OH239457   3.036   4.693   2.238  0.6643 -0.0922  0.5462
 5989TIP3    H139458   3.117   4.707   2.190  0.1318  1.3437  0.0480
 5989TIP3    H239459   3.050   4.733   2.323  0.2091  0.8524  0.1833
 5990TIP3   OH239460   6.452   6.667   3.009  0.6727  0.0746  0.1903
 5990TIP3    H139461   6.387   6.610   3.051  1.0538 -0.0330  0.6312
 5990TIP3    H239462   6.439   6.752   3.050 -0.5964  0.5771 -1.1974
 5991TIP3   OH239463   4.183   0.594  14.902  0.3213  0.6196 -0.1529
 5991TIP3    H139464   4.237   0.520  14.873 -1.4731 -0.6271 -0.4215
 5991TIP3    H239465   4.125   0.611  14.827 -1.9448 -0.3022  1.3279
 5992TIP3   OH239466   5.583   1.571  14.564  0.1734 -0.0477 -0.5419
 5992TIP3    H139467   5.515   1.584  14.497 -0.5735 -0.9117  0.0382
 5992TIP3    H239468   5.643   1.508  14.526  0.6204  0.6661 -1.0312
 5993TIP3   OH239469   0.088   2.700  15.143 -0.0627 -0.5062 -0.0523
 5993TIP3    H139470   0.075   2.784  15.099 -2.9883 -1.3818 -0.9491
 5993TIP3    H239471   0.068   2.635  15.076  1.4410 -1.9342  0.8556
 5994TIP3   OH239472   2.354   6.570   2.432  0.1258  0.1934  0.4155
 5994TIP3    H139473   2.288   6.500   2.430  0.2996  0.0142  0.9041
 5994TIP3    H239474   2.319   6.633   2.495  0.5907 -0.0677  0.9324
 5995TIP3   OH239475   4.499   5.398  14.803  0.4025 -0.1035 -0.1396
 5995TIP3    H139476   4.534   5.342  14.872  0.8292 -1.3811 -1.3614
 5995TIP3    H239477   4.430   5.346  14.762 -0.9723  1.2848  0.3808
 5996TIP3   OH239478   2.400   1.619  12.021  0.0441  0.3717 -0.0977
 5996TIP3    H139479   2.430   1.701  11.982  1.8307 -0.5283 -0.6525
 5996TIP3    H239480   2.305   1.621  12.011  0.0493  2.4796  0.1054
 5997TIP3   OH239481   3.668   4.581   6.592  0.3247 -0.5366 -0.2018
 5997TIP3    H139482   3.599   4.602   6.654 -0.4546 -2.2615 -0.4544
 5997TIP3    H239483   3.624   4.532   6.522  1.5116 -0.2463 -1.1840
 5998TIP3   OH239484   4.550   2.351  13.820  0.3653  1.0205  0.5528
 5998TIP3    H139485   4.471   2.383  13.864  0.9833  1.9700  0.9886
 5998TIP3    H239486   4.527   2.263  13.789 -0.4521  0.7980  1.7755
 5999TIP3   OH239487   6.433   1.182   1.658 -0.6109  0.0025 -0.1479
 5999TIP3    H139488   6.471   1.259   1.701 -1.5869 -0.1450  0.9797
 5999TIP3    H239489   6.496   1.112   1.674 -0.0104  0.4168 -0.6652
 6000TIP3   OH239490   4.835   4.523   3.976  0.2619  0.4645 -0.0875
 6000TIP3    H139491   4.752   4.477   3.960  1.1509 -1.4172  0.5996
 6000TIP3    H239492   4.809   4.613   3.997 -1.4073  0.9032 -3.5616
 6001TIP3   OH239493   2.144   1.929  17.040  0.5786 -0.4150 -0.0268
 6001TIP3    H139494   2.090   1.943  16.962  0.2800  0.5335  0.3530
 6001TIP3    H239495   2.232   1.958  17.014  0.0122  2.0791  0.6882
 6002TIP3   OH239496   5.594   2.101   6.105 -0.5074  0.2451 -0.4769
 6002TIP3    H139497   5.575   2.143   6.189 -1.7993 -1.8689  0.3204
 6002TIP3    H239498   5.648   2.025   6.128 -1.6317 -0.8567 -1.4575
 6003TIP3   OH239499   2.369   3.804  12.981 -0.0321 -0.2476 -0.4156
 6003TIP3    H139500   2.332   3.774  12.898 -0.2796  0.3685 -0.5365
 6003TIP3    H239501   2.292   3.827  13.034  0.1567  0.9880 -0.6483
 6004TIP3   OH239502   6.721   5.211   3.972  0.4934  0.3151 -0.2345
 6004TIP3    H139503   6.802   5.247   4.009  1.4037  0.0035 -1.8603
 6004TIP3    H239504   6.666   5.287   3.954  0.9997  0.6310 -0.4436
 6005TIP3   OH239505   0.420   2.184   4.855 -0.2264 -0.1391 -0.2941
 6005TIP3    H139506   0.368   2.111   4.889  0.2010  0.6356  2.1351
 6005TIP3    H239507   0.497   2.143   4.815 -1.0854 -1.1167 -0.9822
 6006TIP3   OH239508   2.900   0.103  13.727 -0.3583 -0.2317  0.2505
 6006TIP3    H139509   2.954   0.029  13.757 -1.6548 -1.4017 -0.2402
 6006TIP3    H239510   2.868   0.144  13.807  1.0865  0.3760  0.5498
 6007TIP3   OH239511   4.124   0.544  14.469  0.2535  0.1296  0.2587
 6007TIP3    H139512   4.180   0.619  14.450  0.1636  0.4175  1.0984
 6007TIP3    H239513   4.042   0.563  14.423  0.8318 -0.2771 -0.9398
 6008TIP3   OH239514   3.286   5.569  16.422 -0.5939 -0.2006  0.1506
 6008TIP3    H139515   3.314   5.609  16.340  0.1406  0.5123  0.7467
 6008TIP3    H239516   3.191   5.582  16.424 -0.1903  2.9380  1.0806
 6009TIP3   OH239517   1.483   3.283  12.185 -0.3491  0.3415  0.4591
 6009TIP3    H139518   1.511   3.230  12.111 -0.5353  1.3699 -0.3574
 6009TIP3    H239519   1.388   3.286  12.178 -0.3323  0.8625  0.4435
 6010TIP3   OH239520   0.351   1.150  12.426  0.1532 -0.0612 -0.3873
 6010TIP3    H139521   0.317   1.224  12.376  0.2704 -0.4532 -1.0635
 6010TIP3    H239522   0.401   1.099  12.362 -1.9381 -2.0493 -0.5226
 6011TIP3   OH239523   0.749   3.407   1.943  0.2833  0.1176  0.2190
 6011TIP3    H139524   0.688   3.450   1.883 -0.1312 -2.8887 -1.6395
 6011TIP3    H239525   0.813   3.475   1.964 -0.5130  1.7547 -2.3380
 6012TIP3   OH239526   0.514   5.758  16.409  0.4671  0.3754 -0.0962
 6012TIP3    H139527   0.551   5.841  16.380 -0.2026  1.4622  2.0896
 6012TIP3    H239528   0.421   5.776  16.422 -0.0429 -1.1897 -1.2796
 6013TIP3   OH239529   6.697   0.072   1.123  0.5141  0.0502  0.2060
 6013TIP3    H139530   6.690   0.143   1.187  0.2736 -0.4271  0.7149
 6013TIP3    H239531   6.679   0.114   1.039 -1.9274  0.1658  0.7334
 6014TIP3   OH239532   4.223   2.266  15.708  0.0160 -0.7827  0.1410
 6014TIP3    H139533   4.158   2.314  15.761 -1.6070 -2.4618 -0.2708
 6014TIP3    H239534   4.291   2.331  15.689 -0.2516  0.3236  2.7761
 6015TIP3   OH239535   6.670   2.426   2.424 -0.5465  0.4163 -0.2040
 6015TIP3    H139536   6.745   2.391   2.377 -0.7908  0.0014 -0.2848
 6015TIP3    H239537   6.647   2.506   2.375  0.2716  0.9219  0.2380
 6016TIP3   OH239538   3.775   5.285  17.060  0.2560  0.1598 -0.0184
 6016TIP3    H139539   3.728   5.260  16.981 -0.7120 -1.1170  0.9327
 6016TIP3    H239540   3.825   5.363  17.035  1.2560 -1.1698 -2.3358
 6017TIP3   OH239541   1.668   0.543  12.739  0.3948  0.1306 -0.4898
 6017TIP3    H139542   1.682   0.551  12.834 -1.0586  2.3233 -0.4053
 6017TIP3    H239543   1.690   0.453  12.719  3.2391  0.3187  1.4906
 6018TIP3   OH239544   4.969   1.422   5.662 -0.1341 -0.2632  0.2054
 6018TIP3    H139545   4.935   1.383   5.581 -0.6666  0.6210 -0.0074
 6018TIP3    H239546   5.064   1.427   5.648  0.0258 -2.2219  0.5717
 6019TIP3   OH239547   2.775   1.668   0.272 -0.6362  0.1873 -0.6037
 6019TIP3    H139548   2.855   1.707   0.308 -1.0836 -0.3485  1.0485
 6019TIP3    H239549   2.746   1.729   0.204  0.6192  0.9010 -0.5049
 6020TIP3   OH239550   5.182   1.080  16.546 -0.1508  0.4048  0.1203
 6020TIP3    H139551   5.180   1.175  16.536 -0.1577  0.5039  1.0891
 6020TIP3    H239552   5.270   1.055  16.517 -0.0642  0.7292  0.1056
 6021TIP3   OH239553   5.125   1.637   2.492 -0.5454  0.2727 -0.6037
 6021TIP3    H139554   5.075   1.719   2.490 -0.0010  0.5782 -1.8412
 6021TIP3    H239555   5.098   1.596   2.574 -0.6192  1.8159  0.1726
 6022TIP3   OH239556   6.303   6.219   0.472 -0.8732  0.6502  0.4151
 6022TIP3    H139557   6.336   6.142   0.426 -2.2183 -0.2788  0.9769
 6022TIP3    H239558   6.287   6.284   0.403  1.1243  0.7623  0.0301
 6023TIP3   OH239559   1.369   3.471  14.204 -0.5295 -0.4029  0.0704
 6023TIP3    H139560   1.453   3.509  14.178 -1.3260  1.1487 -0.2939
 6023TIP3    H239561   1.389   3.423  14.285  0.7121 -0.0652 -0.0249
 6024TIP3   OH239562   2.207   3.747  16.950  0.3972 -0.3695  0.2884
 6024TIP3    H139563   2.167   3.828  16.981 -0.2552 -0.3229 -0.6670
 6024TIP3    H239564   2.282   3.776  16.897 -0.7810 -0.3274 -1.3906
 6025TIP3   OH239565   1.935   4.235  15.844 -0.5988  0.1660  0.1176
 6025TIP3    H139566   1.912   4.180  15.918 -1.4105 -0.7827 -0.8221
 6025TIP3    H239567   2.027   4.214  15.826 -0.9577 -1.0499 -0.3606
 6026TIP3   OH239568   1.483   0.666  12.552 -0.0348 -1.0423 -0.6813
 6026TIP3    H139569   1.529   0.617  12.620 -0.6928  0.5675  0.9903
 6026TIP3    H239570   1.467   0.752  12.591 -2.2640 -0.7493 -2.1058
 6027TIP3   OH239571   1.696   5.639  13.755  0.1901  0.1424 -0.0604
 6027TIP3    H139572   1.786   5.662  13.777  0.8019 -1.2655 -1.0246
 6027TIP3    H239573   1.691   5.544  13.768 -0.8303  0.0384 -1.0650
 6028TIP3   OH239574   2.130   1.573  16.836  0.0294 -0.2999 -0.4848
 6028TIP3    H139575   2.156   1.565  16.928 -0.4664 -0.0536 -0.3220
 6028TIP3    H239576   2.212   1.570  16.787  0.2229 -1.6997 -0.1144
 6029TIP3   OH239577   3.549   2.115   2.864 -0.2537 -0.2009  0.1983
 6029TIP3    H139578   3.551   2.046   2.798  2.4683  0.1799 -0.1656
 6029TIP3    H239579   3.583   2.074   2.944 -0.9723  0.0706  0.6523
 6030TIP3   OH239580   3.215   5.514  14.566 -0.4058 -0.2820  0.5244
 6030TIP3    H139581   3.291   5.470  14.526  0.7320  1.7409  0.4307
 6030TIP3    H239582   3.245   5.541  14.652 -1.2384 -0.0706  0.7507
 6031TIP3   OH239583   2.438   0.742   2.665  0.6991  0.7512  0.3401
 6031TIP3    H139584   2.347   0.730   2.640  0.8628 -0.5376  0.3439
 6031TIP3    H239585   2.488   0.690   2.601  1.4867  2.0700 -0.1499
 6032TIP3   OH239586   5.100   0.565   1.587 -0.6626 -0.0721  0.3316
 6032TIP3    H139587   5.061   0.650   1.565 -0.1835  0.0295 -0.1349
 6032TIP3    H239588   5.027   0.514   1.623 -0.8588  0.6673  0.9710
 6033TIP3   OH239589   5.500   0.075   0.372  0.1296 -0.2472 -0.3743
 6033TIP3    H139590   5.536   0.161   0.353  1.5922 -1.1909 -2.0205
 6033TIP3    H239591   5.524   0.058   0.463 -0.0351  0.9907 -0.0882
 6034TIP3   OH239592   4.495   5.366   3.689 -0.1254  0.2267 -0.0728
 6034TIP3    H139593   4.428   5.372   3.621 -3.0945 -2.3442  2.4873
 6034TIP3    H239594   4.461   5.420   3.761  0.0203 -1.9348  1.6523
 6035TIP3   OH239595   4.644   2.123  13.961  0.1144  0.0361  0.0301
 6035TIP3    H139596   4.643   2.219  13.963  2.5060  0.0673  1.8801
 6035TIP3    H239597   4.679   2.101  13.875  1.9455  0.8943  0.5276
 6036TIP3   OH239598   6.202   4.973   2.901  0.2208 -0.1915 -0.1693
 6036TIP3    H139599   6.217   5.062   2.869 -2.5129  1.5199  2.9837
 6036TIP3    H239600   6.251   4.970   2.984  0.0089 -1.4770 -0.0872
 6037TIP3   OH239601   5.243   6.384  13.892  0.2556 -0.0843  0.3345
 6037TIP3    H139602   5.181   6.313  13.905 -2.6033  2.5206  1.6980
 6037TIP3    H239603   5.190   6.457  13.858  2.8055  1.8476  0.2687
 6038TIP3   OH239604   1.707   0.814   0.892 -0.4133 -0.3181 -0.0653
 6038TIP3    H139605   1.662   0.863   0.823  3.5595  1.9543 -1.2229
 6038TIP3    H239606   1.674   0.851   0.974  0.7190  2.7297 -0.9062
 6039TIP3   OH239607   5.917   0.391   4.514 -0.1627  0.5172 -0.3241
 6039TIP3    H139608   5.839   0.436   4.546  0.0970  1.3434 -0.8332
 6039TIP3    H239609   5.894   0.364   4.425  0.1760  0.8988 -0.5318
 6040TIP3   OH239610   1.086   6.577  16.779  0.3120  0.0841  0.3955
 6040TIP3    H139611   1.047   6.652  16.824  0.1710 -0.4136  1.1044
 6040TIP3    H239612   1.089   6.508  16.845  1.5676 -0.1662  0.0878
 6041TIP3   OH239613   1.553   2.286  11.613 -0.4916 -0.3197  0.0903
 6041TIP3    H139614   1.485   2.342  11.576  0.4562  0.7315 -0.1044
 6041TIP3    H239615   1.634   2.314  11.569  0.2122 -0.8805  1.0072
 6042TIP3   OH239616   5.173   3.236  11.160  0.4445 -0.3754 -0.0912
 6042TIP3    H139617   5.088   3.209  11.126 -0.1758 -0.8205  1.7898
 6042TIP3    H239618   5.202   3.163  11.214  2.5260 -0.6715 -1.5243
 6043TIP3   OH239619   6.369   1.942  10.579 -0.7287 -0.3157 -0.5649
 6043TIP3    H139620   6.398   1.867  10.632 -0.6025 -0.6488 -1.0956
 6043TIP3    H239621   6.372   1.909  10.489 -0.1534  0.4938 -0.8483
 6044TIP3   OH239622   0.711   4.034  14.634 -0.1034  0.2468  0.1942
 6044TIP3    H139623   0.644   4.017  14.700 -2.1798  1.5744 -1.5186
 6044TIP3    H239624   0.753   4.116  14.661 -1.3591  1.1069 -0.4194
 6045TIP3   OH239625   3.048   4.046  14.795 -0.6993 -0.6287 -0.5367
 6045TIP3    H139626   3.078   4.082  14.712  0.1199  0.7403  0.3233
 6045TIP3    H239627   2.975   4.103  14.821  0.3855  0.2262  0.6781
 6046TIP3   OH239628   0.089   2.196   1.114  0.6339 -0.1840 -0.4138
 6046TIP3    H139629   0.053   2.205   1.026  0.0979  0.1194 -0.1675
 6046TIP3    H239630   0.041   2.123   1.152  1.5558 -0.9649 -0.7068
 6047TIP3   OH239631   1.130   3.799   4.921 -0.1450 -0.2046 -0.0037
 6047TIP3    H139632   1.199   3.736   4.900  0.1009 -0.0027  0.1962
 6047TIP3    H239633   1.049   3.750   4.909 -0.0129 -0.0732 -1.5040
 6048TIP3   OH239634   4.591   2.949  16.632  0.6393  0.2274 -0.3320
 6048TIP3    H139635   4.514   3.004  16.645  0.0553 -0.3026 -1.4921
 6048TIP3    H239636   4.655   2.983  16.695  0.4798  2.5867 -1.4028
 6049TIP3   OH239637   0.026   3.818  14.110 -0.2384 -0.6147  0.3517
 6049TIP3    H139638  -0.025   3.794  14.033  1.1135  1.6585 -1.3020
 6049TIP3    H239639   0.100   3.759  14.109 -1.3418 -2.0484  1.1780
 6050TIP3   OH239640   2.914   3.764  16.890 -0.4776  0.4219  0.8700
 6050TIP3    H139641   2.869   3.849  16.888 -0.6622  0.3224  0.7985
 6050TIP3    H239642   2.870   3.715  16.960 -0.3406  0.4006  0.9400
 6051TIP3   OH239643   2.867   4.913  12.317  0.4500  0.2290 -0.4357
 6051TIP3    H139644   2.851   4.849  12.247 -0.2286  0.5410 -0.5715
 6051TIP3    H239645   2.824   4.993  12.287  1.5323  0.8316 -0.3845
 6052TIP3   OH239646   1.942   0.509   1.218  0.2025  0.3521  0.0333
 6052TIP3    H139647   1.935   0.577   1.285  0.2869  1.4977 -1.0847
 6052TIP3    H239648   1.883   0.538   1.149  1.4671  0.1412 -1.1643
 6053TIP3   OH239649   2.776   4.689   4.815 -0.2222 -0.0454 -0.5335
 6053TIP3    H139650   2.734   4.725   4.737  1.5455  1.8035 -0.6486
 6053TIP3    H239651   2.752   4.750   4.885 -0.2310 -0.6586  0.0037
 6054TIP3   OH239652   1.349   4.557  13.605  0.1399 -0.0743  0.4741
 6054TIP3    H139653   1.323   4.639  13.563  0.1712 -1.6346 -2.7602
 6054TIP3    H239654   1.318   4.489  13.546 -0.7583 -2.4809  3.5851
 6055TIP3   OH239655   0.947   1.213  14.553  0.3090  0.7800 -0.1249
 6055TIP3    H139656   0.942   1.308  14.569  0.2661  0.9772 -1.2325
 6055TIP3    H239657   0.913   1.203  14.464 -1.8922 -0.5383  0.8251
 6056TIP3   OH239658   4.621   3.996  12.178 -0.4080 -0.1274 -0.5822
 6056TIP3    H139659   4.584   3.938  12.111  0.4682 -1.1418 -0.1928
 6056TIP3    H239660   4.695   4.038  12.135  0.9473 -1.7416  0.1192
 6057TIP3   OH239661   1.012   3.551  17.044 -0.5989 -0.2469 -0.0490
 6057TIP3    H139662   1.101   3.580  17.027 -0.2587 -0.5709  1.1794
 6057TIP3    H239663   0.984   3.600  17.121 -1.4770 -0.1554 -0.4165
 6058TIP3   OH239664   1.880   1.648  11.762  0.7610 -0.5026  0.3304
 6058TIP3    H139665   1.962   1.604  11.741 -0.2102 -2.6535  0.9411
 6058TIP3    H239666   1.812   1.589  11.731 -0.5682  1.0568  0.2239
 6059TIP3   OH239667   6.540   3.487  11.560 -0.0541 -0.6621 -0.2896
 6059TIP3    H139668   6.541   3.573  11.602 -0.2919 -0.1943 -1.2196
 6059TIP3    H239669   6.493   3.431  11.621 -1.2014  0.2314 -0.3325
 6060TIP3   OH239670   0.085   2.257  17.217  0.2147 -0.0767 -0.4533
 6060TIP3    H139671   0.144   2.188  17.245  0.5838  1.0599  1.7163
 6060TIP3    H239672   0.142   2.320  17.173  0.7048  1.0653  1.7218
 6061TIP3   OH239673   3.527   6.368   2.753  0.2735 -0.2830 -0.2786
 6061TIP3    H139674   3.541   6.322   2.836 -0.1523  0.7113  0.3605
 6061TIP3    H239675   3.455   6.321   2.711  0.2520 -0.5773  0.0843
 6062TIP3   OH239676   1.422   0.189  16.659  0.0690  0.5606  1.1028
 6062TIP3    H139677   1.484   0.191  16.732  0.2200  2.9227  0.9559
 6062TIP3    H239678   1.369   0.112  16.675  1.8558 -0.4763  2.2335
 6063TIP3   OH239679   5.837   4.683  16.684  0.1665  0.4516  0.3611
 6063TIP3    H139680   5.912   4.736  16.709 -2.2507  3.7486  0.8585
 6063TIP3    H239681   5.769   4.706  16.747 -1.8816 -1.0747 -1.2250
 6064TIP3   OH239682   1.388   3.490   4.993  0.3721 -0.3485 -0.2275
 6064TIP3    H139683   1.458   3.532   5.044  1.7592 -0.4231 -2.0129
 6064TIP3    H239684   1.388   3.538   4.910 -1.6505 -0.4217 -0.2932
 6065TIP3   OH239685   4.311   6.817  15.296  0.2101 -0.2772 -0.5316
 6065TIP3    H139686   4.267   6.732  15.290  0.6934 -0.4902 -1.0723
 6065TIP3    H239687   4.240   6.881  15.297 -0.1511 -0.6785 -0.2471
 6066TIP3   OH239688   3.747   3.355   4.107  0.2034 -0.2733 -0.4136
 6066TIP3    H139689   3.733   3.410   4.031 -0.6677 -0.5485 -0.4628
 6066TIP3    H239690   3.739   3.414   4.182  1.6766  0.1122 -0.5521
 6067TIP3   OH239691   1.379   1.348   3.104 -0.0543 -0.1568  0.0944
 6067TIP3    H139692   1.317   1.382   3.169  1.9027  0.8043  1.5376
 6067TIP3    H239693   1.420   1.426   3.067  0.0411 -0.7626 -1.0768
 6068TIP3   OH239694   6.614   2.377   0.434 -0.1517 -0.5367 -0.2156
 6068TIP3    H139695   6.580   2.340   0.353 -1.8316 -1.9296  1.0907
 6068TIP3    H239696   6.537   2.403   0.483  0.8804  1.1769  0.5616
 6069TIP3   OH239697   0.675   1.727  12.377  0.2804  0.6745  0.3037
 6069TIP3    H139698   0.644   1.746  12.465 -2.6275  0.8805 -0.7065
 6069TIP3    H239699   0.713   1.640  12.383  0.4876  0.8609  1.8495
 6070TIP3   OH239700   0.205   1.851   2.484  0.5691  0.1894 -0.0283
 6070TIP3    H139701   0.154   1.932   2.482 -1.8949 -1.2964  0.0577
 6070TIP3    H239702   0.228   1.835   2.392 -2.8188 -1.3242 -0.6764
 6071TIP3   OH239703   3.281   3.510   5.971  0.5101  0.3721 -0.6422
 6071TIP3    H139704   3.324   3.567   5.907  2.9329 -0.4661  0.1933
 6071TIP3    H239705   3.353   3.464   6.015 -1.2180 -0.6547  1.1989
 6072TIP3   OH239706   4.499   0.201  12.652  0.7199 -0.2692 -0.2206
 6072TIP3    H139707   4.505   0.277  12.594 -1.9743  0.7898  0.8353
 6072TIP3    H239708   4.564   0.218  12.720  0.9568  0.5085 -0.6295
 6073TIP3   OH239709   0.806   3.545  12.088 -0.1181  0.0363 -0.1740
 6073TIP3    H139710   0.729   3.600  12.076 -1.4532 -1.3762  1.5441
 6073TIP3    H239711   0.875   3.606  12.114 -0.1934  1.5230 -3.2569
 6074TIP3   OH239712   6.754   6.532   1.355 -0.6113 -0.1108 -0.0378
 6074TIP3    H139713   6.682   6.472   1.333  1.2402 -2.7533  0.9186
 6074TIP3    H239714   6.798   6.547   1.271 -1.4411  0.3976 -0.3891
 6075TIP3   OH239715   1.899   3.234   5.923  0.3300 -0.6458  0.2836
 6075TIP3    H139716   1.863   3.307   5.871  1.1511 -0.0118  0.6006
 6075TIP3    H239717   1.904   3.268   6.012  0.6136 -1.1344  0.4536
 6076TIP3   OH239718   3.978   5.707  11.208  0.1650 -1.2031 -0.0459
 6076TIP3    H139719   4.044   5.730  11.274  0.0921 -0.8239 -0.1053
 6076TIP3    H239720   3.928   5.636  11.249  0.9539 -1.8638 -0.2203
 6077TIP3   OH239721   0.490   3.369   4.816 -0.5134 -0.1644 -0.9904
 6077TIP3    H139722   0.408   3.415   4.834 -0.3163  0.1823 -0.9736
 6077TIP3    H239723   0.471   3.278   4.839 -0.4102  0.1819  0.5867
 6078TIP3   OH239724   2.762   4.746   3.167 -0.0492 -0.6649  0.6493
 6078TIP3    H139725   2.768   4.713   3.257  0.1032 -1.6830  0.2660
 6078TIP3    H239726   2.848   4.727   3.129  0.8352  2.1424  1.0821
 6079TIP3   OH239727   3.465   1.424  12.496 -0.5498  0.3084  0.2450
 6079TIP3    H139728   3.418   1.371  12.560 -0.9313 -1.0077 -1.0789
 6079TIP3    H239729   3.527   1.362  12.455  0.4121  1.3662  0.0704
 6080TIP3   OH239730   4.400   0.207   2.791 -0.2580  0.0701 -0.9761
 6080TIP3    H139731   4.416   0.171   2.704 -1.2532  0.1542 -1.2026
 6080TIP3    H239732   4.389   0.131   2.847 -2.8358 -0.0067 -1.5430
 6081TIP3   OH239733   5.477   2.206   0.951 -0.1775 -0.2990  0.0087
 6081TIP3    H139734   5.524   2.128   0.922 -1.5177 -1.4815  0.9390
 6081TIP3    H239735   5.401   2.212   0.893  0.4117  0.8478 -0.6513
 6082TIP3   OH239736   3.046   3.777  14.405  0.1732 -0.0421 -0.0860
 6082TIP3    H139737   2.967   3.743  14.447  0.7673 -0.8091  0.4175
 6082TIP3    H239738   3.045   3.738  14.317 -1.0974  1.6056 -0.8239
 6083TIP3   OH239739   6.201   3.354  12.014 -0.5348 -0.1183 -0.3796
 6083TIP3    H139740   6.205   3.349  12.110  0.1829 -0.3400 -0.4251
 6083TIP3    H239741   6.174   3.444  11.996  0.3317  0.2145 -0.0021
 6084TIP3   OH239742   5.918   4.645  11.383 -0.1630 -0.3531 -0.1267
 6084TIP3    H139743   5.950   4.734  11.367  0.5373 -0.6355 -0.3229
 6084TIP3    H239744   5.824   4.651  11.371 -0.1027  0.3347 -0.2937
 6085TIP3   OH239745   5.149   5.137  14.270  0.1370 -0.0329  0.6740
 6085TIP3    H139746   5.231   5.137  14.221  0.4401 -1.2817  1.1440
 6085TIP3    H239747   5.097   5.067  14.231 -0.0419 -0.3361  1.4479
 6086TIP3   OH239748   1.921   1.887  11.621 -0.6986 -0.0538  0.1205
 6086TIP3    H139749   1.887   1.964  11.668  2.6364  0.9049  1.1037
 6086TIP3    H239750   1.942   1.824  11.690 -1.3184 -0.9935 -0.5341
 6087TIP3   OH239751   5.201   1.218   4.882  0.3291 -0.1883  0.5122
 6087TIP3    H139752   5.179   1.306   4.853  0.8711 -1.1788 -3.0964
 6087TIP3    H239753   5.282   1.196   4.835  0.5809 -2.3598  1.8770
 6088TIP3   OH239754   6.466   1.177  12.924 -0.2899  0.4469 -0.2516
 6088TIP3    H139755   6.410   1.101  12.907 -0.3152 -0.0736  2.0701
 6088TIP3    H239756   6.410   1.252  12.904  0.1425 -0.0912 -3.8249
 6089TIP3   OH239757   4.534   1.477   1.508  0.3859  0.0984  0.6417
 6089TIP3    H139758   4.619   1.495   1.549 -0.0933  1.2038  1.1752
 6089TIP3    H239759   4.505   1.562   1.474 -0.5720 -0.2426  0.5879
 6090TIP3   OH239760   6.475   0.186  14.810  0.5643  0.2828 -0.0697
 6090TIP3    H139761   6.438   0.245  14.744 -1.2787 -0.4441  0.2859
 6090TIP3    H239762   6.518   0.245  14.873 -0.3592  1.2002 -0.2729
 6091TIP3   OH239763   5.486   5.445  11.659 -0.1244 -0.1820 -0.7977
 6091TIP3    H139764   5.504   5.417  11.749  1.3310  1.3925 -0.5598
 6091TIP3    H239765   5.420   5.384  11.627 -0.5073 -0.8924  1.2723
 6092TIP3   OH239766   3.346   4.963  13.919  0.5351  0.5156 -0.0589
 6092TIP3    H139767   3.359   4.974  13.825 -0.7680 -3.3439 -0.7959
 6092TIP3    H239768   3.434   4.950  13.954  0.8999  0.1953 -1.0530
 6093TIP3   OH239769   6.181   1.071   3.007  0.1957 -0.2216  0.4430
 6093TIP3    H139770   6.214   1.144   3.060  1.8401  0.4851 -1.4544
 6093TIP3    H239771   6.115   1.029   3.061  1.3195  0.8994  2.7427
 6094TIP3   OH239772   0.576   6.381  16.807  0.2598 -0.6961  0.4068
 6094TIP3    H139773   0.543   6.313  16.748  2.3256 -0.3134 -1.2388
 6094TIP3    H239774   0.582   6.459  16.753  0.1495  0.2158  1.6850
 6095TIP3   OH239775   1.657   1.653  15.705 -0.1307  0.0914  0.0420
 6095TIP3    H139776   1.652   1.563  15.673 -3.6202 -0.3071  1.4565
 6095TIP3    H239777   1.621   1.706  15.635  1.9363  0.4379 -0.7964
 6096TIP3   OH239778   2.322   5.647   5.425 -0.9379  0.2506  0.1423
 6096TIP3    H139779   2.260   5.575   5.419  1.2489 -1.6324 -0.5157
 6096TIP3    H239780   2.322   5.686   5.337 -2.1593  1.1209  0.5135
 6097TIP3   OH239781   0.834   2.706  14.090 -0.0754  0.2310 -0.3477
 6097TIP3    H139782   0.871   2.700  14.178 -0.2856 -1.8436 -0.3723
 6097TIP3    H239783   0.756   2.760  14.101  0.6342  1.0939  0.4920
 6098TIP3   OH239784   0.226   4.991   4.463 -0.6350  0.0464 -0.1696
 6098TIP3    H139785   0.285   4.915   4.461 -0.1437  0.3107  2.0863
 6098TIP3    H239786   0.140   4.956   4.439 -0.3125 -1.1202  0.3308
 6099TIP3   OH239787   0.644   0.715   1.456  0.3051 -0.6408  0.2576
 6099TIP3    H139788   0.706   0.732   1.526 -1.0445 -1.7178  1.7517
 6099TIP3    H239789   0.579   0.785   1.463  0.5052 -0.3999 -0.2984
 6100TIP3   OH239790   5.982   2.141   4.953  0.1944  0.3720 -0.1052
 6100TIP3    H139791   6.039   2.203   5.000  1.6579 -1.8995  1.2018
 6100TIP3    H239792   5.897   2.185   4.950  1.3440  2.7122  0.2282
 6101TIP3   OH239793   2.552   1.256  14.689  0.3462 -0.3443 -0.2149
 6101TIP3    H139794   2.458   1.265  14.677  0.4199 -0.8465 -1.2344
 6101TIP3    H239795   2.578   1.188  14.627  1.5120  0.3864 -0.5462
 6102TIP3   OH239796   6.334   2.182  10.739  0.2061 -0.0977  0.1359
 6102TIP3    H139797   6.347   2.095  10.699  0.5188  0.0704 -0.1363
 6102TIP3    H239798   6.421   2.222  10.736 -0.5904  1.5789 -2.9156
 6103TIP3   OH239799   1.106   4.885   0.296  0.8295  0.2103 -0.3630
 6103TIP3    H139800   1.108   4.971   0.337  0.7563  0.3732 -0.6951
 6103TIP3    H239801   1.192   4.847   0.314  0.5527  0.0046  0.5211
 6104TIP3   OH239802   5.146   1.809  12.891  0.5121  0.0777 -0.1025
 6104TIP3    H139803   5.086   1.750  12.938  1.6050 -0.4539  0.6424
 6104TIP3    H239804   5.227   1.759  12.883  1.5475  1.5840  0.7992
 6105TIP3   OH239805   1.772   1.813   5.480  0.1122 -0.7720  0.0087
 6105TIP3    H139806   1.743   1.904   5.476 -1.0128 -1.1397 -0.2683
 6105TIP3    H239807   1.695   1.761   5.456  0.8709 -1.7799 -0.3209
 6106TIP3   OH239808   0.788   5.582   0.072  0.3581 -0.2214  0.3147
 6106TIP3    H139809   0.868   5.567   0.121  0.0881  0.2938  0.9135
 6106TIP3    H239810   0.738   5.644   0.125  0.3348  0.8380 -0.8929
 6107TIP3   OH239811   2.804   1.453  12.587  0.2323  0.1098 -0.0651
 6107TIP3    H139812   2.776   1.475  12.498  0.5868 -0.1577 -0.2431
 6107TIP3    H239813   2.737   1.392  12.618 -1.1295  1.9484  0.6809
 6108TIP3   OH239814   5.756   3.283   1.389 -0.4970 -0.0571 -0.5554
 6108TIP3    H139815   5.828   3.335   1.353 -1.2999  0.5878 -1.2199
 6108TIP3    H239816   5.787   3.193   1.383  0.9095  0.3274  0.6202
 6109TIP3   OH239817   5.721   1.582   2.098 -0.1275  0.2327 -0.1050
 6109TIP3    H139818   5.782   1.651   2.127  1.4177 -0.8740 -0.6195
 6109TIP3    H239819   5.772   1.531   2.034 -2.1211  0.1931 -1.7218
 6110TIP3   OH239820   1.001   6.022  13.458  0.4179 -0.0553 -0.0639
 6110TIP3    H139821   0.986   5.938  13.501 -2.1624  1.3713  1.9059
 6110TIP3    H239822   0.946   6.019  13.380 -1.0804  0.4922  0.9555
 6111TIP3   OH239823   3.877   0.841  15.647  0.3119 -0.5691  0.0735
 6111TIP3    H139824   3.872   0.773  15.580 -0.1105 -0.2488 -0.2303
 6111TIP3    H239825   3.800   0.826  15.702 -0.5253  0.4373 -0.7682
 6112TIP3   OH239826   1.453   1.213  15.072 -0.5399 -0.2639 -0.6221
 6112TIP3    H139827   1.466   1.132  15.120 -2.0964  0.5935  1.2799
 6112TIP3    H239828   1.376   1.197  15.017 -0.8074 -0.1009 -0.2961
 6113TIP3   OH239829   2.451   4.340   1.957  0.0285 -0.1044  0.2162
 6113TIP3    H139830   2.393   4.280   1.911 -2.0884  1.0482  1.3335
 6113TIP3    H239831   2.393   4.401   2.002  2.1063  1.5659  0.7368
 6114TIP3   OH239832   2.926   2.307  17.070 -0.4497 -0.2324 -0.6463
 6114TIP3    H139833   2.890   2.373  17.128 -0.5929 -0.0025 -0.9958
 6114TIP3    H239834   2.865   2.234  17.075  0.8940 -1.2479  1.5026
 6115TIP3   OH239835   0.073   1.276   5.278  0.5584 -0.7049 -0.3093
 6115TIP3    H139836   0.157   1.231   5.269 -0.1981 -1.8363 -1.8558
 6115TIP3    H239837   0.070   1.337   5.204  1.1195  1.2116  1.1908
 6116TIP3   OH239838   0.345   6.720  11.917  0.6833 -0.6566  0.4024
 6116TIP3    H139839   0.339   6.644  11.975 -1.2367 -0.6633  0.2048
 6116TIP3    H239840   0.415   6.773  11.955 -0.5809 -0.6398  2.7757
 6117TIP3   OH239841   3.586   0.516   2.051  0.1233  0.0969  0.3557
 6117TIP3    H139842   3.630   0.540   2.133  0.5106 -1.9550  0.7952
 6117TIP3    H239843   3.598   0.421   2.045 -1.1462  0.0187 -1.3593
 6118TIP3   OH239844   5.111   2.751   3.879 -0.6649 -1.2806 -0.0252
 6118TIP3    H139845   5.180   2.690   3.852  1.4224  1.1331 -0.3418
 6118TIP3    H239846   5.103   2.812   3.806 -1.0876  0.1916  1.2311
 6119TIP3   OH239847   6.795   4.955   2.172 -0.2126  0.6469 -0.7049
 6119TIP3    H139848   6.705   4.934   2.148  0.0934  0.7403 -1.9464
 6119TIP3    H239849   6.818   5.030   2.118  0.7747  0.3201 -0.7473
 6120TIP3   OH239850   5.374   3.200   3.056  0.4404  0.0356 -0.1772
 6120TIP3    H139851   5.431   3.277   3.055  0.5988 -0.0950 -1.4662
 6120TIP3    H239852   5.404   3.147   2.982 -0.8294 -0.4121 -0.3734
 6121TIP3   OH239853   3.900   5.338   4.387  1.0759 -0.7122 -0.0377
 6121TIP3    H139854   3.939   5.251   4.394  1.7870 -0.3790  0.2780
 6121TIP3    H239855   3.931   5.372   4.303  1.7381 -0.3217  0.3589
 6122TIP3   OH239856   0.873   1.215  15.459  0.4216 -0.0411  0.3349
 6122TIP3    H139857   0.847   1.290  15.512 -0.5393 -1.0772  1.3650
 6122TIP3    H239858   0.946   1.176  15.508  0.2608 -0.3524  0.3293
 6123TIP3   OH239859   2.244   3.917   4.722  0.4951  0.0468  0.7153
 6123TIP3    H139860   2.183   3.936   4.651  2.3521  2.3518 -0.3078
 6123TIP3    H239861   2.223   3.827   4.748 -0.4266 -0.7359 -2.5164
 6124TIP3   OH239862   6.022   1.752  14.435  0.0254 -0.1120 -0.5043
 6124TIP3    H139863   5.991   1.678  14.383  0.9095 -0.5081 -0.4747
 6124TIP3    H239864   6.025   1.826  14.374 -1.5519  0.0884 -0.3669
 6125TIP3   OH239865   1.012   6.715  11.529  0.0051 -0.1026 -0.0329
 6125TIP3    H139866   0.955   6.659  11.475 -0.9564  1.1102 -0.2919
 6125TIP3    H239867   0.983   6.804  11.510  0.8543  0.4357  1.1515
 6126TIP3   OH239868   4.818   1.758   5.926 -0.1261  0.0056 -0.1546
 6126TIP3    H139869   4.808   1.673   5.884 -0.0342  0.6450 -1.5094
 6126TIP3    H239870   4.855   1.815   5.857  0.2855  1.0078  0.8697
 6127TIP3   OH239871   0.090   4.496   0.680  0.2819 -0.2619 -0.0251
 6127TIP3    H139872   0.004   4.532   0.703  0.9155  0.2422  1.6006
 6127TIP3    H239873   0.143   4.572   0.659  0.5131 -0.5291 -0.4055
 6128TIP3   OH239874   3.526   0.510   3.403 -0.3866 -0.0806  0.2320
 6128TIP3    H139875   3.548   0.451   3.331  0.1889 -0.0068  0.3423
 6128TIP3    H239876   3.449   0.558   3.372 -2.4959 -2.7696  1.2119
 6129TIP3   OH239877   2.298   3.132  11.793  0.2683 -0.1958 -0.4308
 6129TIP3    H139878   2.295   3.045  11.752 -1.2558 -0.6162  0.5669
 6129TIP3    H239879   2.213   3.171  11.773  0.1564  0.2527  0.9024
 6130TIP3   OH239880   6.325   6.470  17.130  0.3391  0.3711 -0.3786
 6130TIP3    H139881   6.400   6.496  17.077  0.0007  1.3077 -0.3976
 6130TIP3    H239882   6.304   6.382  17.098  0.5593  0.6545 -1.3337
 6131TIP3   OH239883   5.847   0.609   2.122  0.0774  0.0703 -0.2187
 6131TIP3    H139884   5.863   0.680   2.183  0.3085  1.0893 -1.4339
 6131TIP3    H239885   5.838   0.531   2.177  1.1039  0.8192  1.0300
 6132TIP3   OH239886   2.314   2.131  14.755  0.5153  0.0252  0.1339
 6132TIP3    H139887   2.357   2.116  14.840 -0.1039 -0.2234  0.4099
 6132TIP3    H239888   2.297   2.225  14.753  1.0705  0.1248  0.0214
 6133TIP3   OH239889   4.983   1.935  11.567 -0.2020  0.0510 -0.3285
 6133TIP3    H139890   5.003   1.857  11.620 -1.3532  0.3709  0.5779
 6133TIP3    H239891   4.956   1.900  11.483 -0.2677 -0.5135 -0.0757
 6134TIP3   OH239892   2.590   6.276   2.694 -0.8007 -0.0301  0.6145
 6134TIP3    H139893   2.643   6.217   2.747  2.1871  1.1626 -0.9457
 6134TIP3    H239894   2.586   6.233   2.608 -0.6183  0.8822  0.1504
 6135TIP3   OH239895   3.537   2.155  12.116 -0.1766 -0.2986 -0.9097
 6135TIP3    H139896   3.445   2.168  12.093  0.2234 -0.0768 -2.4276
 6135TIP3    H239897   3.544   2.061  12.134 -0.5198 -0.4735 -1.6593
 6136TIP3   OH239898   4.543   0.675   1.024  0.2171 -0.1792  0.0181
 6136TIP3    H139899   4.453   0.680   1.058 -0.2506 -0.6169 -1.1394
 6136TIP3    H239900   4.598   0.683   1.102 -0.8421 -1.9077  0.9758
 6137TIP3   OH239901   6.176   1.564   1.285 -0.3884  0.1940 -0.3148
 6137TIP3    H139902   6.100   1.505   1.289  0.6339 -1.1401 -0.2003
 6137TIP3    H239903   6.166   1.620   1.362  0.7259 -2.4850  1.8675
 6138TIP3   OH239904   5.751   5.692  14.620 -0.2896  0.4644 -0.2950
 6138TIP3    H139905   5.702   5.775  14.618  0.3115  0.7937 -1.8216
 6138TIP3    H239906   5.743   5.662  14.711 -0.3352  2.3031  0.3292
 6139TIP3   OH239907   1.646   6.167   4.326  0.1374 -0.0512  0.3742
 6139TIP3    H139908   1.646   6.092   4.385  1.7214 -0.5002 -0.1729
 6139TIP3    H239909   1.725   6.155   4.273 -0.4227  1.1891 -0.7469
 6140TIP3   OH239910   2.382   1.376  12.567  0.0928  0.0227 -0.1260
 6140TIP3    H139911   2.417   1.416  12.488 -1.2050  0.1310 -0.6510
 6140TIP3    H239912   2.448   1.311  12.593  2.0549  2.2188  0.5413
 6141TIP3   OH239913   3.772   3.634  15.929 -0.1516  0.2443 -0.2538
 6141TIP3    H139914   3.766   3.729  15.927  0.6295  0.3018  0.1827
 6141TIP3    H239915   3.829   3.612  15.855 -2.3348 -0.0554 -1.9154
 6142TIP3   OH239916   6.344   5.085  15.500 -0.3553  0.1563 -0.7014
 6142TIP3    H139917   6.341   5.181  15.502  2.2133  0.2348  1.1975
 6142TIP3    H239918   6.436   5.063  15.511 -1.2058 -2.5585  1.6180
 6143TIP3   OH239919   6.764   1.585   0.417 -0.3779  0.0182 -0.0350
 6143TIP3    H139920   6.718   1.637   0.351  0.8448 -1.8489 -2.4240
 6143TIP3    H239921   6.854   1.617   0.414 -0.2661 -0.2333  0.6007
 6144TIP3   OH239922   4.312   1.642   5.867  0.3161 -0.1818  0.5356
 6144TIP3    H139923   4.347   1.662   5.953  1.6933 -0.3719  0.0210
 6144TIP3    H239924   4.318   1.725   5.819 -3.2177  0.7531  1.5176
 6145TIP3   OH239925   4.418   3.847   1.897 -0.3870 -0.2123  0.2440
 6145TIP3    H139926   4.483   3.909   1.864  0.4528 -0.8546  0.6659
 6145TIP3    H239927   4.459   3.761   1.885 -0.1312 -0.4840  2.7483
 6146TIP3   OH239928   4.098   2.363  14.384 -0.1361  0.0632  0.2101
 6146TIP3    H139929   4.114   2.455  14.406  0.0008  0.3677 -1.1230
 6146TIP3    H239930   4.179   2.318  14.410 -0.6969  0.0852  2.0884
 6147TIP3   OH239931   1.156   0.840  15.530 -0.2871 -0.1299  0.7283
 6147TIP3    H139932   1.207   0.843  15.612 -3.4991  0.6317  2.8076
 6147TIP3    H239933   1.160   0.748  15.503  1.7799 -0.1685  1.0732
 6148TIP3   OH239934   6.812   0.331  14.576  0.1629  0.4066  0.7558
 6148TIP3    H139935   6.867   0.407  14.554  0.3857 -0.5541 -2.2857
 6148TIP3    H239936   6.735   0.369  14.619  0.7765  2.2702  0.2698
 6149TIP3   OH239937   6.419   4.426   1.581  0.1772  0.0066 -0.2361
 6149TIP3    H139938   6.339   4.385   1.550  0.9890 -0.9630 -1.0831
 6149TIP3    H239939   6.467   4.356   1.624  0.4747  0.6312  0.4655
 6150TIP3   OH239940   4.063   0.426   2.877 -0.5746 -0.2645 -0.3039
 6150TIP3    H139941   4.123   0.466   2.939 -2.1171 -0.3676  1.3023
 6150TIP3    H239942   4.046   0.495   2.813 -0.5146  0.5196  0.5069
 6151TIP3   OH239943   2.261   4.927   1.220  0.1547 -0.1390 -0.4071
 6151TIP3    H139944   2.258   4.950   1.313 -1.2346 -1.8592  0.0154
 6151TIP3    H239945   2.318   4.850   1.216  2.9412  1.9017 -1.4828
 6152TIP3   OH239946   2.120   1.337   2.004 -0.0406 -0.4748  0.2031
 6152TIP3    H139947   2.156   1.249   2.016  0.7135 -0.1150  0.6582
 6152TIP3    H239948   2.155   1.387   2.078  0.2216  0.4128 -0.5087
 6153TIP3   OH239949   5.109   2.602   5.050  0.6481  0.3085 -0.0504
 6153TIP3    H139950   5.161   2.604   5.131 -0.9612 -1.1921  1.0274
 6153TIP3    H239951   5.149   2.533   4.998 -1.3918 -2.2261  1.6019
 6154TIP3   OH239952   3.724   4.382   0.741 -0.2535 -0.4498 -0.5003
 6154TIP3    H139953   3.726   4.450   0.674 -3.9120  2.1879  1.8444
 6154TIP3    H239954   3.678   4.309   0.701  1.2693 -0.5155 -2.1642
 6155TIP3   OH239955   4.971   1.439   4.452 -0.1620  0.0169 -0.2346
 6155TIP3    H139956   4.927   1.522   4.434 -1.6187 -0.8858 -0.9344
 6155TIP3    H239957   4.904   1.386   4.496  1.7419  0.3527  3.2144
 6156TIP3   OH239958   2.762   4.174   4.526  0.0856  0.1679  0.7101
 6156TIP3    H139959   2.790   4.255   4.568  2.0901 -0.3584  0.4430
 6156TIP3    H239960   2.772   4.107   4.593 -0.9465  0.0342  0.7329
 6157TIP3   OH239961   0.831   2.575  14.359 -0.0565 -0.0119  0.1081
 6157TIP3    H139962   0.861   2.514  14.427 -0.6393 -0.4083  0.0211
 6157TIP3    H239963   0.806   2.654  14.407  0.9404  0.2482  0.1954
 6158TIP3   OH239964   1.631   3.741  14.712 -0.1001 -0.3427 -0.1264
 6158TIP3    H139965   1.610   3.713  14.622  0.5653 -0.8691 -0.1223
 6158TIP3    H239966   1.711   3.793  14.702 -0.8190  0.7779 -0.0151
 6159TIP3   OH239967   4.403   3.301   4.474  0.6175  0.2775 -0.2106
 6159TIP3    H139968   4.338   3.346   4.529 -1.2337  1.8213 -3.5116
 6159TIP3    H239969   4.366   3.214   4.460  0.5666  0.2481  0.1054
 6160TIP3   OH239970   5.676   4.460   2.536 -0.1767 -0.2208  0.1987
 6160TIP3    H139971   5.600   4.518   2.542 -0.2072 -0.1203 -1.1770
 6160TIP3    H239972   5.711   4.458   2.625 -0.7127  1.1805  0.4558
 6161TIP3   OH239973   2.038   2.570   3.915  0.3976 -0.4503  0.0670
 6161TIP3    H139974   1.992   2.498   3.872 -0.3953 -0.7485  1.4047
 6161TIP3    H239975   2.021   2.646   3.860  0.5275 -1.1121 -0.8919
 6162TIP3   OH239976   2.067   0.323   2.778  0.1474 -0.0605  0.2047
 6162TIP3    H139977   2.116   0.241   2.781 -0.3768 -0.3962 -0.2911
 6162TIP3    H239978   2.042   0.332   2.686  4.2611  3.0578 -0.7482
 6163TIP3   OH239979   0.620   1.192  15.931 -0.7994 -0.8987  0.1343
 6163TIP3    H139980   0.583   1.122  15.878 -0.4115  0.0984 -1.4994
 6163TIP3    H239981   0.551   1.215  15.993 -0.4748 -3.5788  1.5674
 6164TIP3   OH239982   4.796   2.350   5.503 -0.4382 -0.2913 -0.2600
 6164TIP3    H139983   4.803   2.398   5.586 -1.7507 -0.1622 -0.2153
 6164TIP3    H239984   4.790   2.419   5.437 -0.2054 -0.3966 -0.3897
 6165TIP3   OH239985   2.780   4.074   0.848  0.4466 -0.2641  0.2797
 6165TIP3    H139986   2.770   4.040   0.758 -0.6946  0.0179  0.2842
 6165TIP3    H239987   2.755   4.166   0.841  1.2472 -0.0150  0.7208
 6166TIP3   OH239988   0.881   1.058  14.301  0.1740  0.2831  0.3892
 6166TIP3    H139989   0.787   1.073  14.290  0.3627  0.5879 -0.7927
 6166TIP3    H239990   0.891   0.964  14.292 -0.1603  0.1185  1.6140
 6167TIP3   OH239991   5.510   2.507   0.720  0.3657  0.1730 -0.4041
 6167TIP3    H139992   5.486   2.599   0.714  1.6196  0.4047 -2.2287
 6167TIP3    H239993   5.529   2.481   0.630  1.4234 -1.4675  0.2698
 6168TIP3   OH239994   4.323   4.729  13.227 -0.0007  0.0872  0.2329
 6168TIP3    H139995   4.418   4.735  13.216  0.2276 -1.8004  0.9247
 6168TIP3    H239996   4.303   4.637  13.207 -1.8490  0.7425 -1.0489
 6169TIP3   OH239997   4.157   2.801   0.517 -0.0824 -0.1291  0.2834
 6169TIP3    H139998   4.135   2.745   0.443  1.1321 -0.1750 -0.0605
 6169TIP3    H239999   4.204   2.875   0.478 -1.0188  0.7592  0.8120
 6170TIP3   OH240000   4.673   6.136  15.842  0.0226  0.2053  0.1973
 6170TIP3    H140001   4.704   6.223  15.865  1.9333 -0.1331 -0.9787
 6170TIP3    H240002   4.633   6.147  15.755  0.2303 -0.0736  0.0645
 6171TIP3   OH240003   0.386   5.038  16.316 -0.1351  0.3213 -0.2868
 6171TIP3    H140004   0.332   5.032  16.237  0.1333 -0.4320 -0.4202
 6171TIP3    H240005   0.474   5.014  16.287 -0.0756 -0.1515  0.2776
 6172TIP3   OH240006   0.044   1.990   1.698  0.3883  1.0665  0.0638
 6172TIP3    H140007   0.015   2.042   1.773  0.5802  1.1588  0.0732
 6172TIP3    H240008   0.139   1.992   1.702  0.4032  1.7002 -0.6235
 6173TIP3   OH240009   4.385   1.324  11.658 -0.2424  0.0216  0.2030
 6173TIP3    H140010   4.307   1.378  11.676 -1.6500 -1.8933  0.0281
 6173TIP3    H240011   4.445   1.345  11.729 -0.6056  2.1099 -0.0755
 6174TIP3   OH240012   2.350   6.070  15.304  0.2355 -0.0373  0.0278
 6174TIP3    H140013   2.375   5.979  15.323 -0.5193 -0.0348  1.0873
 6174TIP3    H240014   2.278   6.088  15.364 -0.2355  0.9717 -0.8300
 6175TIP3   OH240015   6.701   3.383  14.600 -0.1101 -0.7790 -0.3514
 6175TIP3    H140016   6.659   3.363  14.516  0.0303 -0.2080 -0.5572
 6175TIP3    H240017   6.785   3.423  14.576 -0.1122 -0.5324  0.0580
 6176TIP3   OH240018   2.166   4.037  11.676 -0.0379  0.3262  0.0229
 6176TIP3    H140019   2.147   3.975  11.746 -0.1287  2.2059  1.6867
 6176TIP3    H240020   2.231   3.993  11.622  0.2962 -1.0081  1.4827
 6177TIP3   OH240021   6.658   0.634   1.369  0.0095 -0.0770 -0.1639
 6177TIP3    H140022   6.600   0.702   1.403  1.2682  0.1946  1.4947
 6177TIP3    H240023   6.687   0.667   1.284 -0.0028  1.1062  0.2878
 6178TIP3   OH240024   6.578   2.636  13.551 -0.2383 -0.7241  0.0262
 6178TIP3    H140025   6.600   2.681  13.633 -0.0854 -2.3953  0.9366
 6178TIP3    H240026   6.657   2.587  13.529 -0.0645  0.2150 -1.4844
 6179TIP3   OH240027   4.634   2.449  12.805 -0.1120 -0.0041 -0.0695
 6179TIP3    H140028   4.614   2.455  12.898 -1.1028  2.0721 -0.4077
 6179TIP3    H240029   4.667   2.535  12.781 -0.6111 -0.2723 -1.8291
 6180TIP3   OH240030   3.918   0.361   0.434 -0.2601  0.2566  0.0429
 6180TIP3    H140031   3.835   0.393   0.468 -0.9721  1.0272 -2.3068
 6180TIP3    H240032   3.923   0.397   0.345 -0.3615 -4.8629 -2.2286
 6181TIP3   OH240033   0.359   4.880  14.941  0.0298  0.3914  0.6308
 6181TIP3    H140034   0.448   4.909  14.925  0.3409 -0.4865  0.7071
 6181TIP3    H240035   0.369   4.793  14.980 -0.8918 -1.2444 -2.5073
 6182TIP3   OH240036   0.647   5.613   1.426 -0.1313 -0.0680  0.2585
 6182TIP3    H140037   0.610   5.526   1.440 -1.5750  0.3283 -0.9243
 6182TIP3    H240038   0.645   5.625   1.331  0.5728  1.0334  0.3690
 6183TIP3   OH240039   3.394   4.763  15.289  0.1919  0.3199  0.5652
 6183TIP3    H140040   3.473   4.728  15.331  0.5916  0.8852  0.2937
 6183TIP3    H240041   3.419   4.774  15.197 -0.3970 -0.0673  0.3546
 6184TIP3   OH240042   1.648   4.555   2.298  0.3498 -0.3749  0.8090
 6184TIP3    H140043   1.565   4.507   2.303  0.9367 -1.3733  1.0818
 6184TIP3    H240044   1.624   4.646   2.315 -0.8790 -0.4573 -0.3700
 6185TIP3   OH240045   5.624   3.772  12.126  0.6832 -0.4827  0.1592
 6185TIP3    H140046   5.530   3.781  12.136  0.8744  3.3007 -0.4966
 6185TIP3    H240047   5.647   3.695  12.177 -2.6765 -1.1516  0.7573
 6186TIP3   OH240048   0.694   6.567   4.456  0.1128 -0.2132 -0.0455
 6186TIP3    H140049   0.747   6.625   4.402 -0.9063  0.4711 -0.3329
 6186TIP3    H240050   0.617   6.619   4.479  1.2530  0.0619  3.4153
 6187TIP3   OH240051   2.798   0.744   2.680  0.3856 -0.0045 -0.0514
 6187TIP3    H140052   2.745   0.727   2.601  0.1199 -0.5673  0.2386
 6187TIP3    H240053   2.888   0.725   2.653  0.3615  0.3351 -0.3721
 6188TIP3   OH240054   5.969   2.122   1.319 -0.7529 -0.1319  0.1717
 6188TIP3    H140055   5.973   2.168   1.403  0.2825 -0.5585  0.3678
 6188TIP3    H240056   5.997   2.186   1.254  0.4446 -0.3957  0.4134
 6189TIP3   OH240057   5.933   6.223  15.105  0.5586  0.1923 -0.6598
 6189TIP3    H140058   5.997   6.156  15.127 -0.3296  0.0296  1.4773
 6189TIP3    H240059   5.881   6.184  15.035  2.2747  0.0431 -1.8923
 6190TIP3   OH240060   1.342   6.207  15.497  1.1537  0.4777 -0.3966
 6190TIP3    H140061   1.316   6.296  15.520  4.1544  1.7073 -1.5255
 6190TIP3    H240062   1.370   6.213  15.405  1.1590 -1.6633 -0.5584
 6191TIP3   OH240063   5.793   1.001   4.721  0.5507 -0.2359 -0.6155
 6191TIP3    H140064   5.748   0.933   4.671  1.2973  0.2156 -1.9299
 6191TIP3    H240065   5.729   1.030   4.786  0.4736 -2.7237  0.4813
 6192TIP3   OH240066   5.698   3.799   1.829 -0.1912  0.1784 -0.0824
 6192TIP3    H140067   5.678   3.890   1.810  0.4027  0.0139 -1.5193
 6192TIP3    H240068   5.793   3.792   1.820 -0.4544 -1.0654 -2.1597
 6193TIP3   OH240069   3.300   2.609  11.760 -0.3697  0.0534  0.1918
 6193TIP3    H140070   3.330   2.567  11.680 -0.3087  0.8012 -0.1852
 6193TIP3    H240071   3.336   2.698  11.755 -1.7120  0.6152  0.2613
 6194TIP3   OH240072   1.091   0.607  12.442 -0.0936 -0.3317  0.2884
 6194TIP3    H140073   0.999   0.614  12.467  0.1955 -1.2135  1.6439
 6194TIP3    H240074   1.102   0.671  12.371 -1.4423  0.6839  0.9779
 6195TIP3   OH240075   4.428   3.716   1.591  0.1306  0.3159  0.6922
 6195TIP3    H140076   4.443   3.764   1.672  1.6776  1.2381 -0.0995
 6195TIP3    H240077   4.385   3.780   1.534  2.4000  0.9197 -0.4442
 6196TIP3   OH240078   2.064   4.106   1.263 -0.7417 -0.6687  0.0134
 6196TIP3    H140079   2.118   4.101   1.184  2.4824  1.1027  1.9767
 6196TIP3    H240080   2.115   4.060   1.330 -1.8845  0.6110  1.8128
 6197TIP3   OH240081   0.014   2.356   3.274 -0.2015  0.2987 -0.0511
 6197TIP3    H140082  -0.078   2.358   3.302 -0.3810 -1.7698 -0.3473
 6197TIP3    H240083   0.063   2.394   3.346 -1.2061  0.5194  0.5227
 6198TIP3   OH240084   0.536   4.849  17.172 -0.1364 -0.3321  0.2266
 6198TIP3    H140085   0.499   4.821  17.088 -0.9370  0.9657  0.1327
 6198TIP3    H240086   0.627   4.820  17.169 -0.5196 -1.4878 -0.5254
 6199TIP3   OH240087   6.517   5.117   2.281 -0.3555  0.5194 -0.8838
 6199TIP3    H140088   6.589   5.177   2.299  1.4517 -1.8952  0.2495
 6199TIP3    H240089   6.526   5.095   2.188  2.2179 -1.9618 -0.1447
 6200TIP3   OH240090   5.698   0.004  16.986 -0.0752  0.4834  0.0202
 6200TIP3    H140091   5.664   0.092  16.966 -1.3069 -0.4878 -2.3264
 6200TIP3    H240092   5.636  -0.031  17.051 -1.4196  0.1931 -1.3763
 6201TIP3   OH240093   5.361   5.774  13.538 -0.6360  0.1012 -0.2817
 6201TIP3    H140094   5.399   5.754  13.624 -1.4640 -0.7503 -0.1066
 6201TIP3    H240095   5.354   5.870  13.537  2.7313  0.3935 -0.8589
 6202TIP3   OH240096   3.590   0.283  14.814 -0.3081  0.6033  0.2167
 6202TIP3    H140097   3.648   0.339  14.762  1.0697  0.4742  1.5960
 6202TIP3    H240098   3.647   0.212  14.844 -1.1092  0.6287  1.8224
 6203TIP3   OH240099   0.969   3.719  12.200 -0.0171  0.2064 -0.1190
 6203TIP3    H140100   0.940   3.809  12.213 -0.6630  0.1004 -0.8152
 6203TIP3    H240101   1.063   3.726  12.185  0.1596  0.6426  1.1231
 6204TIP3   OH240102   0.340   6.173  14.925  0.3731  0.8461 -0.3072
 6204TIP3    H140103   0.412   6.116  14.898 -0.4512  0.5936 -2.1142
 6204TIP3    H240104   0.333   6.237  14.854 -0.9311  1.0833  0.0166
 6205TIP3   OH240105   3.524   1.895  12.672 -0.2292 -0.3705  0.1369
 6205TIP3    H140106   3.556   1.898  12.762  2.2329  0.1887 -0.7232
 6205TIP3    H240107   3.472   1.975  12.662 -0.3096 -0.3167  0.9634
 6206TIP3   OH240108   1.943   0.235  14.825  0.2918  0.0359  0.1932
 6206TIP3    H140109   2.023   0.222  14.775 -0.1317 -0.4563 -0.3651
 6206TIP3    H240110   1.940   0.161  14.887  0.3420  0.1308  0.3087
 6207TIP3   OH240111   6.358   4.728   6.191 -0.1819 -0.2919  0.4333
 6207TIP3    H140112   6.305   4.652   6.166 -1.9316  0.7626  0.8394
 6207TIP3    H240113   6.432   4.692   6.238  0.0282 -1.8833 -1.0769
 6208TIP3   OH240114   6.307   2.001   0.031  0.1116  0.2031  0.2505
 6208TIP3    H140115   6.276   2.084   0.067  1.9579  0.5030  1.2091
 6208TIP3    H240116   6.387   2.024  -0.017 -0.6163 -0.6780 -1.4234
 6209TIP3   OH240117   5.734   2.530   1.439  0.2219 -0.1661 -0.1248
 6209TIP3    H140118   5.744   2.554   1.531  0.1328 -0.8551  0.0652
 6209TIP3    H240119   5.722   2.435   1.440  0.2455 -0.1785 -0.8484
 6210TIP3   OH240120   4.255   3.711  13.016 -0.5001  0.0322  0.1169
 6210TIP3    H140121   4.177   3.763  13.036  1.2786  3.1372 -0.7485
 6210TIP3    H240122   4.259   3.710  12.920  1.0842  0.7812  0.1675
 6211TIP3   OH240123   2.000   6.359  15.191  0.3453  0.3379 -0.1224
 6211TIP3    H140124   1.975   6.372  15.282  3.4697  1.2924  0.6565
 6211TIP3    H240125   1.935   6.409  15.141  0.2387  2.1498  1.7476
 6212TIP3   OH240126   0.690   2.495   3.147 -0.5617 -0.3984  1.1113
 6212TIP3    H140127   0.596   2.513   3.151 -0.3697  0.5431  1.4922
 6212TIP3    H240128   0.732   2.580   3.163  0.3455 -0.5499 -0.3272
 6213TIP3   OH240129   1.691   4.010   5.893  0.7850  0.1764  0.4538
 6213TIP3    H140130   1.667   3.936   5.949  1.4880  0.1989  0.7934
 6213TIP3    H240131   1.608   4.043   5.860  0.5362 -1.7049 -0.9061
 6214TIP3   OH240132   0.149   5.563  15.671  0.1654  0.2828  0.0394
 6214TIP3    H140133   0.063   5.575  15.632 -0.2595 -0.5598  0.6861
 6214TIP3    H240134   0.178   5.477  15.640 -0.2961 -0.5242  1.7496
 6215TIP3   OH240135   6.458   3.018   1.463  0.1140 -0.1596 -0.7498
 6215TIP3    H140136   6.552   3.029   1.477 -0.0707  1.0536 -0.3999
 6215TIP3    H240137   6.429   2.965   1.538  0.0763  1.7152  0.5990
 6216TIP3   OH240138   5.047   6.496  16.388 -0.3297  0.4281 -0.2656
 6216TIP3    H140139   5.095   6.552  16.449  0.8743 -0.5322 -0.3222
 6216TIP3    H240140   5.034   6.414  16.435  1.7326 -0.7865 -1.7221
 6217TIP3   OH240141   3.749   1.121   0.380 -0.2599 -0.7041 -0.1540
 6217TIP3    H140142   3.826   1.174   0.356 -0.8130 -0.3235 -1.1441
 6217TIP3    H240143   3.678   1.159   0.328 -1.2227 -0.7548  1.1003
 6218TIP3   OH240144   0.334   4.099  16.657 -0.6750 -0.3080  0.2743
 6218TIP3    H140145   0.353   4.011  16.689  0.2112  0.4584  1.9070
 6218TIP3    H240146   0.370   4.101  16.569  0.4804 -1.1652  0.7223
 6219TIP3   OH240147   5.203   1.845  14.405 -0.2534 -0.1307  0.7108
 6219TIP3    H140148   5.241   1.816  14.322  2.9159  1.3747  1.5756
 6219TIP3    H240149   5.171   1.933  14.388  0.3967  0.1779  1.0960
 6220TIP3   OH240150   3.244   1.670  11.447 -0.6365 -0.3580 -0.5469
 6220TIP3    H140151   3.253   1.578  11.472 -0.1655  0.2873  1.7628
 6220TIP3    H240152   3.225   1.716  11.529 -0.0406  1.7148 -1.5265
 6221TIP3   OH240153   3.694   6.202   5.366  0.5807  0.0771 -0.4777
 6221TIP3    H140154   3.649   6.189   5.283  0.1603  0.8610 -0.3792
 6221TIP3    H240155   3.753   6.127   5.373 -0.1744 -0.5733 -0.9521
 6222TIP3   OH240156   4.082   4.252  14.545 -0.3652 -0.0709 -0.2222
 6222TIP3    H140157   4.027   4.262  14.622 -0.4051 -1.1123 -0.1100
 6222TIP3    H240158   4.068   4.161  14.517  0.9336 -0.2074 -0.4576
 6223TIP3   OH240159   3.388   0.837   3.493  0.0143  0.2543  0.0262
 6223TIP3    H140160   3.375   0.795   3.408 -0.0182  0.4941 -0.0844
 6223TIP3    H240161   3.300   0.848   3.529  0.1380 -1.9468  1.0926
 6224TIP3   OH240162   0.434   4.165  13.688 -0.4065  0.1877 -0.3758
 6224TIP3    H140163   0.502   4.224  13.720  0.4559 -0.4385 -1.0387
 6224TIP3    H240164   0.479   4.081  13.675 -1.7942 -0.8419  1.3094
 6225TIP3   OH240165   6.610   1.356   3.412 -0.0168 -0.0849 -0.4879
 6225TIP3    H140166   6.541   1.399   3.362  0.9296  1.2746 -0.6448
 6225TIP3    H240167   6.668   1.427   3.438  1.4642 -1.2504 -0.5733
 6226TIP3   OH240168   2.919   6.474  14.319 -1.0405  0.8057 -0.5556
 6226TIP3    H140169   2.857   6.538  14.287 -1.9145  0.3825  0.2487
 6226TIP3    H240170   2.887   6.451  14.407 -0.9279 -0.9543 -0.9529
 6227TIP3   OH240171   5.597   1.496   0.468  0.0249  0.5043 -0.0940
 6227TIP3    H140172   5.504   1.518   0.475 -0.4298 -0.7194 -2.0672
 6227TIP3    H240173   5.615   1.444   0.545 -1.1229  0.1033 -0.0859
 6228TIP3   OH240174   2.689   2.091   2.563 -0.7872 -0.0280  0.3300
 6228TIP3    H140175   2.717   2.181   2.547  2.7284 -1.3024 -1.2097
 6228TIP3    H240176   2.634   2.096   2.641 -1.0233  3.5045 -0.0091
 6229TIP3   OH240177   3.365   5.925  13.742 -0.3862 -0.3014  0.1371
 6229TIP3    H140178   3.451   5.968  13.751 -0.0869 -0.9013  0.1414
 6229TIP3    H240179   3.304   5.998  13.729  0.4579  0.0030 -2.5181
 6230TIP3   OH240180   1.692   5.271  13.013  0.1998 -0.5621  0.3161
 6230TIP3    H140181   1.601   5.292  13.034  0.1583  1.8567 -2.0353
 6230TIP3    H240182   1.743   5.325  13.073  0.0982 -0.2920  0.1583
 6231TIP3   OH240183   5.239   5.659   1.537 -0.3994 -0.2013  0.2188
 6231TIP3    H140184   5.251   5.570   1.504 -1.5316 -0.7107  1.1256
 6231TIP3    H240185   5.175   5.650   1.607  3.2144  0.5465  3.8127
 6232TIP3   OH240186   4.720   2.837  15.113  0.1687  0.0710  0.6925
 6232TIP3    H140187   4.631   2.870  15.102 -0.3346 -0.9911  1.4875
 6232TIP3    H240188   4.713   2.743  15.095  1.4767  0.2794 -1.0305
 6233TIP3   OH240189   5.230   4.418  13.256 -0.5369  0.3245 -0.1823
 6233TIP3    H140190   5.219   4.389  13.165  1.2424  0.0315 -0.3150
 6233TIP3    H240191   5.212   4.512  13.253 -2.6643 -0.0655 -0.4173
 6234TIP3   OH240192   1.273   2.921   4.423  0.3819 -0.4531  0.4172
 6234TIP3    H140193   1.303   2.851   4.366  0.2894 -0.3413  0.2320
 6234TIP3    H240194   1.188   2.947   4.387  0.7156  0.1979  0.0958
 6235TIP3   OH240195   1.589   5.125   5.668 -0.0866  0.4505 -0.3773
 6235TIP3    H140196   1.550   5.193   5.724  0.1952 -0.5989  1.1134
 6235TIP3    H240197   1.683   5.143   5.671 -0.3758  3.5560 -4.7238
 6236TIP3   OH240198   0.274   1.092  16.523 -0.2284 -0.8198 -0.6542
 6236TIP3    H140199   0.349   1.033  16.519  0.5014  0.0064  0.3486
 6236TIP3    H240200   0.301   1.167  16.470  0.2444  0.0927  0.8299
 6237TIP3   OH240201   4.236   2.154  11.411  0.0451  0.5391  0.8322
 6237TIP3    H140202   4.141   2.163  11.420 -0.0789  0.7129 -0.5756
 6237TIP3    H240203   4.254   2.063  11.433 -0.5925  0.2036 -0.0232
 6238TIP3   OH240204   6.501   3.323   2.116  0.2818 -0.0395  0.4736
 6238TIP3    H140205   6.444   3.400   2.124  3.3130  2.4214 -0.5246
 6238TIP3    H240206   6.492   3.295   2.025  1.6008  1.1843 -0.0611
 6239TIP3   OH240207   3.063   0.440   0.764 -0.2883  0.4078 -0.3553
 6239TIP3    H140208   3.036   0.515   0.711 -0.7415  0.4743 -0.0318
 6239TIP3    H240209   2.981   0.395   0.784  0.0667 -0.7153 -1.3552
 6240TIP3   OH240210   4.654   3.816  13.348  0.1926  0.5698  0.0836
 6240TIP3    H140211   4.562   3.814  13.324 -0.2521 -1.9343  1.8472
 6240TIP3    H240212   4.664   3.898  13.397 -1.0894  0.8184 -0.0533
 6241TIP3   OH240213   4.382   6.466   2.143  0.6247 -0.2743 -0.5905
 6241TIP3    H140214   4.352   6.391   2.193  0.9316 -0.1373 -0.2003
 6241TIP3    H240215   4.459   6.497   2.190  0.9304 -0.1606 -1.1593
 6242TIP3   OH240216   1.632   1.017   5.997 -0.4088  0.1439  0.0229
 6242TIP3    H140217   1.580   0.952   6.045  1.0195 -0.5765  0.6076
 6242TIP3    H240218   1.711   1.028   6.049 -0.8404  2.7508  0.1959
 6243TIP3   OH240219   3.250   6.705   6.585  0.2061  0.2334  0.0200
 6243TIP3    H140220   3.330   6.752   6.608 -0.2585  0.8995  0.3041
 6243TIP3    H240221   3.268   6.614   6.607 -0.0274  0.7591  2.5801
 6244TIP3   OH240222   2.925   1.769   1.141  0.2928  0.1205  0.0935
 6244TIP3    H140223   2.891   1.687   1.178  0.7569  0.0533  0.3798
 6244TIP3    H240224   2.992   1.741   1.080 -1.4307  0.1654 -1.8724
 6245TIP3   OH240225   4.840   1.228  14.479  0.2930 -0.2899 -0.1060
 6245TIP3    H140226   4.902   1.250  14.409 -0.5204  1.2587 -0.3625
 6245TIP3    H240227   4.757   1.264  14.449 -0.4920 -1.3742  0.7554
 6246TIP3   OH240228   6.715   0.942  11.312 -0.0913 -0.2240 -0.4780
 6246TIP3    H140229   6.721   0.973  11.222  0.1821 -2.5565 -1.2935
 6246TIP3    H240230   6.762   0.859  11.312  1.6513  0.6887  2.2848
 6247TIP3   OH240231   5.278   5.670  14.210 -0.0340  0.9650 -0.0680
 6247TIP3    H140232   5.294   5.580  14.239  1.5702  0.6858 -1.7450
 6247TIP3    H240233   5.188   5.688  14.237 -0.3441 -1.1184  0.3647
 6248TIP3   OH240234   1.853   3.562   1.903 -0.1323 -0.9497 -0.6167
 6248TIP3    H140235   1.841   3.497   1.972  1.4994 -0.9455 -0.3238
 6248TIP3    H240236   1.787   3.629   1.922  0.4153 -0.8606  1.0474
 6249TIP3   OH240237   0.126   4.682   1.773  0.1832  0.7117  0.8781
 6249TIP3    H140238   0.162   4.713   1.856  0.3069  4.2057 -0.3868
 6249TIP3    H240239   0.036   4.716   1.772  0.5346  1.6495 -0.8703
 6250TIP3   OH240240   2.620   4.904  11.928  0.0535  0.2181  0.1015
 6250TIP3    H140241   2.576   4.822  11.905  0.6843 -0.0300 -0.2145
 6250TIP3    H240242   2.682   4.919  11.857 -0.9933  1.6691 -0.5463
 6251TIP3   OH240243   0.331   2.618   5.815  0.2197  0.0569  0.4165
 6251TIP3    H140244   0.340   2.569   5.733 -1.3884 -0.7521  0.7072
 6251TIP3    H240245   0.336   2.551   5.884  0.1752  0.5660  0.9196
 6252TIP3   OH240246   5.543   3.042   5.219  0.0892  0.2806 -0.1146
 6252TIP3    H140247   5.462   3.043   5.168 -0.8197  1.8722  1.3241
 6252TIP3    H240248   5.560   3.134   5.239  0.4518 -0.2814  2.3763
 6253TIP3   OH240249   1.746   6.721  12.499  0.1779  0.4143  0.3504
 6253TIP3    H140250   1.792   6.794  12.457 -0.4300  0.8002  0.3559
 6253TIP3    H240251   1.665   6.759  12.532 -0.7768 -0.5796 -0.8407
 6254TIP3   OH240252   0.481   4.492  13.927  0.2286  0.7582 -0.0379
 6254TIP3    H140253   0.396   4.464  13.891 -0.0069  1.0237  0.3075
 6254TIP3    H240254   0.469   4.488  14.022  0.4007  1.4100  0.0117
 6255TIP3   OH240255   4.926   4.308  11.871  0.2908 -0.4336 -0.2960
 6255TIP3    H140256   4.884   4.335  11.789 -1.0630 -0.5022  0.3699
 6255TIP3    H240257   4.962   4.389  11.907 -0.9522 -0.0468  0.0915
 6256TIP3   OH240258   5.515   4.423  10.614  0.3501 -0.2242  0.1027
 6256TIP3    H140259   5.535   4.447  10.705  0.9117  0.9606 -0.3194
 6256TIP3    H240260   5.438   4.366  10.621 -1.1673  1.8806  1.1587
 6257TIP3   OH240261   2.526   1.137  12.978  0.8433  0.3319  0.2538
 6257TIP3    H140262   2.483   1.090  12.907  1.0377  0.7678 -0.1545
 6257TIP3    H240263   2.478   1.220  12.985 -0.5316 -0.5827  2.0478
 6258TIP3   OH240264   5.030   5.711   4.616 -0.0087  0.2661 -0.2967
 6258TIP3    H140265   5.084   5.687   4.690  0.3553  0.2231 -0.5758
 6258TIP3    H240266   4.995   5.628   4.583 -1.8283  0.4497  1.0835
 6259TIP3   OH240267   2.468   3.912   3.516 -0.0039 -0.4461 -0.3415
 6259TIP3    H140268   2.513   3.865   3.588  0.6337 -0.2834 -0.6289
 6259TIP3    H240269   2.526   3.900   3.441 -0.8638 -0.9464 -0.9316
 6260TIP3   OH240270   5.125   5.139   6.705 -0.0335  0.1317 -0.1500
 6260TIP3    H140271   5.059   5.095   6.652 -0.2766  3.0065 -2.3011
 6260TIP3    H240272   5.205   5.134   6.653  0.3378  0.7861  0.3498
 6261TIP3   OH240273   1.645   0.283   3.992  0.2464 -0.1601  0.6061
 6261TIP3    H140274   1.609   0.253   4.076  1.1631 -0.4117  0.9214
 6261TIP3    H240275   1.573   0.275   3.931  0.0053 -1.4675  1.0472
 6262TIP3   OH240276   2.152   2.998  13.438  0.3498 -0.0358  0.3000
 6262TIP3    H140277   2.240   3.002  13.401  1.0803 -2.7655  1.5873
 6262TIP3    H240278   2.162   3.035  13.526 -0.0682  0.7147  0.0425
 6263TIP3   OH240279   2.649   5.557   5.801 -0.0886  0.6334 -0.4611
 6263TIP3    H140280   2.588   5.628   5.782  0.1137  0.6572 -1.0232
 6263TIP3    H240281   2.652   5.505   5.721  4.6493  3.6065 -2.4101
 6264TIP3   OH240282   0.951   4.901   5.596 -0.1358  0.2679 -0.1865
 6264TIP3    H140283   0.905   4.981   5.573  0.2286  0.6003  0.2254
 6264TIP3    H240284   0.924   4.837   5.530 -0.7830  0.6015 -0.2487
 6265TIP3   OH240285   1.920   4.302  15.453 -0.4255  0.1439  0.2411
 6265TIP3    H140286   1.856   4.351  15.506 -0.4452 -0.2961  0.6287
 6265TIP3    H240287   1.906   4.210  15.478 -0.5080 -0.0767 -0.6109
 6266TIP3   OH240288   0.316   5.440   0.049 -0.4212 -0.4035  0.0251
 6266TIP3    H140289   0.376   5.484  -0.011  0.4263  0.3040  1.3527
 6266TIP3    H240290   0.357   5.356   0.067 -1.8295 -1.6126 -2.1746
 6267TIP3   OH240291   3.263   4.329  12.870 -0.0669 -0.3882 -0.3439
 6267TIP3    H140292   3.312   4.347  12.790  1.4953  0.5666  0.8102
 6267TIP3    H240293   3.311   4.374  12.939 -0.7069 -2.1741  1.3353
 6268TIP3   OH240294   1.667   0.812  12.779 -0.4758 -0.4460 -0.1819
 6268TIP3    H140295   1.589   0.818  12.835  0.1945 -0.8194  0.8025
 6268TIP3    H240296   1.684   0.718  12.772 -0.6346 -0.4068 -1.1299
 6269TIP3   OH240297   4.762   3.678  13.540  0.1319 -0.1787 -0.3374
 6269TIP3    H140298   4.686   3.640  13.586 -0.6806  0.0811 -1.4507
 6269TIP3    H240299   4.723   3.734  13.473  1.3186  1.5857  0.4367
 6270TIP3   OH240300   3.436   4.046   1.248 -0.2852 -0.4265  0.5287
 6270TIP3    H140301   3.450   4.046   1.343  0.2528 -3.2709  0.4978
 6270TIP3    H240302   3.356   3.996   1.236 -0.3265 -0.1074 -0.5450
 6271TIP3   OH240303   5.244   1.355  15.842 -0.2590  0.4846 -0.7102
 6271TIP3    H140304   5.261   1.449  15.848  0.7386  0.2340  0.7395
 6271TIP3    H240305   5.160   1.348  15.797  0.3634  2.0084 -2.1325
 6272TIP3   OH240306   3.300   6.730  15.865  0.0542  0.4616  0.1628
 6272TIP3    H140307   3.352   6.650  15.855 -1.2250 -0.2598 -0.8108
 6272TIP3    H240308   3.251   6.716  15.946  1.9976  1.5261  1.5727
 6273TIP3   OH240309   2.210   1.899   5.520  0.1117 -0.5416  0.4277
 6273TIP3    H140310   2.167   1.956   5.456  0.3643  0.2405  0.9322
 6273TIP3    H240311   2.293   1.875   5.479 -0.9848 -2.4393 -0.7436
 6274TIP3   OH240312   2.054   5.572   2.790 -0.2967 -0.1651  0.6329
 6274TIP3    H140313   2.101   5.526   2.859  0.0123  0.2846  0.7197
 6274TIP3    H240314   2.024   5.502   2.732  0.5072 -0.4585  0.5583
 6275TIP3   OH240315   3.098   0.662  15.737 -0.0471  0.3534 -0.3784
 6275TIP3    H140316   3.136   0.582  15.701  0.1177  0.3276 -0.1465
 6275TIP3    H240317   3.004   0.650  15.727 -0.0349 -0.0099 -0.0409
 6276TIP3   OH240318   4.419   3.735   4.161  0.0373 -0.7225 -0.6957
 6276TIP3    H140319   4.428   3.715   4.254  0.0696 -0.1043 -0.5618
 6276TIP3    H240320   4.383   3.655   4.122  0.5169 -1.1646 -0.2397
 6277TIP3   OH240321   0.059   3.922  16.776  0.3693  0.0811 -0.1040
 6277TIP3    H140322   0.006   3.862  16.828  0.6638  0.0855  0.2047
 6277TIP3    H240323   0.134   3.869  16.749  1.5373  0.7718  1.6561
 6278TIP3   OH240324   2.013   3.113  12.252 -0.1475 -0.0342 -0.4953
 6278TIP3    H140325   2.031   3.081  12.164  0.1914 -2.0811  0.2998
 6278TIP3    H240326   1.920   3.137  12.250  0.0497  0.6820 -1.6193
 6279TIP3   OH240327   2.139   3.259  10.456 -0.6646  0.6437  0.2632
 6279TIP3    H140328   2.234   3.267  10.459 -0.6405  0.0903  0.9772
 6279TIP3    H240329   2.109   3.342  10.420  0.1871  0.2350 -1.4238
 6280TIP3   OH240330   6.601   6.169   0.540  0.0309 -0.5920  0.4265
 6280TIP3    H140331   6.508   6.156   0.557  0.0900 -0.5168  0.8176
 6280TIP3    H240332   6.640   6.082   0.550  0.0016 -0.6255  0.2493
 6281TIP3   OH240333   6.221   5.002  13.352  0.5412  0.5770  0.4643
 6281TIP3    H140334   6.225   4.907  13.343 -0.4860  0.4430  1.2418
 6281TIP3    H240335   6.145   5.028  13.300  0.9086  0.9803  0.1349
 6282TIP3   OH240336   6.524   1.859   3.328  0.1051 -0.3735  0.2994
 6282TIP3    H140337   6.561   1.820   3.249  1.1775 -0.0873  0.6532
 6282TIP3    H240338   6.461   1.794   3.359  2.3002 -2.1467  1.2278
 6283TIP3   OH240339   4.010   6.277   4.764 -0.2672  0.3438  0.0657
 6283TIP3    H140340   3.917   6.254   4.768 -0.0705 -0.6596 -0.7512
 6283TIP3    H240341   4.036   6.257   4.674  1.6753 -3.1438  1.2995
 6284TIP3   OH240342   5.748   3.567   1.277  0.3378 -0.0570  0.0074
 6284TIP3    H140343   5.723   3.540   1.189  1.7524 -0.3222 -0.3270
 6284TIP3    H240344   5.668   3.557   1.329 -1.0137  1.9435 -1.6463
 6285TIP3   OH240345   1.376   3.690   4.792  0.3565 -0.0503 -0.1935
 6285TIP3    H140346   1.397   3.635   4.717  0.5799 -2.6157  1.7010
 6285TIP3    H240347   1.457   3.737   4.811  0.4761  0.1443 -1.1362
 6286TIP3   OH240348   5.705   3.559  16.561  0.1247 -0.2400  0.3475
 6286TIP3    H140349   5.781   3.617  16.564 -1.2155  1.5458  0.8616
 6286TIP3    H240350   5.648   3.592  16.631 -1.7444 -0.6456 -0.9406
 6287TIP3   OH240351   6.656   2.591  12.864 -0.1783  0.5132 -0.1759
 6287TIP3    H140352   6.642   2.587  12.958 -0.3010  1.4057 -0.1492
 6287TIP3    H240353   6.653   2.685  12.843  0.9782  0.4103 -0.8861
 6288TIP3   OH240354   5.825   4.682  12.972  0.0261 -0.2201 -0.6910
 6288TIP3    H140355   5.841   4.750  13.037  1.7877  0.1111 -1.4533
 6288TIP3    H240356   5.750   4.715  12.922 -2.9175 -1.5577  2.5698
 6289TIP3   OH240357   4.710   0.573   0.533 -0.3056  0.1346 -0.3841
 6289TIP3    H140358   4.690   0.534   0.448  1.2947 -1.2806 -0.1492
 6289TIP3    H240359   4.758   0.653   0.512  1.3665 -0.9646 -0.8069
 6290TIP3   OH240360   6.326   2.903   3.436  0.6026 -0.1231  0.1364
 6290TIP3    H140361   6.237   2.937   3.432  0.3629 -0.8197 -0.4820
 6290TIP3    H240362   6.321   2.831   3.499  0.9028  0.3555  0.7124
 6291TIP3   OH240363   1.211   2.776  12.714  0.3078  0.7376  0.7621
 6291TIP3    H140364   1.217   2.701  12.773 -2.8535  0.2524  0.5643
 6291TIP3    H240365   1.286   2.766  12.655  2.2353  0.0003  3.2174
 6292TIP3   OH240366   4.670   3.699   1.787 -0.2713  0.3498 -0.3403
 6292TIP3    H140367   4.713   3.766   1.733  0.3658 -0.2640 -0.6233
 6292TIP3    H240368   4.646   3.631   1.724  1.3423 -0.8139  0.2580
 6293TIP3   OH240369   2.565   5.715  11.175  0.3168 -0.7990 -0.6603
 6293TIP3    H140370   2.626   5.739  11.105  2.4981 -1.4738  0.9599
 6293TIP3    H240371   2.504   5.789  11.180 -0.1261 -0.9155 -3.4988
 6294TIP3   OH240372   4.578   2.788   3.255  0.3188 -0.5074  0.0689
 6294TIP3    H140373   4.535   2.786   3.170  0.4863  0.1939 -0.0332
 6294TIP3    H240374   4.622   2.703   3.261 -0.2860 -0.8491 -0.2304
 6295TIP3   OH240375   4.205   4.809   0.426  0.2696  0.4473  0.0532
 6295TIP3    H140376   4.200   4.898   0.391  1.0707  1.0117  1.3305
 6295TIP3    H240377   4.292   4.778   0.400  0.0111  0.0468 -0.3490
 6296TIP3   OH240378   3.079   0.915  16.232  0.8979  0.3057  0.1203
 6296TIP3    H140379   3.133   0.849  16.277 -3.2054 -1.4831  2.7953
 6296TIP3    H240380   3.058   0.875  16.148  3.5519  0.9638 -0.8892
 6297TIP3   OH240381   2.162   0.589  14.344  0.2718  0.6641 -0.5331
 6297TIP3    H140382   2.141   0.666  14.291 -1.0310 -0.8723 -2.2979
 6297TIP3    H240383   2.232   0.544  14.297  1.5215  1.0890  0.8526
 6298TIP3   OH240384   3.584   5.884  12.394  0.7575 -0.0436 -0.1321
 6298TIP3    H140385   3.673   5.872  12.428  1.3521  1.0052 -1.2770
 6298TIP3    H240386   3.597   5.918  12.305 -0.7995  0.5229 -0.1464
 6299TIP3   OH240387   3.698   0.686  16.242 -0.4053  0.0998  0.4685
 6299TIP3    H140388   3.763   0.669  16.174 -1.2207 -1.2672 -0.0007
 6299TIP3    H240389   3.748   0.717  16.317  0.4850  2.0050 -0.8686
 6300TIP3   OH240390   6.293   1.248  13.500 -0.4536 -0.0192  0.3501
 6300TIP3    H140391   6.223   1.212  13.445  0.2578  0.6194 -0.9999
 6300TIP3    H240392   6.286   1.343  13.487 -0.4764  0.1498  1.6144
 6301TIP3   OH240393   1.634   3.392  15.909 -0.1764  0.0591 -0.2918
 6301TIP3    H140394   1.540   3.396  15.892 -0.5044  1.2326  1.6820
 6301TIP3    H240395   1.660   3.483  15.926  1.0777 -0.4085  0.3752
 6302TIP3   OH240396   6.173   2.737   5.027 -0.2948  0.2027 -0.3508
 6302TIP3    H140397   6.215   2.716   5.111  0.6572 -0.4454 -0.9810
 6302TIP3    H240398   6.086   2.697   5.034 -0.8576  1.6058  0.9889
 6303TIP3   OH240399   2.329   0.105   2.077  0.1471  0.1548 -0.1354
 6303TIP3    H140400   2.415   0.143   2.062  0.5876 -0.5413  0.5805
 6303TIP3    H240401   2.268   0.169   2.040  0.9597  0.7001 -0.5536
 6304TIP3   OH240402   2.297   0.798   4.892  0.2104 -0.4373  0.0029
 6304TIP3    H140403   2.277   0.744   4.968 -0.2919 -1.1434 -0.6220
 6304TIP3    H240404   2.219   0.793   4.837  0.7895 -0.4221 -0.8413
 6305TIP3   OH240405   5.933   6.218   4.859  0.1552 -0.2660 -0.6884
 6305TIP3    H140406   6.027   6.233   4.851 -0.0184  1.0557 -0.1854
 6305TIP3    H240407   5.923   6.173   4.942  0.1639  1.1213  0.0673
 6306TIP3   OH240408   5.907   0.024   3.053 -0.1687 -0.3484 -0.1152
 6306TIP3    H140409   5.992   0.051   3.018 -0.4034 -2.0315 -2.0884
 6306TIP3    H240410   5.855   0.105   3.057  1.9809  0.9907  2.6328
 6307TIP3   OH240411   0.840   2.992  14.285 -0.4311  0.1620  0.1099
 6307TIP3    H140412   0.765   3.051  14.277 -0.2492  1.0704  4.0587
 6307TIP3    H240413   0.802   2.910  14.317 -0.1077 -0.4406 -1.0163
 6308TIP3   OH240414   0.796   3.097   5.873 -0.3984 -0.1739 -0.2060
 6308TIP3    H140415   0.856   3.084   5.800 -1.1376  0.6733 -0.9809
 6308TIP3    H240416   0.833   3.170   5.922 -2.4987  2.6649 -2.5911
 6309TIP3   OH240417   0.906   1.433  15.671  0.0907 -0.2472 -0.2298
 6309TIP3    H140418   0.913   1.525  15.646  0.6630 -0.1753  0.1672
 6309TIP3    H240419   0.864   1.434  15.757  1.9688 -0.2000  0.7342
 6310TIP3   OH240420   1.482   5.050   2.533  0.2512 -0.3556  0.0206
 6310TIP3    H140421   1.497   5.091   2.618 -0.5329 -0.4999  0.2292
 6310TIP3    H240422   1.552   4.984   2.525 -0.0498 -0.7704  0.8211
 6311TIP3   OH240423   1.100   1.080   3.605  0.6002 -0.8002  0.0878
 6311TIP3    H140424   1.172   1.074   3.542 -0.5285  0.9104 -1.3950
 6311TIP3    H240425   1.022   1.088   3.551 -0.4572  0.0032  1.7099
 6312TIP3   OH240426   2.176   0.470  14.844  0.4682 -0.1081 -0.3885
 6312TIP3    H140427   2.124   0.478  14.764 -1.0182  1.5289  0.7190
 6312TIP3    H240428   2.142   0.538  14.902  0.1416 -2.5351  2.3927
 6313TIP3   OH240429   0.471   4.863  12.980  0.0112  0.4814 -0.2051
 6313TIP3    H140430   0.566   4.869  12.985 -0.0734  0.2277  2.1724
 6313TIP3    H240431   0.445   4.937  12.926  1.6519 -0.3464 -2.1943
 6314TIP3   OH240432   6.599   4.686   5.700 -0.2166 -0.0565  0.2882
 6314TIP3    H140433   6.682   4.652   5.734 -0.2696 -0.2942  0.1786
 6314TIP3    H240434   6.612   4.690   5.605  0.0381  0.8877  0.3515
 6315TIP3   OH240435   5.096   6.458  16.131 -0.1954 -0.3132 -0.0406
 6315TIP3    H140436   5.101   6.362  16.129 -0.2154 -0.3728  1.5136
 6315TIP3    H240437   5.091   6.479  16.225 -1.7666  1.1274 -0.4213
 6316TIP3   OH240438   2.419   0.382   2.837  0.1334 -0.3983 -0.4168
 6316TIP3    H140439   2.436   0.385   2.932  0.1884 -0.6546 -0.4197
 6316TIP3    H240440   2.337   0.334   2.830 -0.2845  0.3105 -0.4444
 6317TIP3   OH240441   5.054   0.497   4.379 -0.3645  0.6349  0.1489
 6317TIP3    H140442   4.991   0.565   4.353 -0.8564  0.5425  1.0748
 6317TIP3    H240443   5.047   0.431   4.310 -1.0053  0.8167  0.0323
 6318TIP3   OH240444   3.553   0.614  16.616  0.2453  0.3334  0.3427
 6318TIP3    H140445   3.589   0.702  16.602 -0.0386 -0.0066 -2.6500
 6318TIP3    H240446   3.617   0.555  16.577 -1.5657 -0.5077 -1.4326
 6319TIP3   OH240447   3.663   5.033   5.111 -0.1946  0.2114 -0.3437
 6319TIP3    H140448   3.630   5.111   5.067  1.5706  1.7391  0.9585
 6319TIP3    H240449   3.673   5.060   5.203 -0.4713 -1.8425  0.3176
 6320TIP3   OH240450   1.761   4.383  13.952 -0.3175 -0.5498 -0.0882
 6320TIP3    H140451   1.723   4.441  13.886  0.1220 -0.0184  0.1290
 6320TIP3    H240452   1.688   4.365  14.012 -0.2944  0.2616  0.1810
 6321TIP3   OH240453   5.852   4.037   2.279  0.0747  0.0803  0.2490
 6321TIP3    H140454   5.860   4.133   2.280  0.3298  0.0639 -0.3652
 6321TIP3    H240455   5.785   4.019   2.214  0.2342 -0.1773  0.1558
 6322TIP3   OH240456   5.559   2.807  15.573  0.1407  0.1035  0.0910
 6322TIP3    H140457   5.652   2.786  15.570 -0.0540 -1.1213  1.8163
 6322TIP3    H240458   5.534   2.823  15.482  2.2788  1.5898 -0.2643
 6323TIP3   OH240459   4.767   3.211  15.616 -0.2962 -0.0452 -0.5210
 6323TIP3    H140460   4.841   3.264  15.646  2.9386 -4.7730  0.3491
 6323TIP3    H240461   4.789   3.189  15.526 -1.0684 -0.8206 -0.5173
 6324TIP3   OH240462   2.703   5.553   6.626  0.0315  0.0377  0.3345
 6324TIP3    H140463   2.641   5.496   6.672 -0.5544 -0.2162 -0.7654
 6324TIP3    H240464   2.755   5.494   6.572 -1.8639  0.7231 -2.2867
 6325TIP3   OH240465   0.870   4.171  12.820  0.2820  0.4844 -0.0416
 6325TIP3    H140466   0.781   4.205  12.819  0.4369  0.8958  0.3688
 6325TIP3    H240467   0.916   4.225  12.883  0.8098  0.2302 -0.2068
 6326TIP3   OH240468   1.448   3.002   5.514  0.8115  0.1489  0.5465
 6326TIP3    H140469   1.390   2.964   5.579  0.2712  1.1261  0.6518
 6326TIP3    H240470   1.470   2.930   5.455  0.2753 -0.4416  1.0714
 6327TIP3   OH240471   3.678   4.680   1.590 -0.0526 -0.6183 -0.5051
 6327TIP3    H140472   3.768   4.652   1.575  0.1979  0.1104 -0.3784
 6327TIP3    H240473   3.685   4.754   1.650 -0.7660 -0.8320 -0.1488
 6328TIP3   OH240474   5.150   0.876   3.254  0.1311 -0.5324  0.1899
 6328TIP3    H140475   5.182   0.947   3.199 -1.1408 -0.2582 -0.2226
 6328TIP3    H240476   5.227   0.822   3.271  0.7216 -0.1380 -1.1469
 6329TIP3   OH240477   3.777   0.612   3.648  0.0252  0.1404 -0.0138
 6329TIP3    H140478   3.808   0.601   3.738 -2.0015  0.2572  0.7381
 6329TIP3    H240479   3.684   0.633   3.658 -0.6042 -1.4728 -2.1974
 6330TIP3   OH240480   4.315   3.548  13.271 -0.2012  0.5380  0.1903
 6330TIP3    H140481   4.235   3.509  13.306  0.6129 -2.6434 -1.3428
 6330TIP3    H240482   4.295   3.564  13.179  0.1751  1.8930  0.3361
 6331TIP3   OH240483   6.591   0.768  13.035  0.2751 -0.6386 -0.2043
 6331TIP3    H140484   6.650   0.738  12.966  1.2851 -0.5688  0.6161
 6331TIP3    H240485   6.622   0.856  13.056 -0.1041 -0.6175  0.2678
 6332TIP3   OH240486   5.918   5.748   0.170 -0.0471 -0.0951 -0.4775
 6332TIP3    H140487   5.961   5.718   0.250 -0.0496 -2.8818 -1.4606
 6332TIP3    H240488   5.965   5.827   0.145  0.1904  0.5872  2.0734
 6333TIP3   OH240489   3.828   0.351  12.815  0.2891  0.4456  0.5672
 6333TIP3    H140490   3.820   0.288  12.887 -0.6484 -1.1874 -0.9282
 6333TIP3    H240491   3.907   0.324  12.769  1.0822  1.7061  1.1698
 6334TIP3   OH240492   0.763   6.609  13.459  0.4724  0.0396 -0.1605
 6334TIP3    H140493   0.838   6.600  13.517 -0.6029  2.0071  1.6183
 6334TIP3    H240494   0.783   6.685  13.405  0.9757 -1.1154 -1.6197
 6335TIP3   OH240495   1.797   0.547  14.413  0.1528  0.4073 -0.5011
 6335TIP3    H140496   1.704   0.524  14.416  0.1673  0.2742 -1.0764
 6335TIP3    H240497   1.799   0.641  14.429  0.0103  0.2193  0.7070
 6336TIP3   OH240498   5.205   1.250  14.889  0.4983  0.1052  0.1934
 6336TIP3    H140499   5.122   1.269  14.845  1.5388 -0.3032 -2.0364
 6336TIP3    H240500   5.248   1.335  14.895  0.6626  0.0591 -0.2676
 6337TIP3   OH240501   5.443   0.061   0.753 -0.1909  0.7148  0.2002
 6337TIP3    H140502   5.409   0.136   0.704  0.1548  2.1145  2.0683
 6337TIP3    H240503   5.512   0.097   0.808  0.3193 -1.0721  0.7562
 6338TIP3   OH240504   2.366   0.644  16.009 -0.3470  0.5545  0.4871
 6338TIP3    H140505   2.439   0.697  15.977 -0.1006 -0.2622 -0.3340
 6338TIP3    H240506   2.394   0.613  16.095  1.4543 -2.0001 -0.9483
 6339TIP3   OH240507   3.245   2.161  13.563 -0.2575  0.3783 -0.3015
 6339TIP3    H140508   3.310   2.177  13.631  0.9281  0.6934 -1.4989
 6339TIP3    H240509   3.164   2.143  13.612  1.2306 -2.5079  1.2772
 6340TIP3   OH240510   3.278   5.044   6.152  0.0132  0.0787  0.2271
 6340TIP3    H140511   3.344   5.085   6.207  1.2099  1.1528 -1.9244
 6340TIP3    H240512   3.274   4.953   6.182  1.6520  0.3040  1.1433
 6341TIP3   OH240513   2.554   5.058  13.124  0.9365 -0.1472  0.3354
 6341TIP3    H140514   2.512   5.002  13.189  0.5485 -0.5782 -0.2776
 6341TIP3    H240515   2.643   5.024  13.116  0.9324 -0.1999  0.5140
 6342TIP3   OH240516   0.869   0.634   6.849  1.0960  0.2265  1.1840
 6342TIP3    H140517   0.876   0.542   6.873  0.9533 -0.0110  0.3404
 6342TIP3    H240518   0.949   0.674   6.882  1.8715 -0.5080  0.2244
 6343TIP3   OH240519   0.788   4.106   4.075  0.3922  0.0509 -0.3840
 6343TIP3    H140520   0.700   4.071   4.088  0.2144  0.8352  0.6082
 6343TIP3    H240521   0.840   4.031   4.047  0.1813 -1.1749  2.3623
 6344TIP3   OH240522   1.111   6.382   1.509  0.4935 -0.6511 -0.3644
 6344TIP3    H140523   1.120   6.299   1.462  2.5392 -0.8915  0.4018
 6344TIP3    H240524   1.165   6.371   1.587  1.5240  1.7415 -0.7087
 6345TIP3   OH240525   4.507   2.197  12.134  0.1726 -0.3155 -0.1995
 6345TIP3    H140526   4.554   2.121  12.167  1.1082  0.0554 -0.6522
 6345TIP3    H240527   4.470   2.239  12.212  0.0924 -0.9359  0.0961
 6346TIP3   OH240528   1.141   5.942  14.411  0.0246  0.9262 -0.1931
 6346TIP3    H140529   1.146   5.963  14.504 -1.8904  0.9585 -0.0837
 6346TIP3    H240530   1.225   5.898  14.392  0.6997  1.4979  1.3732
 6347TIP3   OH240531   2.465   5.823   5.889  0.6614  0.3302 -0.0279
 6347TIP3    H140532   2.543   5.811   5.943  1.7009 -0.0551 -1.5524
 6347TIP3    H240533   2.488   5.894   5.829 -0.9844  1.7070  0.9165
 6348TIP3   OH240534   2.170   4.726   0.187  0.2445  0.3702 -0.2103
 6348TIP3    H140535   2.195   4.799   0.131  0.4225  0.9092  0.5566
 6348TIP3    H240536   2.126   4.767   0.261  2.0265 -0.1331  1.1623
 6349TIP3   OH240537   5.849   1.441   5.920 -0.4070  0.2240 -0.1907
 6349TIP3    H140538   5.878   1.494   5.994 -0.0366 -1.4837  0.8937
 6349TIP3    H240539   5.755   1.459   5.914 -0.6018 -0.2383  1.2165
 6350TIP3   OH240540   6.346   2.702   2.502 -0.4863 -0.4373 -0.6277
 6350TIP3    H140541   6.389   2.766   2.446 -1.2582 -0.1227 -0.8641
 6350TIP3    H240542   6.295   2.647   2.442  1.5181 -2.3592 -0.6195
 6351TIP3   OH240543   4.750   4.202  13.792  0.0455 -0.2877  0.0396
 6351TIP3    H140544   4.743   4.290  13.829 -0.8260 -0.3386  0.0022
 6351TIP3    H240545   4.711   4.145  13.859  1.7369 -0.8064  0.6282
 6352TIP3   OH240546   4.103   6.735   1.014  0.0536  0.5928  0.3328
 6352TIP3    H140547   4.091   6.645   0.983 -1.7572 -0.0353  2.6862
 6352TIP3    H240548   4.014   6.765   1.035  0.4554  3.4737 -1.7380
 6353TIP3   OH240549   1.191   0.175  13.691  0.0725 -0.1096  0.1508
 6353TIP3    H140550   1.202   0.153  13.598 -0.3324  1.2869 -0.2516
 6353TIP3    H240551   1.280   0.176  13.726  0.3265  0.3622 -0.4866
 6354TIP3   OH240552   1.111   4.811  13.891 -0.1702  0.2511  0.0240
 6354TIP3    H140553   1.198   4.778  13.916 -0.9413 -0.4815  1.8740
 6354TIP3    H240554   1.101   4.787  13.799  1.3844 -0.1058 -0.0642
 6355TIP3   OH240555   2.236   4.380  14.014 -0.1247 -0.1619 -0.1531
 6355TIP3    H140556   2.212   4.303  14.066 -1.1233 -0.1433 -0.5808
 6355TIP3    H240557   2.332   4.378  14.012 -0.0866 -0.4056  1.3181
 6356TIP3   OH240558   5.196   6.720   4.943 -0.3878 -0.2514  0.0949
 6356TIP3    H140559   5.212   6.670   5.023  0.0923  0.5278  0.4957
 6356TIP3    H240560   5.257   6.793   4.949 -0.0882 -0.4017 -1.1748
 6357TIP3   OH240561   5.713   0.997  13.475  0.3714  0.2132  0.3328
 6357TIP3    H140562   5.787   0.950  13.436 -0.0478 -0.4161  0.2998
 6357TIP3    H240563   5.695   0.950  13.556  0.9149  1.2221  1.0485
 6358TIP3   OH240564   6.065   5.874   3.942 -0.2160  0.3104  0.5578
 6358TIP3    H140565   6.132   5.853   4.007  1.8562  0.8562 -1.3374
 6358TIP3    H240566   6.042   5.790   3.903  0.5285  0.3197  0.1032
 6359TIP3   OH240567   6.077   3.313  15.380  0.0941  0.1722  0.0524
 6359TIP3    H140568   6.085   3.318  15.476  0.1092  3.0497 -0.0541
 6359TIP3    H240569   6.152   3.363  15.347  0.6651 -1.6594 -1.5069
 6360TIP3   OH240570   5.302   0.185  14.032  0.6608  0.0155  0.3218
 6360TIP3    H140571   5.250   0.174  14.112  0.5994 -0.4403  0.2210
 6360TIP3    H240572   5.268   0.266  13.993 -1.2009 -1.1885 -0.6604
 6361TIP3   OH240573   1.631   1.048   1.010  0.1991 -0.4698 -0.0875
 6361TIP3    H140574   1.682   1.108   0.956  0.2198 -1.1110 -0.7937
 6361TIP3    H240575   1.548   1.094   1.025  0.7407  0.3202  0.5603
 6362TIP3   OH240576   3.689   2.181  14.540  0.2837 -0.0194  0.2565
 6362TIP3    H140577   3.600   2.148  14.557  0.2894  0.3438  0.9931
 6362TIP3    H240578   3.705   2.245  14.609  0.6108  0.9111 -0.6668
 6363TIP3   OH240579   0.125   1.731  11.289  0.3316 -0.0610 -0.0387
 6363TIP3    H140580   0.044   1.684  11.306  0.9045 -1.0759 -0.0668
 6363TIP3    H240581   0.099   1.823  11.284 -0.6230 -0.2417  1.2378
 6364TIP3   OH240582   5.404   6.566  15.761  0.2051 -0.2252  0.3021
 6364TIP3    H140583   5.348   6.504  15.809 -0.1416  1.7436  2.5725
 6364TIP3    H240584   5.363   6.573  15.675 -1.2735 -1.1956  0.8964
 6365TIP3   OH240585   6.282   3.219   6.554 -0.2486 -0.1829 -0.0016
 6365TIP3    H140586   6.308   3.129   6.533  0.2336 -0.3344  1.2062
 6365TIP3    H240587   6.205   3.210   6.610 -0.5116  0.1756 -0.3001
 6366TIP3   OH240588   6.079   5.332   2.822 -0.3501  0.2803  0.2391
 6366TIP3    H140589   5.994   5.287   2.825  0.3599 -1.0564  0.6274
 6366TIP3    H240590   6.127   5.290   2.751  0.4199  0.2400  0.7717
 6367TIP3   OH240591   2.595   3.428   3.575  0.0633  0.1411  0.6142
 6367TIP3    H140592   2.538   3.423   3.499 -0.8741 -1.9660  1.4067
 6367TIP3    H240593   2.684   3.432   3.538 -0.5321  2.6274 -0.6040
 6368TIP3   OH240594   0.473   2.436   0.775  0.2287  0.2196  0.0928
 6368TIP3    H140595   0.385   2.448   0.739  1.0819  0.4564 -2.0116
 6368TIP3    H240596   0.460   2.388   0.857 -1.7903 -0.4821 -0.6245
 6369TIP3   OH240597   4.997   2.147  15.811  0.0269 -0.6835 -0.6056
 6369TIP3    H140598   4.956   2.151  15.725  0.7255 -0.0562 -0.9097
 6369TIP3    H240599   4.925   2.127  15.871 -0.6334 -0.0821 -1.1957
 6370TIP3   OH240600   3.922   2.985   0.755  0.0254  0.0263 -0.6119
 6370TIP3    H140601   3.830   3.006   0.736 -0.1689 -1.3471 -1.2989
 6370TIP3    H240602   3.970   3.015   0.678  0.0844  0.3158 -0.4605
 6371TIP3   OH240603   6.303   4.973  11.334 -1.0260 -0.3478 -0.2934
 6371TIP3    H140604   6.223   5.023  11.349 -0.5278 -0.1882  1.9773
 6371TIP3    H240605   6.299   4.901  11.398  0.9734  0.0828  0.3530
 6372TIP3   OH240606   4.892   0.786   1.005 -0.6966 -0.2854 -0.1483
 6372TIP3    H140607   4.815   0.733   0.984 -0.0386 -1.2636 -0.1400
 6372TIP3    H240608   4.875   0.870   0.964 -2.4722  0.0262  1.1629
 6373TIP3   OH240609   0.576   3.884   0.665 -0.2177  0.0727  0.2055
 6373TIP3    H140610   0.616   3.814   0.716 -0.2474  0.0900  0.2529
 6373TIP3    H240611   0.649   3.936   0.633 -0.2126  0.2159  0.4516
 6374TIP3   OH240612   3.909   5.067   3.552 -1.0229 -0.3135 -0.2305
 6374TIP3    H140613   3.888   5.102   3.639 -0.5861 -0.3098 -0.1269
 6374TIP3    H240614   3.964   4.991   3.570  0.8056  0.9213 -0.5835
 6375TIP3   OH240615   5.208   1.262   5.754 -0.0627 -0.3785  0.0191
 6375TIP3    H140616   5.223   1.315   5.676 -1.8387 -0.4017 -0.3609
 6375TIP3    H240617   5.194   1.173   5.720 -1.2107 -0.3165  0.3326
 6376TIP3   OH240618   2.611   3.973   2.523 -0.0054  0.1227  0.4860
 6376TIP3    H140619   2.564   3.896   2.491  0.7491 -0.5508  0.9860
 6376TIP3    H240620   2.576   4.045   2.471  0.1620 -0.7368 -0.8351
 6377TIP3   OH240621   1.132   6.221  15.167  0.2090 -0.0760 -0.1342
 6377TIP3    H140622   1.212   6.186  15.206 -1.2242 -1.5216  1.5684
 6377TIP3    H240623   1.085   6.262  15.239 -0.6426  0.6607 -1.0874
 6378TIP3   OH240624   4.096   0.402   1.709 -0.1243 -0.1436 -0.0126
 6378TIP3    H140625   4.102   0.315   1.671 -1.3669  1.0681 -3.1326
 6378TIP3    H240626   4.186   0.437   1.705  0.2411 -0.9787  0.6331
 6379TIP3   OH240627   6.303   3.243   3.324 -0.2945 -0.1148 -0.1152
 6379TIP3    H140628   6.276   3.219   3.236 -0.2542  1.7989 -0.6704
 6379TIP3    H240629   6.233   3.210   3.381 -0.5935 -0.8482 -0.8968
 6380TIP3   OH240630   4.014   0.102  12.427 -0.1625 -0.4444 -0.1879
 6380TIP3    H140631   3.977   0.184  12.458  0.5289  0.1212 -0.8479
 6380TIP3    H240632   3.942   0.058  12.381 -1.5912 -1.8730  3.2172
 6381TIP3   OH240633   6.597   6.680  11.861  0.8765  0.3225 -0.2518
 6381TIP3    H140634   6.671   6.623  11.839  1.2732  0.3158  1.0882
 6381TIP3    H240635   6.591   6.676  11.956 -2.1098 -1.2802 -0.4236
 6382TIP3   OH240636   3.719   6.127  15.461 -0.4794  0.4880  0.8084
 6382TIP3    H140637   3.799   6.114  15.410 -0.7197  0.4530  0.4434
 6382TIP3    H240638   3.739   6.089  15.547 -0.0995  0.4908  0.7227
 6383TIP3   OH240639   5.060   4.670   3.472 -0.1751  0.0011 -0.3323
 6383TIP3    H140640   5.116   4.748   3.477 -0.4038  0.1367  0.1254
 6383TIP3    H240641   5.011   4.680   3.390 -0.0925  0.2628 -0.3492
 6384TIP3   OH240642   3.830   6.422  11.669  0.1851  0.4483 -0.3478
 6384TIP3    H140643   3.764   6.492  11.665 -1.1600 -0.8192 -0.5305
 6384TIP3    H240644   3.843   6.396  11.577  0.1240 -0.0742 -0.2073
 6385TIP3   OH240645   2.762   0.208   4.476  0.0407  0.1701  0.0868
 6385TIP3    H140646   2.779   0.159   4.396 -0.0203 -0.1960  0.3006
 6385TIP3    H240647   2.737   0.296   4.445  1.8299  0.5691 -0.2347
 6386TIP3   OH240648   3.683   1.557  12.664  0.0481  0.6684  0.0159
 6386TIP3    H140649   3.669   1.483  12.606  0.4048  0.9354 -0.4267
 6386TIP3    H240650   3.597   1.597  12.675 -0.3285 -0.4318  1.1226
 6387TIP3   OH240651   1.845   2.166  10.513 -0.3245 -0.1498  0.3954
 6387TIP3    H140652   1.916   2.182  10.575 -0.9938  1.0093  0.8655
 6387TIP3    H240653   1.858   2.231  10.444 -0.0288 -0.9454 -0.3207
 6388TIP3   OH240654   1.315   5.659   3.022 -0.7751  0.2679  0.0544
 6388TIP3    H140655   1.337   5.730   2.962  1.7021  1.2207  1.9932
 6388TIP3    H240656   1.395   5.644   3.073 -1.9841 -2.2799  1.3462
 6389TIP3   OH240657   0.903   6.160   4.973  0.4435 -0.4417  0.5391
 6389TIP3    H140658   0.814   6.194   4.967 -0.7270 -3.0542  2.2086
 6389TIP3    H240659   0.922   6.126   4.886 -0.3646 -0.2739  0.2901
 6390TIP3   OH240660   1.591   0.193   4.273  0.5879 -0.6053  0.1829
 6390TIP3    H140661   1.589   0.120   4.335 -0.8783 -0.5938  0.1616
 6390TIP3    H240662   1.539   0.262   4.315  0.3189 -0.2809 -0.6796
 6391TIP3   OH240663   6.299   5.544   2.443  0.5671  0.2780  0.3299
 6391TIP3    H140664   6.220   5.576   2.488  0.9565 -0.3996  1.5407
 6391TIP3    H240665   6.265   5.493   2.369 -0.1778 -0.5487  1.2125
 6392TIP3   OH240666   4.209   6.652  12.410 -0.1471 -0.4045 -0.0055
 6392TIP3    H140667   4.264   6.715  12.458 -0.4572  1.2363 -1.7343
 6392TIP3    H240668   4.267   6.617  12.343 -0.0549 -1.8041  0.7964
 6393TIP3   OH240669   0.795   2.618  10.972  0.4931 -0.1942  0.3528
 6393TIP3    H140670   0.832   2.701  10.943 -0.2852  0.1722  0.3784
 6393TIP3    H240671   0.870   2.559  10.983  1.2138  1.0012  1.9595
 6394TIP3   OH240672   4.718   6.221  16.319 -0.1073  0.5185  0.0329
 6394TIP3    H140673   4.734   6.246  16.410  2.0463 -0.3753 -0.0572
 6394TIP3    H240674   4.645   6.276  16.291  1.6351  3.4994  1.1445
 6395TIP3   OH240675   4.115   4.244   3.749  0.3279  0.5147 -1.1005
 6395TIP3    H140676   4.061   4.184   3.698 -1.9486  2.3220 -0.8912
 6395TIP3    H240677   4.154   4.302   3.685  0.0076  0.7890 -1.0480
 6396TIP3   OH240678   4.996   6.223  16.917 -0.0187  0.1637  0.5906
 6396TIP3    H140679   5.073   6.168  16.934 -0.3254  0.1302  1.9202
 6396TIP3    H240680   5.033   6.304  16.881  0.4905 -0.5859 -0.5840
 6397TIP3   OH240681   2.985   3.121   0.430 -0.2457 -0.3098 -0.0744
 6397TIP3    H140682   2.890   3.110   0.437 -0.1029 -1.7391 -0.1202
 6397TIP3    H240683   3.021   3.056   0.492  0.7231 -0.8208 -1.1566
 6398TIP3   OH240684   1.095   2.692  12.178  0.8710  0.1189 -0.5309
 6398TIP3    H140685   1.031   2.685  12.248  1.2021  0.4643 -0.1937
 6398TIP3    H240686   1.135   2.605  12.174 -1.3190 -0.8590 -2.3932
 6399TIP3   OH240687   4.522   6.478  11.831 -0.0001  0.3376  0.6542
 6399TIP3    H140688   4.585   6.425  11.782  1.0809  0.1235  2.2584
 6399TIP3    H240689   4.537   6.568  11.801 -0.8692 -0.0607 -1.0238
 6400TIP3   OH240690   1.475   3.313  13.317  0.1914  0.2842 -0.4744
 6400TIP3    H140691   1.482   3.219  13.337  0.2020 -0.0916 -2.1934
 6400TIP3    H240692   1.548   3.353  13.364 -1.1834 -0.2263  2.2066
 6401TIP3   OH240693   0.319   6.444  16.270  0.6659  0.0044 -0.4635
 6401TIP3    H140694   0.306   6.371  16.209  2.7494  1.0307 -2.2075
 6401TIP3    H240695   0.231   6.474  16.290 -0.1106 -0.8511 -2.3888
 6402TIP3   OH240696   1.361   0.900  15.745  0.0827  0.2268 -0.4439
 6402TIP3    H140697   1.367   0.893  15.840 -1.8278 -0.6088 -0.3758
 6402TIP3    H240698   1.383   0.991  15.726 -0.7494  0.7141  0.9032
 6403TIP3   OH240699   5.289   2.075  11.616 -0.7193  0.1147  0.0512
 6403TIP3    H140700   5.367   2.027  11.643  0.0503  0.5934 -1.2940
 6403TIP3    H240701   5.217   2.032  11.664  0.4819  0.4080  2.1863
 6404TIP3   OH240702   4.812   0.485   3.263  0.1887 -0.7269 -0.0979
 6404TIP3    H140703   4.731   0.464   3.215  0.3754 -2.4501  0.2875
 6404TIP3    H240704   4.830   0.576   3.242 -0.1473 -1.2259 -2.7166
 6405TIP3   OH240705   3.126   0.387   2.773 -0.3498 -0.1903  0.8474
 6405TIP3    H140706   3.152   0.297   2.793 -0.2042 -0.5103 -0.6877
 6405TIP3    H240707   3.198   0.421   2.720 -1.5648 -0.0150 -0.7171
 6406TIP3   OH240708   3.925   1.244   4.721  0.2291  0.4505 -0.4269
 6406TIP3    H140709   3.837   1.258   4.686  0.1448 -0.3461 -0.5491
 6406TIP3    H240710   3.946   1.153   4.698  0.7825  0.3998  0.2546
 6407TIP3   OH240711   1.938   0.310  14.350 -0.4442  0.0043 -0.2833
 6407TIP3    H140712   1.888   0.382  14.386  2.1957  0.7242  2.1262
 6407TIP3    H240713   1.996   0.350  14.285 -0.4376 -0.2728 -0.4536
 6408TIP3   OH240714   4.833   4.749   1.279  0.3037  0.4477  0.1879
 6408TIP3    H140715   4.782   4.711   1.208  2.2431  0.4294 -1.2351
 6408TIP3    H240716   4.777   4.741   1.356 -1.0370 -1.3694 -0.9352
 6409TIP3   OH240717   4.777   1.689  15.734 -0.6808  0.3301 -0.0712
 6409TIP3    H140718   4.738   1.631  15.799 -2.0321  1.6732  0.3532
 6409TIP3    H240719   4.839   1.742  15.783  1.8787 -1.9238 -0.7757
 6410TIP3   OH240720   0.477   4.516   4.421  0.8061 -0.3207 -0.0238
 6410TIP3    H140721   0.509   4.446   4.364  0.4596 -0.0632 -0.5292
 6410TIP3    H240722   0.556   4.553   4.461  1.1240  0.1846 -1.1168
 6411TIP3   OH240723   4.663   3.512  12.945  0.4441 -0.0351 -0.0994
 6411TIP3    H140724   4.757   3.521  12.928 -0.1527  2.3938 -2.4224
 6411TIP3    H240725   4.630   3.602  12.945 -1.7832 -0.8090  1.3829
 6412TIP3   OH240726   0.416   2.402  10.856 -0.1104  0.5917 -0.0998
 6412TIP3    H140727   0.353   2.391  10.784  0.0351  1.1988 -0.3222
 6412TIP3    H240728   0.480   2.465  10.822  0.2581  0.4622  0.3621
 6413TIP3   OH240729   1.098   2.413   0.983  0.2699  0.4316  0.1618
 6413TIP3    H140730   1.028   2.438   1.042 -0.4000 -1.4433  0.2086
 6413TIP3    H240731   1.055   2.400   0.898  0.6209 -0.3142  0.0922
 6414TIP3   OH240732   1.587   6.740   0.006  0.0155  0.0249 -0.4331
 6414TIP3    H140733   1.641   6.785   0.070 -0.4033 -0.8420  0.5394
 6414TIP3    H240734   1.499   6.738   0.044 -0.7383  1.4224 -2.0027
 6415TIP3   OH240735   4.227   1.136  15.734 -0.0001 -0.0059 -0.1298
 6415TIP3    H140736   4.228   1.083  15.655 -2.3773  0.4889 -0.5294
 6415TIP3    H240737   4.157   1.200  15.719 -1.4552 -0.8119  2.9445
 6416TIP3   OH240738   0.857   0.371  11.550 -0.2352  0.6234  0.8411
 6416TIP3    H140739   0.766   0.349  11.532 -0.1850  0.1479  1.1574
 6416TIP3    H240740   0.853   0.437  11.619 -0.3569  0.9190  0.5476
 6417TIP3   OH240741   0.040   6.010  13.469 -0.1672  0.4082 -0.0599
 6417TIP3    H140742   0.023   5.918  13.492 -1.4333  1.0028  1.4938
 6417TIP3    H240743   0.120   6.032  13.517  1.2638 -0.4306 -1.9997
 6418TIP3   OH240744   0.368   1.774  11.943 -0.3911 -0.0186  0.1364
 6418TIP3    H140745   0.382   1.716  12.018 -1.2422 -0.9638 -0.4193
 6418TIP3    H240746   0.276   1.760  11.919 -0.7843  2.0101  0.3610
 6419TIP3   OH240747   2.418   3.154  15.017 -0.5482  0.0786 -0.0137
 6419TIP3    H140748   2.414   3.083  15.081 -1.2316  0.5355  0.4665
 6419TIP3    H240749   2.509   3.186  15.023 -1.0965  1.3713  2.1523
 6420TIP3   OH240750   5.516   5.500   6.295 -0.2304 -0.3758  0.6704
 6420TIP3    H140751   5.596   5.525   6.341  0.3609 -0.9861 -0.0134
 6420TIP3    H240752   5.448   5.501   6.363  0.4313 -0.2449  1.3354
 6421TIP3   OH240753   1.498   0.934   2.136 -0.5183 -0.6808 -0.3048
 6421TIP3    H140754   1.446   1.010   2.108 -0.7698 -1.1813 -1.2118
 6421TIP3    H240755   1.560   0.920   2.064 -0.3079 -1.1802 -0.0235
 6422TIP3   OH240756   2.959   6.008   6.328 -0.1129 -0.1975 -0.8819
 6422TIP3    H140757   3.037   5.955   6.312  0.3398  0.2172 -0.1267
 6422TIP3    H240758   2.946   6.057   6.247 -0.1385 -0.9691 -1.3404
 6423TIP3   OH240759   0.289   1.262  11.548  0.0237 -0.1245  0.1282
 6423TIP3    H140760   0.234   1.292  11.621  1.5134 -0.5171  1.4195
 6423TIP3    H240761   0.331   1.342  11.516 -0.5840  0.0392 -0.2733
 6424TIP3   OH240762   5.044   4.613   4.753  0.8541  0.5045  0.7241
 6424TIP3    H140763   5.047   4.546   4.685 -1.5489  0.2908  0.7857
 6424TIP3    H240764   5.028   4.695   4.706 -0.1458  0.4540  0.9688
 6425TIP3   OH240765   6.453   4.816   5.132  0.0683 -0.3813  0.0123
 6425TIP3    H140766   6.409   4.734   5.151  1.1399 -1.1863 -0.9302
 6425TIP3    H240767   6.434   4.872   5.208 -0.5027 -1.5502  0.7366
 6426TIP3   OH240768   6.160   3.840   4.950  0.3182  0.0838  0.1147
 6426TIP3    H140769   6.212   3.918   4.932  2.1927 -1.3356 -0.8145
 6426TIP3    H240770   6.188   3.813   5.037  0.1936  0.0497  0.1440
 6427TIP3   OH240771   3.312   0.201  15.782 -0.5039  0.0016 -0.4055
 6427TIP3    H140772   3.256   0.125  15.770  0.1334 -0.4093 -0.8350
 6427TIP3    H240773   3.280   0.243  15.862 -0.2446 -1.2635  0.3669
 6428TIP3   OH240774   4.734   3.075  15.240  0.4537 -0.0475  0.3406
 6428TIP3    H140775   4.760   2.989  15.207  0.1145  0.6980 -1.9600
 6428TIP3    H240776   4.817   3.119  15.261  0.8195  0.1693 -1.4362
 6429TIP3   OH240777   4.887   3.885   0.632  0.4326  0.3281 -0.3247
 6429TIP3    H140778   4.935   3.814   0.674  1.7487  1.4418  0.0840
 6429TIP3    H240779   4.883   3.860   0.540 -1.9037 -1.8097  0.2867
 6430TIP3   OH240780   5.094   3.896   4.555  0.6149 -0.3482 -0.4562
 6430TIP3    H140781   5.091   3.827   4.621  1.8469 -0.3937 -0.4453
 6430TIP3    H240782   5.172   3.877   4.504  0.8005  0.8838 -0.6339
 6431TIP3   OH240783   6.109   6.223  13.433  0.7276  0.2666  0.5673
 6431TIP3    H140784   6.053   6.158  13.474  0.4966 -1.0617 -1.8102
 6431TIP3    H240785   6.186   6.228  13.490  0.4639 -1.6284  1.1071
 6432TIP3   OH240786   3.362   6.307   2.198  0.1856  1.0760 -0.2722
 6432TIP3    H140787   3.404   6.312   2.284  0.4928  1.1234 -0.4246
 6432TIP3    H240788   3.338   6.397   2.178  0.3612  1.1039 -0.3585
 6433TIP3   OH240789   2.096   1.326  14.044  0.2592 -0.3519 -0.1487
 6433TIP3    H140790   2.007   1.306  14.072  0.4323 -1.5653 -0.4108
 6433TIP3    H240791   2.102   1.292  13.955  0.9197 -0.1208 -0.1968
 6434TIP3   OH240792   0.642   0.644  10.973  0.5314  0.4805  0.4852
 6434TIP3    H140793   0.663   0.736  10.957  1.3167  0.0656 -1.0382
 6434TIP3    H240794   0.727   0.602  10.981  0.1593  0.0555  2.2497
 6435TIP3   OH240795   0.991   6.459  16.010  0.1251 -0.0142  0.0375
 6435TIP3    H140796   0.956   6.528  15.954 -0.1080  0.6438  1.0026
 6435TIP3    H240797   0.987   6.380  15.955  1.3890  0.9221 -1.4410
 6436TIP3   OH240798   1.819   5.399   5.330 -0.3686 -0.2493 -0.0149
 6436TIP3    H140799   1.754   5.379   5.262  1.4091 -0.3259 -1.7477
 6436TIP3    H240800   1.839   5.492   5.316  0.2822 -0.3625  0.1750
 6437TIP3   OH240801   1.764   5.415   3.222 -0.2753 -0.1623 -0.2680
 6437TIP3    H140802   1.734   5.334   3.264 -1.2213  1.3604  2.1031
 6437TIP3    H240803   1.687   5.448   3.176 -0.9121  1.2288  1.7623
 6438TIP3   OH240804   1.712   4.333   5.721 -0.0153  0.8049 -0.0879
 6438TIP3    H140805   1.772   4.407   5.725  0.1111  0.7186 -0.3250
 6438TIP3    H240806   1.743   4.273   5.789  1.0865  0.0924 -1.1679
 6439TIP3   OH240807   4.052   0.290   0.181 -0.1622 -0.1121  0.0622
 6439TIP3    H140808   4.052   0.385   0.175 -0.3985 -0.1629 -0.8785
 6439TIP3    H240809   4.144   0.265   0.170 -0.2270 -0.0429 -0.6428
 6440TIP3   OH240810   3.701   2.548   0.125  0.1261  0.1958  1.1270
 6440TIP3    H140811   3.725   2.528   0.034  2.9080  0.9922  1.6619
 6440TIP3    H240812   3.654   2.470   0.154 -1.1891  0.0981 -1.1199
 6441TIP3   OH240813   0.514   0.652  15.451 -0.3189 -0.4623  0.1330
 6441TIP3    H140814   0.500   0.569  15.404 -0.4432 -0.3222 -0.0806
 6441TIP3    H240815   0.430   0.670  15.493 -1.2223  1.0462 -2.2223
 6442TIP3   OH240816   3.235   0.091  11.663 -0.3425 -0.1501 -0.4087
 6442TIP3    H140817   3.148   0.103  11.701  0.1648 -1.4072  1.2139
 6442TIP3    H240818   3.226   0.123  11.573 -2.4031  0.0024 -0.1864
 6443TIP3   OH240819   5.149   2.190  15.533  0.0788 -0.1334 -0.2128
 6443TIP3    H140820   5.201   2.259  15.573 -0.5407  0.0118  0.3612
 6443TIP3    H240821   5.198   2.164  15.455  0.5138  0.6628 -0.2019
 6444TIP3   OH240822   0.609   6.310  16.062  0.0170 -0.7642 -0.0008
 6444TIP3    H140823   0.532   6.270  16.102 -1.0298  0.6229 -0.5867
 6444TIP3    H240824   0.650   6.360  16.133 -0.3890 -0.4115 -0.0141
 6445TIP3   OH240825   5.988   6.330  10.910  0.1135  0.0534 -0.1614
 6445TIP3    H140826   5.939   6.248  10.900  2.1376 -0.9672 -2.0154
 6445TIP3    H240827   5.920   6.396  10.924 -1.5012 -2.0532  2.4823
 6446TIP3   OH240828   2.025   0.676   5.917 -0.0157  0.4875  0.6527
 6446TIP3    H140829   2.006   0.731   5.994 -1.1639  0.6411  0.2610
 6446TIP3    H240830   2.016   0.586   5.949 -1.5721  0.5564  0.4389
 6447TIP3   OH240831   6.665   1.615  11.852 -0.6767 -0.0266  0.0946
 6447TIP3    H140832   6.575   1.603  11.824 -1.0560  3.8711 -0.5384
 6447TIP3    H240833   6.661   1.679  11.923  1.4581 -0.9644  1.1397
 6448TIP3   OH240834   4.902   6.520   2.746  0.1494 -0.0514  0.9491
 6448TIP3    H140835   4.985   6.473   2.739  0.7211  1.3187 -2.3302
 6448TIP3    H240836   4.923   6.610   2.722 -2.5619 -0.0238 -1.6145
 6449TIP3   OH240837   4.678   4.507  14.299  0.7912 -0.0816 -0.3101
 6449TIP3    H140838   4.612   4.508  14.369  0.0217  0.9935 -1.0251
 6449TIP3    H240839   4.726   4.589  14.311  2.5428 -1.2254  0.6878
 6450TIP3   OH240840   2.126   4.342  14.763 -0.1713 -0.1785 -0.2630
 6450TIP3    H140841   2.128   4.391  14.845  1.6329  0.3606 -0.6070
 6450TIP3    H240842   2.217   4.317  14.747 -0.4937 -0.2859 -2.0884
 6451TIP3   OH240843   1.243   3.753  12.258  0.1602 -0.0351 -0.0713
 6451TIP3    H140844   1.309   3.727  12.194 -0.7289 -3.3031  0.2210
 6451TIP3    H240845   1.292   3.762  12.340  0.6955  0.2998 -0.4295
 6452TIP3   OH240846   1.492   1.336  16.996  0.3127  0.3145 -0.3358
 6452TIP3    H140847   1.570   1.315  16.945 -0.6190 -1.9748 -0.8903
 6452TIP3    H240848   1.523   1.346  17.086  1.3067 -0.1925 -0.6187
 6453TIP3   OH240849   0.881   4.405  11.416 -1.0672  0.2711 -0.0776
 6453TIP3    H140850   0.862   4.369  11.329  0.4001 -0.0808 -0.2611
 6453TIP3    H240851   0.874   4.499  11.405 -0.3598  0.2533 -0.7112
 6454TIP3   OH240852   5.192   5.267  17.151  0.3145  0.2786 -0.4106
 6454TIP3    H140853   5.254   5.301  17.216 -1.6202  0.7245  1.2199
 6454TIP3    H240854   5.212   5.318  17.072  1.9688  0.4773  0.1030
 6455TIP3   OH240855   3.404   0.098  11.916 -0.1607 -0.0391 -0.1245
 6455TIP3    H140856   3.340   0.130  11.853 -1.6682 -3.1054 -0.2735
 6455TIP3    H240857   3.368   0.122  12.002 -0.9243 -0.6456 -0.2631
 6456TIP3   OH240858   0.386   6.464   0.127 -0.3197  0.4353  0.0201
 6456TIP3    H140859   0.359   6.375   0.147  1.6644  0.0285  1.0401
 6456TIP3    H240860   0.329   6.491   0.055 -0.9680 -1.6301 -0.2748
 6457TIP3   OH240861   4.831   2.339  13.228  0.1046 -0.4838  0.3810
 6457TIP3    H140862   4.906   2.388  13.260 -0.9085  0.4704  1.3647
 6457TIP3    H240863   4.758   2.368  13.284 -1.3101 -0.2475 -1.5389
 6458TIP3   OH240864   2.891   3.656  15.976  0.1678  0.6990  0.1015
 6458TIP3    H140865   2.837   3.665  16.055 -1.4884 -0.1426 -0.9207
 6458TIP3    H240866   2.869   3.570  15.941  2.2377  0.3116 -0.3151
 6459TIP3   OH240867   0.096   5.930  16.743  0.3716 -0.2860 -0.1804
 6459TIP3    H140868   0.008   5.967  16.735 -0.5433 -2.1109  1.1883
 6459TIP3    H240869   0.104   5.908  16.836  1.9549 -0.9165 -0.4587
 6460TIP3   OH240870   4.056   0.264   2.463 -0.4441  0.0479 -0.2191
 6460TIP3    H140871   4.065   0.207   2.387  1.3575  0.1909 -0.1378
 6460TIP3    H240872   4.070   0.206   2.538  0.0495  0.3246 -0.0919
 6461TIP3   OH240873   0.015   2.020  15.979  0.2771  0.4381 -0.1148
 6461TIP3    H140874  -0.027   2.088  16.033 -0.9463  0.8431 -1.5319
 6461TIP3    H240875  -0.048   2.003  15.909 -0.1979 -3.4260  1.1447
 6462TIP3   OH240876   3.014   3.915   1.391 -1.0848 -0.0404  0.1746
 6462TIP3    H140877   3.021   3.840   1.449 -1.5866 -1.0806 -1.1023
 6462TIP3    H240878   2.925   3.911   1.356 -1.1950  1.2814  0.2796
 6463TIP3   OH240879   4.420   2.351  14.835  0.4240  0.3216 -0.1679
 6463TIP3    H140880   4.494   2.407  14.813 -0.0432  2.0524  2.3114
 6463TIP3    H240881   4.458   2.280  14.887  0.7921 -0.7893 -1.9160
 6464TIP3   OH240882   0.685   1.725  16.246 -0.3670 -0.2328 -0.1392
 6464TIP3    H140883   0.694   1.635  16.215  1.4089 -0.0168 -0.2715
 6464TIP3    H240884   0.714   1.779  16.173 -3.9385  0.6010 -1.0577
 6465TIP3   OH240885   3.207   2.392  10.889  0.8324 -0.2944 -0.3201
 6465TIP3    H140886   3.141   2.449  10.928  0.3139  0.2860 -2.0081
 6465TIP3    H240887   3.159   2.339  10.826  1.9062 -0.2012 -1.2309
 6466TIP3   OH240888   5.136   4.371   4.619  0.0610  0.4049 -0.1496
 6466TIP3    H140889   5.208   4.396   4.677 -0.3385  2.0707 -0.3729
 6466TIP3    H240890   5.174   4.372   4.531  0.4958 -1.4866 -0.0048
 6467TIP3   OH240891   1.327   2.229   0.759 -0.0755  0.1387  0.2326
 6467TIP3    H140892   1.316   2.305   0.701 -0.6227 -0.3321 -0.2776
 6467TIP3    H240893   1.239   2.207   0.787  0.1732  0.2649  1.1342
 6468TIP3   OH240894   1.057   2.284   4.268 -0.2783  0.5206  0.4632
 6468TIP3    H140895   1.050   2.207   4.324  1.1974 -0.1330 -0.2282
 6468TIP3    H240896   0.967   2.302   4.241 -0.7295 -0.4874  1.2475
 6469TIP3   OH240897   5.124   4.192   2.835  0.1646 -0.0005  0.4804
 6469TIP3    H140898   5.069   4.156   2.905 -0.0178 -0.2351  0.2159
 6469TIP3    H240899   5.135   4.120   2.774  1.6318 -0.2669  1.0434
 6470TIP3   OH240900   5.285   2.060   4.283  0.4353 -0.2554 -0.0688
 6470TIP3    H140901   5.217   2.058   4.216  1.4608  2.3687 -1.2383
 6470TIP3    H240902   5.310   1.968   4.294 -2.0753 -1.0850 -0.8225
 6471TIP3   OH240903   3.677   5.780  16.724 -0.0902  0.1201  0.0233
 6471TIP3    H140904   3.602   5.729  16.695  0.4740 -0.9533  0.4209
 6471TIP3    H240905   3.753   5.725  16.704  0.2956 -1.0702  4.2245
 6472TIP3   OH240906   4.938   5.185  16.815  0.1010  0.6898  0.4129
 6472TIP3    H140907   4.905   5.097  16.797 -0.3831  0.9043  0.2601
 6472TIP3    H240908   4.887   5.242  16.758  0.2732  1.0952  0.6637
 6473TIP3   OH240909   3.619   6.646  13.247 -0.3628 -0.0009 -0.0205
 6473TIP3    H140910   3.576   6.682  13.325  0.6636  0.8556  0.1685
 6473TIP3    H240911   3.664   6.722  13.208 -0.1019 -0.6168 -0.9230
 6474TIP3   OH240912   0.545   1.577  13.074  0.3481 -0.6693  0.3727
 6474TIP3    H140913   0.529   1.670  13.057  0.6450 -0.7211 -0.2002
 6474TIP3    H240914   0.583   1.575  13.162  1.2145 -0.1567  0.0226
 6475TIP3   OH240915   3.694   4.924   1.079 -0.1952  0.2991  0.5924
 6475TIP3    H140916   3.669   4.866   1.150 -2.6234  1.0723  0.4066
 6475TIP3    H240917   3.672   4.877   0.999  0.8197  0.1887  0.3618
 6476TIP3   OH240918   3.502   1.014   0.686 -0.0109  0.3992 -0.0614
 6476TIP3    H140919   3.411   0.984   0.688  0.2268 -0.3032  2.7505
 6476TIP3    H240920   3.497   1.106   0.715  0.1877  0.2870  0.3304
 6477TIP3   OH240921   0.941   1.941   2.813  0.4625 -0.2628 -0.4726
 6477TIP3    H140922   0.908   1.883   2.881  1.3609 -0.6622 -0.3573
 6477TIP3    H240923   0.868   1.953   2.753 -0.2303 -0.1812  0.3801
 6478TIP3   OH240924   0.446   3.374   1.432 -0.2405 -0.1246 -0.0727
 6478TIP3    H140925   0.504   3.404   1.362 -0.5873 -1.0844 -0.7803
 6478TIP3    H240926   0.474   3.285   1.450 -0.7072 -0.1697  0.4212
 6479TIP3   OH240927   6.575   0.369   1.311  0.0731 -0.2595 -0.1109
 6479TIP3    H140928   6.589   0.453   1.355 -0.4076 -0.6298  0.7440
 6479TIP3    H240929   6.660   0.349   1.271  0.4392  0.1859  0.4381
 6480TIP3   OH240930   2.261   4.242  12.797 -0.0777 -0.3648 -0.3274
 6480TIP3    H140931   2.240   4.150  12.777 -1.7574 -0.1886  0.4813
 6480TIP3    H240932   2.290   4.278  12.713 -1.0517 -1.2127 -1.0538
 6481TIP3   OH240933   3.714   3.849  16.506 -0.1703  0.5660 -0.6065
 6481TIP3    H140934   3.701   3.939  16.476 -0.9242  1.2306  1.6093
 6481TIP3    H240935   3.627   3.810  16.502 -0.4597  0.9564  1.5850
 6482TIP3   OH240936   2.559   1.310   2.833 -0.3184 -0.1095 -0.3500
 6482TIP3    H140937   2.617   1.384   2.814 -1.8039  0.6251 -2.1555
 6482TIP3    H240938   2.601   1.265   2.907  1.8575  1.1300 -0.7934
 6483TIP3   OH240939   2.907   3.605   2.642 -0.5606 -0.2191 -0.2197
 6483TIP3    H140940   2.914   3.549   2.565 -0.5634  1.5263 -1.4996
 6483TIP3    H240941   2.813   3.615   2.656 -0.5677  0.5608 -0.8028
 6484TIP3   OH240942   0.177   4.107  11.289 -0.1594 -0.3178 -0.1386
 6484TIP3    H140943   0.219   4.192  11.279 -3.3032  1.3802  0.3107
 6484TIP3    H240944   0.093   4.116  11.243 -1.3872 -2.5590  1.5424
 6485TIP3   OH240945   2.699   0.321   2.872 -0.1215 -0.0707  0.0229
 6485TIP3    H140946   2.722   0.280   2.955 -1.3041 -0.9832 -0.0940
 6485TIP3    H240947   2.605   0.339   2.879  0.2850  2.3222 -0.0569
 6486TIP3   OH240948   1.907   5.732  17.189  0.1659 -0.2924 -0.0420
 6486TIP3    H140949   1.975   5.772  17.244  0.5454  0.2300 -0.8715
 6486TIP3    H240950   1.954   5.701  17.112 -0.5138 -0.0390 -0.5670
 6487TIP3   OH240951   3.814   3.714   5.677  0.1813 -0.1471 -0.0776
 6487TIP3    H140952   3.868   3.740   5.751 -0.0187 -1.5665  0.5932
 6487TIP3    H240953   3.865   3.647   5.632 -1.1414 -1.8321  0.8219
 6488TIP3   OH240954   6.138   4.584  15.180  0.6001 -0.2123 -0.5016
 6488TIP3    H140955   6.158   4.510  15.237  1.4454  1.4268  1.3978
 6488TIP3    H240956   6.167   4.661  15.230 -3.1740  1.6679 -1.0295
 6489TIP3   OH240957   5.283   5.026   2.510  0.2022 -0.0889  0.3044
 6489TIP3    H140958   5.328   5.047   2.428  2.4479  0.8050  1.7185
 6489TIP3    H240959   5.275   4.930   2.509  1.8639 -0.2346 -0.1320
 6490TIP3   OH240960   0.887   3.639   1.981  0.0608  0.3999  0.0058
 6490TIP3    H140961   0.967   3.683   1.954 -0.3764  0.7557 -0.7254
 6490TIP3    H240962   0.855   3.691   2.055  1.8090 -1.1738  1.9369
 6491TIP3   OH240963   0.822   2.484   5.257  0.8083 -0.1304 -0.3203
 6491TIP3    H140964   0.727   2.479   5.245  0.5622  0.6697  1.2760
 6491TIP3    H240965   0.835   2.480   5.351  2.3145  0.5787 -0.4831
 6492TIP3   OH240966   5.403   1.120  15.774 -0.7202  0.5874  0.4096
 6492TIP3    H140967   5.496   1.137  15.788 -0.5620 -0.5286  0.8003
 6492TIP3    H240968   5.360   1.202  15.798  0.0046  0.4617  2.2033
 6493TIP3   OH240969   4.273   1.135  13.158  0.4491  0.3871 -0.2260
 6493TIP3    H140970   4.269   1.080  13.080 -2.1898 -1.3349  1.0391
 6493TIP3    H240971   4.228   1.215  13.134 -1.6875 -0.7328 -0.0579
 6494TIP3   OH240972   5.516   1.411  15.842 -0.1290 -0.5977 -0.2779
 6494TIP3    H140973   5.440   1.465  15.867  0.7663  0.6508 -0.1924
 6494TIP3    H240974   5.554   1.384  15.926  0.5354  0.2569 -0.2892
 6495TIP3   OH240975   1.512   1.633  16.700 -0.2693 -0.3113  0.3836
 6495TIP3    H140976   1.441   1.690  16.673  1.4406  0.8940 -1.7646
 6495TIP3    H240977   1.471   1.548  16.714 -1.8386 -0.2109 -3.0609
 6496TIP3   OH240978   1.221   0.314  16.883  0.4986  0.2696 -0.2757
 6496TIP3    H140979   1.294   0.255  16.865  0.3252  0.8657 -3.2497
 6496TIP3    H240980   1.244   0.394  16.835 -1.4069  0.9638 -0.0407
 6497TIP3   OH240981   1.264   6.328   1.749 -0.3456 -0.4255  0.1076
 6497TIP3    H140982   1.255   6.277   1.829  0.5384  0.1030  0.5497
 6497TIP3    H240983   1.343   6.380   1.762 -1.3061  1.1895 -0.2612
 6498TIP3   OH240984   2.375   3.363   4.987 -0.0427  0.4308  0.0478
 6498TIP3    H140985   2.389   3.455   5.009 -0.3277  0.1772  1.3409
 6498TIP3    H240986   2.282   3.357   4.967 -0.1732  0.2800  0.6961
 6499TIP3   OH240987   6.378   3.642   0.806 -0.0356 -0.4661 -0.0055
 6499TIP3    H140988   6.444   3.701   0.843 -0.5051 -0.5183  0.9134
 6499TIP3    H240989   6.362   3.577   0.874 -1.1598 -0.3573 -0.1578
 6500TIP3   OH240990   4.145   4.301   3.267 -0.6296  0.6083 -0.3383
 6500TIP3    H140991   4.174   4.255   3.346  2.0979 -0.1455 -1.7180
 6500TIP3    H240992   4.135   4.392   3.294  0.9285  0.4747  0.7163
 6501TIP3   OH240993   5.707   3.219  11.022  0.0152 -0.1881  0.3329
 6501TIP3    H140994   5.703   3.284  11.092 -1.5529 -1.8429  1.8279
 6501TIP3    H240995   5.646   3.251  10.956 -1.5949 -0.6974  1.5624
 6502TIP3   OH240996   6.469   6.515   3.300  0.0634  0.0265  0.0459
 6502TIP3    H140997   6.387   6.502   3.253 -0.1493  0.6133  0.2517
 6502TIP3    H240998   6.537   6.508   3.232 -0.2132  0.4026 -0.2742
 6503TIP3   OH240999   2.424   3.463   3.359 -0.0245  0.2429 -0.1792
 6503TIP3    H141000   2.349   3.474   3.301  0.0315 -1.3974 -0.5926
 6503TIP3    H241001   2.492   3.519   3.322 -0.0818 -0.5752 -1.5423
 6504TIP3   OH241002   5.498   2.076  12.007 -0.0461 -0.2994  0.4987
 6504TIP3    H141003   5.462   2.053  12.093 -0.1386 -1.2308  0.2097
 6504TIP3    H241004   5.447   2.153  11.980 -0.3284 -0.2830  1.0626
 6505TIP3   OH241005   4.586   6.616  16.816 -0.0788 -0.6946 -0.3164
 6505TIP3    H141006   4.542   6.643  16.896  0.0170  0.6922 -0.7195
 6505TIP3    H241007   4.615   6.526  16.833  0.5354 -0.1721  1.4432
 6506TIP3   OH241008   2.438   5.296   6.420 -0.0037  0.0954  0.1019
 6506TIP3    H141009   2.473   5.342   6.345  1.1058 -1.7302 -0.5395
 6506TIP3    H241010   2.373   5.235   6.383  1.3887 -1.6432  0.4445
 6507TIP3   OH241011   5.202   3.540   5.104  0.4070  0.3703 -0.5494
 6507TIP3    H141012   5.119   3.534   5.058  0.3428  1.4745 -0.6107
 6507TIP3    H241013   5.234   3.450   5.111 -1.8565 -0.3197  1.4449
 6508TIP3   OH241014   3.739   3.044  10.790  0.0468  0.2115  0.7002
 6508TIP3    H141015   3.653   3.086  10.797  0.2311  0.4416  1.5800
 6508TIP3    H241016   3.722   2.952  10.809  0.1745  0.4469  1.9550
 6509TIP3   OH241017   6.647   0.334   6.263 -0.5804 -0.1396  0.1436
 6509TIP3    H141018   6.554   0.354   6.272 -0.4469  0.1564  0.8753
 6509TIP3    H241019   6.689   0.381   6.334  0.1876  0.0840 -0.4469
 6510TIP3   OH241020   5.292   5.914   1.039  0.1173 -0.3127  0.4823
 6510TIP3    H141021   5.328   5.996   1.073 -1.7153  0.0511  1.5709
 6510TIP3    H241022   5.197   5.926   1.040 -0.1214 -1.8099 -0.9844
 6511TIP3   OH241023   0.912   5.106   4.350 -0.2677 -0.3049 -0.0067
 6511TIP3    H141024   0.876   5.028   4.308 -1.2536 -0.3128  0.8454
 6511TIP3    H241025   0.841   5.170   4.345 -0.1178 -0.0597  0.9574
 6512TIP3   OH241026   2.158   2.888   2.153  0.9865 -0.1975  0.3952
 6512TIP3    H141027   2.136   2.967   2.203  0.9487 -0.2082  0.3955
 6512TIP3    H241028   2.074   2.842   2.142  0.6641  0.7762 -1.3619
 6513TIP3   OH241029   0.243   4.580  14.511 -0.0725 -0.4815 -0.1012
 6513TIP3    H141030   0.320   4.628  14.543 -0.1087 -0.3933 -0.1455
 6513TIP3    H241031   0.188   4.647  14.472 -0.8790 -0.3192  1.2736
 6514TIP3   OH241032   3.047   0.925  14.105  0.1746  0.4879  0.7026
 6514TIP3    H141033   3.023   1.003  14.155 -0.7123  0.5044  0.2540
 6514TIP3    H241034   3.007   0.852  14.152  1.2103  0.2594  1.2606
 6515TIP3   OH241035   5.833   5.955  15.687 -0.0575 -0.1745 -0.1443
 6515TIP3    H141036   5.923   5.935  15.662 -0.2431 -0.9438 -0.2230
 6515TIP3    H241037   5.789   5.870  15.686 -0.2410 -0.1243  2.1042
 6516TIP3   OH241038   1.699   0.536  12.156  0.1168  0.0042  0.3058
 6516TIP3    H141039   1.671   0.612  12.206 -1.0313 -1.0531  1.3041
 6516TIP3    H241040   1.793   0.548  12.143  0.2194  0.8219  1.7756
 6517TIP3   OH241041   2.075   5.250  13.025  0.5024 -0.2159 -0.4458
 6517TIP3    H141042   2.085   5.157  13.040  0.1053 -0.4041 -1.2849
 6517TIP3    H241043   2.131   5.269  12.949 -1.5242 -0.3178 -2.0028
 6518TIP3   OH241044   2.649   0.268  16.206 -0.1184  0.0053  0.5268
 6518TIP3    H141045   2.681   0.256  16.117  0.0439 -1.0334  0.7138
 6518TIP3    H241046   2.604   0.186  16.226  0.1597  0.0881  1.5293
 6519TIP3   OH241047   0.353   1.624  12.859  0.4780  0.6782 -0.8046
 6519TIP3    H141048   0.415   1.568  12.905 -0.7421 -1.1191 -1.3167
 6519TIP3    H241049   0.393   1.711  12.863  1.9512 -0.0318  0.8025
 6520TIP3   OH241050   4.628   1.254  12.682  0.0732 -0.7633  0.3997
 6520TIP3    H141051   4.586   1.337  12.665 -0.4028 -1.5856 -2.7816
 6520TIP3    H241052   4.575   1.189  12.636  1.6399 -2.5523  0.9967
 6521TIP3   OH241053   0.290   1.634   1.430 -0.2865 -0.9100  0.0283
 6521TIP3    H141054   0.376   1.676   1.422  0.7731 -2.6116  1.7932
 6521TIP3    H241055   0.294   1.589   1.515 -3.2961 -0.2346  0.5786
 6522TIP3   OH241056   2.406   3.896  15.366 -0.0893 -0.0692  0.3487
 6522TIP3    H141057   2.477   3.868  15.424 -0.2323 -1.8472 -0.2668
 6522TIP3    H241058   2.444   3.967  15.315 -0.0311  1.6480  2.7277
 6523TIP3   OH241059   6.680   3.540   2.186  0.3560  0.0323  0.0666
 6523TIP3    H141060   6.634   3.534   2.270 -0.8944  0.2183 -0.5926
 6523TIP3    H241061   6.645   3.467   2.135  0.8842  0.1064 -0.4036
 6524TIP3   OH241062   3.221   4.463   2.365 -0.4151  0.0849  0.5066
 6524TIP3    H141063   3.288   4.526   2.340  0.9375 -1.8657 -0.9523
 6524TIP3    H241064   3.146   4.484   2.309 -0.2529  0.8545  0.5722
 6525TIP3   OH241065   2.576   1.071  12.269  0.2732 -0.2028  0.1546
 6525TIP3    H141066   2.508   1.138  12.275 -0.0784 -0.5323 -0.1094
 6525TIP3    H241067   2.562   1.030  12.184  0.6494 -0.4398  0.2055
 6526TIP3   OH241068   1.028   2.657   4.315 -0.2177  0.0280 -0.6733
 6526TIP3    H141069   0.966   2.599   4.271  0.8454 -0.6290 -1.3519
 6526TIP3    H241070   0.981   2.739   4.325 -2.4487 -1.4858  2.0696
 6527TIP3   OH241071   3.676   5.885   5.966  0.5041 -0.0951 -0.2971
 6527TIP3    H141072   3.765   5.851   5.977  1.4492  1.9784 -1.0705
 6527TIP3    H241073   3.653   5.920   6.052  0.3733 -0.7493 -0.0616
 6528TIP3   OH241074   1.585   4.255   4.934  0.8474  0.0302  0.0943
 6528TIP3    H141075   1.587   4.162   4.909  0.6823  0.5180 -1.8053
 6528TIP3    H241076   1.652   4.296   4.880  0.4663  1.1306  0.4478
 6529TIP3   OH241077   6.323   1.775   3.692 -0.0787 -0.1108 -0.3864
 6529TIP3    H141078   6.331   1.720   3.614  0.7801 -1.0804  0.3772
 6529TIP3    H241079   6.291   1.859   3.659 -2.1767 -1.3004 -1.4734
 6530TIP3   OH241080   6.023   3.952   2.686 -0.2756 -0.2060  0.2730
 6530TIP3    H141081   6.044   3.930   2.777  2.6941  0.1261 -0.2787
 6530TIP3    H241082   5.996   4.044   2.690  0.3753 -0.0280  0.7622
 6531TIP3   OH241083   2.692   2.472   5.146 -0.7521 -0.3417  1.1243
 6531TIP3    H141084   2.604   2.437   5.133 -0.6602 -0.1446 -0.1648
 6531TIP3    H241085   2.700   2.541   5.080 -0.3285  0.9681  2.5378
 6532TIP3   OH241086   5.549   2.392  15.045 -0.9016  1.0745 -0.0054
 6532TIP3    H141087   5.551   2.305  15.003  0.7461 -0.3257  2.8227
 6532TIP3    H241088   5.464   2.396  15.087 -0.7253  0.5416  0.4097
 6533TIP3   OH241089   1.213   0.909   4.554  0.4554 -0.5334  0.1255
 6533TIP3    H141090   1.303   0.936   4.535  1.0066 -2.0372  0.5821
 6533TIP3    H241091   1.213   0.814   4.544 -1.6923 -0.3316 -2.3910
 6534TIP3   OH241092   5.047   5.439   3.978 -0.5715 -0.1032 -0.8932
 6534TIP3    H141093   5.066   5.351   4.011 -0.3479  0.8294  1.5830
 6534TIP3    H241094   5.133   5.480   3.968 -0.7631  0.9095  1.1781
 6535TIP3   OH241095   2.375   1.039   2.881 -0.2182  0.4760  0.2768
 6535TIP3    H141096   2.323   1.089   2.818  1.2265  1.6756  0.0078
 6535TIP3    H241097   2.375   1.092   2.960 -1.1303 -0.5248  0.9727
 6536TIP3   OH241098   1.711   3.686   1.481 -0.0002  0.4113 -0.1466
 6536TIP3    H141099   1.704   3.672   1.575 -1.3470 -0.3786 -0.3555
 6536TIP3    H241100   1.703   3.780   1.469 -1.0708  0.4010  0.4338
 6537TIP3   OH241101   5.363   3.238   2.193  0.4067  0.0318 -0.1279
 6537TIP3    H141102   5.368   3.322   2.148 -0.4073  1.3016  2.0942
 6537TIP3    H241103   5.270   3.220   2.201  0.5791 -1.7413 -1.7167
 6538TIP3   OH241104   3.715   0.885  11.629 -0.7882 -0.1681 -0.1993
 6538TIP3    H141105   3.736   0.826  11.558 -0.4153  0.1589 -0.3609
 6538TIP3    H241106   3.779   0.955  11.622 -0.2222 -0.5565  0.9648
 6539TIP3   OH241107   4.293   3.469   4.135 -0.7301 -0.0755  0.1229
 6539TIP3    H141108   4.383   3.445   4.157 -0.3724  1.8336  0.8374
 6539TIP3    H241109   4.255   3.389   4.098  0.6483 -1.4603  1.6493
 6540TIP3   OH241110   0.284   4.838  12.706  0.1119 -0.0243 -0.5651
 6540TIP3    H141111   0.221   4.909  12.718  0.9692  0.4027  1.5453
 6540TIP3    H241112   0.367   4.883  12.691  0.7012 -0.5761  1.0226
 6541TIP3   OH241113   0.223   3.611   3.908  0.3533  0.2731  0.8395
 6541TIP3    H141114   0.299   3.594   3.962 -0.2120  0.6202  1.7576
 6541TIP3    H241115   0.160   3.652   3.967 -1.3155 -1.8405  0.6029
 6542TIP3   OH241116   5.376   2.469   3.473 -0.4189  0.5589  0.2215
 6542TIP3    H141117   5.393   2.463   3.567 -0.2325  0.2849  0.1696
 6542TIP3    H241118   5.444   2.416   3.432 -1.6269 -0.8787  0.0252
 6543TIP3   OH241119   1.599   1.074  10.984  0.8123 -0.4602 -0.4340
 6543TIP3    H141120   1.520   1.020  10.987  1.1608 -0.9017  1.9615
 6543TIP3    H241121   1.668   1.015  10.955  0.3728 -0.1668 -2.1606
 6544TIP3   OH241122   1.211   1.103  16.183  0.3581 -0.0670 -0.3487
 6544TIP3    H141123   1.216   1.013  16.153 -0.7205 -0.2332 -0.0408
 6544TIP3    H241124   1.125   1.111  16.224  1.4863  0.3581  2.0249
 6545TIP3   OH241125   4.056   5.045   1.725 -0.2644 -0.1945 -0.2255
 6545TIP3    H141126   4.047   5.114   1.660 -1.7376  1.1540  1.3559
 6545TIP3    H241127   4.120   4.984   1.688  1.7143  2.4667 -1.2692
 6546TIP3   OH241128   3.272   3.416   1.622 -0.0472 -0.0814  0.1732
 6546TIP3    H141129   3.256   3.335   1.669 -0.0372  0.1108  0.5106
 6546TIP3    H241130   3.337   3.393   1.555 -2.1387 -1.0062 -1.6030
 6547TIP3   OH241131   0.870   2.653   5.530  0.4928  0.4083  0.1881
 6547TIP3    H141132   0.871   2.571   5.579  0.0314  0.4460  0.2570
 6547TIP3    H241133   0.778   2.668   5.508  0.7089  0.3293 -0.8012
 6548TIP3   OH241134   2.594   0.028  15.795 -0.0290 -0.0016 -0.2722
 6548TIP3    H141135   2.511   0.060  15.759 -1.4395 -1.9059  1.1830
 6548TIP3    H241136   2.658   0.042  15.725 -1.6920  0.9664 -1.6329
 6549TIP3   OH241137   2.556   2.094  11.593 -0.1393 -0.1577  0.4432
 6549TIP3    H141138   2.564   2.060  11.504  0.2763 -0.5217  0.6193
 6549TIP3    H241139   2.611   2.173  11.593  0.0835 -0.3111  0.4519
 6550TIP3   OH241140   6.640   2.300   4.624  0.1796  0.1453  0.2315
 6550TIP3    H141141   6.639   2.279   4.717 -1.6972  0.3431  0.2782
 6550TIP3    H241142   6.729   2.280   4.595  0.3620 -1.2910  1.7527
 6551TIP3   OH241143   4.312   3.529   5.165 -0.5435 -0.0364  0.5099
 6551TIP3    H141144   4.330   3.447   5.211 -1.2831 -0.1687  0.5670
 6551TIP3    H241145   4.287   3.590   5.233  0.7386  0.4574  0.5523
 6552TIP3   OH241146   2.633   4.388   0.397  0.1390 -0.1179 -0.1005
 6552TIP3    H141147   2.555   4.439   0.421 -0.2121 -0.8920  0.4466
 6552TIP3    H241148   2.706   4.437   0.433  0.0516  1.3961 -1.8909
 6553TIP3   OH241149   0.837   5.862   1.792  0.8250 -0.3436  0.3949
 6553TIP3    H141150   0.790   5.799   1.737 -0.1812  0.4274  0.3680
 6553TIP3    H241151   0.844   5.941   1.739 -0.0849  0.3811  1.3456
 6554TIP3   OH241152   0.660   4.293   5.129 -0.0961  0.1564  0.1242
 6554TIP3    H141153   0.599   4.286   5.055 -0.9437 -0.5901  0.8739
 6554TIP3    H241154   0.616   4.352   5.190  0.3056  0.2471  0.3237
 6555TIP3   OH241155   4.852   1.794   2.165 -0.0955  0.0467  0.1684
 6555TIP3    H141156   4.808   1.876   2.141 -1.0720 -0.3455  0.6000
 6555TIP3    H241157   4.916   1.820   2.232  0.4119  0.6328 -0.5318
 6556TIP3   OH241158   0.343   5.172  13.351  0.1755 -0.6919  0.6443
 6556TIP3    H141159   0.271   5.208  13.402  0.4459 -0.9198  1.1852
 6556TIP3    H241160   0.301   5.119  13.283 -0.1522 -1.3424  1.3517
 6557TIP3   OH241161   0.967   6.525   5.518 -0.9135 -0.1045 -0.5246
 6557TIP3    H141162   0.990   6.602   5.571 -0.4824  0.8444 -2.0409
 6557TIP3    H241163   0.873   6.514   5.531 -1.0297  0.8656 -0.5076
 6558TIP3   OH241164   1.708   2.726   0.336  0.1688 -0.1300  0.1085
 6558TIP3    H141165   1.749   2.649   0.298 -0.5021 -0.1241 -0.6488
 6558TIP3    H241166   1.765   2.752   0.408  2.2152  0.6629 -1.7499
 6559TIP3   OH241167   0.802   1.109   1.808  0.4736  0.2506  0.1957
 6559TIP3    H141168   0.884   1.151   1.784  0.7825  1.1689  2.6972
 6559TIP3    H241169   0.800   1.113   1.904 -2.3907  0.0807  0.2004
 6560TIP3   OH241170   0.777   6.596   0.664  0.0217 -0.0803 -0.0831
 6560TIP3    H141171   0.837   6.523   0.677 -0.9493 -1.0892 -1.1284
 6560TIP3    H241172   0.818   6.650   0.597  0.4601  0.0335  0.2719
 6561TIP3   OH241173   4.091   0.595  12.102  0.4085  0.4002  0.1362
 6561TIP3    H141174   4.018   0.570  12.045  1.4235  0.8811 -1.4117
 6561TIP3    H241175   4.066   0.680  12.137  0.2734  0.6402 -0.5214
 6562TIP3   OH241176   5.820   6.213  11.431  0.3342 -0.4666 -0.2181
 6562TIP3    H141177   5.860   6.132  11.464 -0.5498 -0.4269  0.9814
 6562TIP3    H241178   5.856   6.282  11.487  0.9164 -0.0429 -1.0942
 6563TIP3   OH241179   4.116   1.497  12.635  0.4200  0.1819  0.5217
 6563TIP3    H141180   4.083   1.464  12.718 -2.8314  0.1746 -0.7114
 6563TIP3    H241181   4.181   1.432  12.608  1.2563  0.0013  2.8479
 6564TIP3   OH241182   4.361   6.179  11.550  0.4564 -0.5171 -0.3098
 6564TIP3    H141183   4.420   6.240  11.506 -0.6916  1.1461  0.3918
 6564TIP3    H241184   4.403   6.161  11.634 -0.6501  1.7726  0.7870
 6565TIP3   OH241185   0.155   3.202   0.678  0.1857  0.1968  0.7639
 6565TIP3    H141186   0.142   3.120   0.725  1.2496  0.0935  0.8886
 6565TIP3    H241187   0.067   3.238   0.667 -0.3672 -1.3614 -0.0263
 6566TIP3   OH241188   3.396   6.440   3.826  0.2277  0.6944 -0.1230
 6566TIP3    H141189   3.448   6.499   3.879  0.4656 -0.1241  0.5740
 6566TIP3    H241190   3.419   6.352   3.857 -0.7996  0.2724 -0.4985
 6567TIP3   OH241191   3.137   6.820   1.838  0.2886  0.1279 -0.2244
 6567TIP3    H141192   3.111   6.817   1.746  1.6323  2.0395 -0.6919
 6567TIP3    H241193   3.120   6.910   1.865 -1.8003 -0.8513  1.9502
 6568TIP3   OH241194   1.865   0.173   5.962 -0.0481  0.2727  0.1362
 6568TIP3    H141195   1.815   0.103   6.004  0.7075 -0.4162 -0.0994
 6568TIP3    H241196   1.801   0.218   5.906 -0.6043 -0.0377  0.5197
 6569TIP3   OH241197   5.327   3.436  13.913 -0.5963 -0.3449 -0.5083
 6569TIP3    H141198   5.385   3.510  13.893 -1.0100 -0.3349 -1.6990
 6569TIP3    H241199   5.384   3.371  13.955 -0.3638  0.9211  1.2035
 6570TIP3   OH241200   6.438   0.343  12.166 -0.3461 -0.5713 -0.6749
 6570TIP3    H141201   6.517   0.359  12.218 -1.3606  0.6039  0.5425
 6570TIP3    H241202   6.409   0.430  12.138 -0.8131 -1.0485 -1.7115
 6571TIP3   OH241203   3.361   3.928   1.794 -0.2856  0.0044 -0.0143
 6571TIP3    H141204   3.361   3.835   1.774 -1.6130 -0.2093  0.8982
 6571TIP3    H241205   3.352   3.971   1.709 -0.4836 -0.7248 -0.3622
 6572TIP3   OH241206   1.504   4.141  11.863 -0.8536 -0.5536 -0.2428
 6572TIP3    H141207   1.436   4.199  11.830 -1.3573 -0.7854  0.3620
 6572TIP3    H241208   1.586   4.178  11.831 -1.2364 -0.0280 -0.6180
 6573TIP3   OH241209   3.785   4.694  15.194 -0.6425 -0.3755 -0.3115
 6573TIP3    H141210   3.762   4.703  15.286 -0.0928  0.2655 -0.2285
 6573TIP3    H241211   3.759   4.605  15.171  0.1014 -0.8747  0.7145
 6574TIP3   OH241212   5.315   1.658   4.955 -0.1871  0.0655  0.0278
 6574TIP3    H141213   5.405   1.664   4.923  0.6718 -0.5201  2.2429
 6574TIP3    H241214   5.295   1.745   4.988  0.0015 -0.1270  0.6508
 6575TIP3   OH241215   0.790   0.380  10.369  0.1751  0.7523 -0.3855
 6575TIP3    H141216   0.837   0.418  10.443 -0.0229  0.8406 -0.3053
 6575TIP3    H241217   0.712   0.340  10.407  1.2275 -1.2290 -0.2615
 6576TIP3   OH241218   1.097   6.374  13.682 -0.4516 -0.0094 -0.0161
 6576TIP3    H141219   1.041   6.317  13.734  0.2427 -0.5919  0.0931
 6576TIP3    H241220   1.157   6.315  13.637  1.0058  0.7027  0.9580
 6577TIP3   OH241221   2.919   6.414  12.696  0.2757 -0.3036  0.1452
 6577TIP3    H141222   2.886   6.504  12.686  0.5030 -0.3881 -1.5279
 6577TIP3    H241223   3.009   6.418  12.663 -0.1716 -1.4413 -1.2424
 6578TIP3   OH241224   1.021   6.004  17.174 -0.0710  0.4092 -0.4370
 6578TIP3    H141225   1.085   5.970  17.237  1.0251  0.9035 -1.2675
 6578TIP3    H241226   0.967   6.065  17.225 -0.6695 -0.9059  0.5515
 6579TIP3   OH241227   2.150   6.759  12.494 -0.0300 -0.5750 -0.2926
 6579TIP3    H141228   2.075   6.781  12.550 -0.3165 -0.0841 -0.8608
 6579TIP3    H241229   2.226   6.782  12.546 -0.2917 -0.2441 -0.0549
 6580TIP3   OH241230   1.535   0.936   2.663 -0.2330  0.1533 -0.3717
 6580TIP3    H141231   1.458   0.988   2.684 -0.2308  0.0679 -0.1582
 6580TIP3    H241232   1.609   0.989   2.694 -0.3091 -0.6989  1.3092
 6581TIP3   OH241233   5.288   2.734   1.979  0.0820  0.6413 -0.3705
 6581TIP3    H141234   5.235   2.671   1.930  2.4373 -1.9724  0.3579
 6581TIP3    H241235   5.350   2.768   1.914  2.1759 -1.6599  0.3717
 6582TIP3   OH241236   3.998   0.940  14.913 -0.0736 -0.1643 -0.1951
 6582TIP3    H141237   3.978   1.005  14.980  0.8224  1.1291 -1.1463
 6582TIP3    H241238   3.925   0.946  14.851  0.0029 -0.0654 -0.2760
 6583TIP3   OH241239   5.610   0.950  10.710  0.3419  1.0551  0.2338
 6583TIP3    H141240   5.678   0.897  10.668 -0.4010  0.6050 -0.4091
 6583TIP3    H241241   5.598   1.024  10.651 -0.5857  0.5069 -0.2675
 6584TIP3   OH241242   1.969   0.825  16.212 -0.0034  0.3190  0.1093
 6584TIP3    H141243   2.051   0.868  16.185 -0.2190  0.8301  0.2647
 6584TIP3    H241244   1.982   0.733  16.189 -0.3893  0.8207 -2.2993
 6585TIP3   OH241245   2.629   0.100  12.235  0.0357 -0.1155  0.7846
 6585TIP3    H141246   2.696   0.167  12.253  0.6775 -0.4142 -0.4201
 6585TIP3    H241247   2.646   0.074  12.144 -0.6486 -1.4155  1.0231
 6586TIP3   OH241248   4.112   4.891   0.927 -0.3152 -0.4856  0.0711
 6586TIP3    H141249   4.057   4.923   0.999  1.3611  1.4541  0.5331
 6586TIP3    H241250   4.157   4.815   0.963 -0.4647 -0.2998  0.6654
 6587TIP3   OH241251   5.089   0.309  13.132 -0.6821  0.4252  0.8367
 6587TIP3    H141252   5.165   0.254  13.149  0.6229  1.6287 -0.9111
 6587TIP3    H241253   5.125   0.398  13.124 -2.0855  0.8433 -1.2377
 6588TIP3   OH241254   2.708   3.266  16.404  0.2765  0.5211  0.2727
 6588TIP3    H141255   2.666   3.296  16.485  0.1531  0.9299  0.0597
 6588TIP3    H241256   2.644   3.206  16.365 -0.6822  2.1455 -0.7076
 6589TIP3   OH241257   2.603   2.183  16.472 -0.9138 -0.5077  0.4856
 6589TIP3    H141258   2.513   2.187  16.438 -0.3601 -0.8695 -1.0399
 6589TIP3    H241259   2.652   2.135  16.405  0.4897 -0.0693  1.1814
 6590TIP3   OH241260   5.668   1.104   4.991  0.1559 -0.3203  0.2189
 6590TIP3    H141261   5.602   1.099   5.060  1.6295 -2.1204  1.5315
 6590TIP3    H241262   5.703   1.193   4.998  0.2415 -0.4592  1.7392
 6591TIP3   OH241263   1.374   3.604   5.532 -0.5794 -0.4837  0.8862
 6591TIP3    H141264   1.437   3.579   5.465 -0.8540 -1.2995  0.9256
 6591TIP3    H241265   1.357   3.697   5.516 -0.4977 -0.6295 -0.0494
 6592TIP3   OH241266   3.295   6.167   3.947 -0.1227 -0.0242  0.5033
 6592TIP3    H141267   3.357   6.094   3.939 -1.8354 -1.3734 -0.9443
 6592TIP3    H241268   3.228   6.148   3.882 -1.0071  2.4708  0.6551
 6593TIP3   OH241269   0.401   0.360   0.150 -0.0321 -0.4370  0.1556
 6593TIP3    H141270   0.487   0.353   0.109 -0.3738  0.7205 -0.8044
 6593TIP3    H241271   0.346   0.400   0.082 -1.0243 -0.0580  1.1779
 6594TIP3   OH241272   0.999   4.658  15.801 -0.7149 -0.6577 -0.1852
 6594TIP3    H141273   0.903   4.664  15.803 -0.7643 -1.6056  0.4509
 6594TIP3    H241274   1.026   4.733  15.748 -1.6143  1.5593  2.3717
 6595TIP3   OH241275   5.698   3.091  12.984  0.2720 -0.2938 -0.2527
 6595TIP3    H141276   5.735   3.119  12.900  1.3299 -1.1307 -0.0796
 6595TIP3    H241277   5.606   3.115  12.979  0.9245  2.4369 -0.4539
 6596TIP3   OH241278   3.242   2.335  13.362 -0.2240 -0.7190 -0.0352
 6596TIP3    H141279   3.269   2.425  13.379  0.6575 -0.7073 -1.4442
 6596TIP3    H241280   3.261   2.288  13.443 -0.0062  0.2013  0.4517
 6597TIP3   OH241281   0.420   4.423  16.328 -0.0311 -0.3004  0.2868
 6597TIP3    H141282   0.503   4.439  16.282 -0.4691  0.1332 -0.3608
 6597TIP3    H241283   0.446   4.384  16.411  0.8001 -0.6209 -0.1182
 6598TIP3   OH241284   5.373   1.715   1.194  0.1305  0.6409  0.5655
 6598TIP3    H141285   5.436   1.785   1.214 -0.4208  0.9727  1.1506
 6598TIP3    H241286   5.319   1.709   1.273 -0.9033  0.6998 -0.1416
 6599TIP3   OH241287   3.174   3.929   3.188  0.0179 -0.6013 -0.2080
 6599TIP3    H141288   3.152   3.870   3.115 -0.1470 -0.3391 -0.3733
 6599TIP3    H241289   3.231   3.878   3.245 -0.6939 -1.1529  0.0066
 6600TIP3   OH241290   4.643   2.991   4.538  0.0439  0.4326  0.0755
 6600TIP3    H141291   4.624   2.996   4.632 -0.1888 -1.7504  0.1759
 6600TIP3    H241292   4.576   3.046   4.497 -0.0560  1.1376  1.1661
 6601TIP3   OH241293   0.089   4.096   1.317 -0.0478  0.2829  0.0254
 6601TIP3    H141294   0.136   4.017   1.343 -2.7683 -1.6058 -0.7350
 6601TIP3    H241295   0.096   4.099   1.222 -0.5905  0.5943 -0.0052
 6602TIP3   OH241296   2.768   3.758  16.650  0.4789 -0.1455  0.2278
 6602TIP3    H141297   2.829   3.782  16.719 -0.1284  0.8400  0.4292
 6602TIP3    H241298   2.731   3.841  16.620  0.8222 -0.5370 -1.3626
 6603TIP3   OH241299   6.236   1.978  13.499  0.1908 -0.3710  0.3548
 6603TIP3    H141300   6.265   1.901  13.451  1.8103  0.7396 -0.4943
 6603TIP3    H241301   6.155   2.005  13.455  0.4630 -0.6592 -0.3240
 6604TIP3   OH241302   4.101   2.488  11.126 -0.4060  0.3905  0.1852
 6604TIP3    H141303   4.034   2.463  11.062 -0.6582  1.7043 -0.0675
 6604TIP3    H241304   4.178   2.439  11.099 -0.8823 -0.0777 -0.3423
 6605TIP3   OH241305   5.352   5.169   5.234 -0.7095 -0.3681  0.7679
 6605TIP3    H141306   5.386   5.249   5.194 -0.9204  0.1955  1.6827
 6605TIP3    H241307   5.405   5.099   5.197  0.5133  0.3622  1.0933
 6606TIP3   OH241308   3.669   6.735  11.296 -0.3493  0.2135  0.6323
 6606TIP3    H141309   3.638   6.655  11.254 -1.0047  0.0171  1.4657
 6606TIP3    H241310   3.691   6.794  11.224 -1.8197  0.0248  0.0317
 6607TIP3   OH241311   3.078   4.627  13.208 -0.1583 -0.1893  0.2362
 6607TIP3    H141312   3.049   4.573  13.281 -0.8072 -0.8783 -0.5225
 6607TIP3    H241313   3.018   4.606  13.137  0.9532 -0.1348 -0.7414
 6608TIP3   OH241314   1.236   0.695  12.765  0.1235 -0.2199  0.2718
 6608TIP3    H141315   1.269   0.757  12.700 -1.4656 -0.1015 -0.4379
 6608TIP3    H241316   1.152   0.731  12.793  0.9662 -0.0331  2.7508
 6609TIP3   OH241317   1.743   6.723   3.027 -0.1363 -0.0955 -0.1984
 6609TIP3    H141318   1.696   6.763   2.953  0.9504  3.4400  0.9465
 6609TIP3    H241319   1.832   6.710   2.995  0.1459  0.7368  0.2517
 6610TIP3   OH241320   1.468   2.419   4.998 -0.2205 -0.2099 -0.6201
 6610TIP3    H141321   1.516   2.381   5.072  0.7817  0.2537 -1.0182
 6610TIP3    H241322   1.412   2.348   4.967  0.9641 -1.0919 -0.7789
 6611TIP3   OH241323   5.966   0.732   2.614  0.2979 -0.2722  0.4292
 6611TIP3    H141324   5.894   0.793   2.605 -0.5671 -1.2987  0.2650
 6611TIP3    H241325   5.958   0.698   2.703  0.1052 -0.9700  0.1479
 6612TIP3   OH241326   0.111   4.133  11.676 -0.5773  0.3424 -0.1738
 6612TIP3    H141327   0.030   4.182  11.675 -1.7986 -1.4764  2.2041
 6612TIP3    H241328   0.149   4.151  11.762  1.4315  0.9807 -1.1563
 6613TIP3   OH241329   0.157   2.767  11.735 -0.5651  0.2467 -0.4912
 6613TIP3    H141330   0.130   2.858  11.742  1.4614  0.9433 -1.2886
 6613TIP3    H241331   0.143   2.744  11.642 -2.6953 -0.8137  0.0584
 6614TIP3   OH241332   4.695   4.608   5.542  0.2413 -0.2211  0.4946
 6614TIP3    H141333   4.673   4.602   5.635  2.0088  2.1306  1.1063
 6614TIP3    H241334   4.616   4.643   5.500  0.3445  1.3275  1.5582
 6615TIP3   OH241335   4.020   2.491   5.726 -0.1892  0.5813 -0.5884
 6615TIP3    H141336   4.104   2.491   5.772  0.1666  1.0301 -1.2278
 6615TIP3    H241337   3.967   2.426   5.773 -0.2258  1.8314  1.1187
 6616TIP3   OH241338   5.655   4.730  15.652  0.0568  0.0358 -0.0005
 6616TIP3    H141339   5.686   4.734  15.561 -0.9491 -1.7030 -0.4259
 6616TIP3    H241340   5.648   4.637  15.671 -0.3964  0.3976  1.6540
 6617TIP3   OH241341   2.029   4.486   4.611 -0.3833 -0.2506  0.4559
 6617TIP3    H141342   2.108   4.494   4.664 -0.5677 -2.8965  1.1859
 6617TIP3    H241343   2.055   4.519   4.525  0.9763  0.5967  1.1606
 6618TIP3   OH241344   1.861   2.076  14.814 -0.5255  0.2954 -0.4628
 6618TIP3    H141345   1.889   2.051  14.902  0.7647 -0.4998 -1.0868
 6618TIP3    H241346   1.940   2.068  14.760 -1.1766  1.2729 -1.5931
 6619TIP3   OH241347   0.385   4.095   0.904  0.0110  0.5481 -0.1413
 6619TIP3    H141348   0.431   4.175   0.879  1.7590  0.6546  3.1605
 6619TIP3    H241349   0.293   4.121   0.908  0.0176  1.2850 -3.1083
 6620TIP3   OH241350   4.308   5.394   4.310  0.1345  0.2395 -0.3970
 6620TIP3    H141351   4.317   5.370   4.402 -0.4810  1.3825 -0.0311
 6620TIP3    H241352   4.342   5.318   4.262 -1.7056 -1.3250  0.7117
 6621TIP3   OH241353   2.532   2.862  13.577 -0.6707 -0.0495  0.0482
 6621TIP3    H141354   2.510   2.775  13.545 -0.5497 -1.0285  2.5328
 6621TIP3    H241355   2.453   2.893  13.621 -0.0171  0.1297  1.1403
 6622TIP3   OH241356   4.271   0.549  15.169 -0.2432 -0.3651 -0.1971
 6622TIP3    H141357   4.248   0.461  15.198 -2.2362  0.6086  1.2227
 6622TIP3    H241358   4.253   0.549  15.075 -0.3459 -1.4227 -0.1812
 6623TIP3   OH241359   4.919   2.495  14.733 -0.0203 -0.5660  0.0332
 6623TIP3    H141360   4.981   2.542  14.788 -0.1669  0.8806 -1.0048
 6623TIP3    H241361   4.973   2.456  14.664 -0.1365 -0.1806 -0.2782
 6624TIP3   OH241362   2.101   4.573  17.254 -0.2031  0.1843 -0.1384
 6624TIP3    H141363   2.133   4.625  17.328 -1.5328 -1.7391  1.8363
 6624TIP3    H241364   2.031   4.626  17.217  0.0914  0.9172  0.3291
 6625TIP3   OH241365   3.137   1.711   4.266  0.1123  0.5247 -0.0317
 6625TIP3    H141366   3.048   1.737   4.244 -0.4562 -0.9499  0.4378
 6625TIP3    H241367   3.182   1.792   4.290 -1.0408  1.2956 -0.4728
 6626TIP3   OH241368   5.656   1.211  15.099  0.0953 -0.0227 -0.0394
 6626TIP3    H141369   5.601   1.155  15.154  1.5786 -2.5802 -1.0776
 6626TIP3    H241370   5.673   1.288  15.152 -1.8847 -0.5956  1.4946
 6627TIP3   OH241371   6.148   2.225  16.647 -0.0780 -0.4320 -0.2302
 6627TIP3    H141372   6.156   2.135  16.615 -0.0329 -0.2836 -0.6300
 6627TIP3    H241373   6.204   2.227  16.725 -0.8387 -1.0202  0.3396
 6628TIP3   OH241374   3.035   3.436   0.328  0.3525  1.0997  0.3162
 6628TIP3    H141375   3.050   3.531   0.324 -0.4851  1.2381  0.3225
 6628TIP3    H241376   2.999   3.422   0.416  0.5271  0.7672  0.3322
 6629TIP3   OH241377   0.828   5.170  13.798  0.2477  0.0941  0.3511
 6629TIP3    H141378   0.803   5.077  13.801  0.8893 -0.2420 -2.9674
 6629TIP3    H241379   0.918   5.171  13.832 -0.1340 -0.3090  1.4161
 6630TIP3   OH241380   0.800   4.503   3.684 -0.1422 -0.4698 -0.4978
 6630TIP3    H141381   0.892   4.526   3.675 -0.6625  1.6814 -0.4595
 6630TIP3    H241382   0.798   4.440   3.756  1.4674 -1.7402 -1.5228
 6631TIP3   OH241383   4.711   5.404   5.920  0.2264 -0.2637 -0.7266
 6631TIP3    H141384   4.750   5.413   5.834  0.3165 -2.6506 -0.9726
 6631TIP3    H241385   4.781   5.370   5.975  0.7548  3.1017  0.8288
 6632TIP3   OH241386   4.909   3.266   2.336  0.1828 -0.2060  0.4777
 6632TIP3    H141387   4.855   3.189   2.351 -0.7659  0.9712  3.3137
 6632TIP3    H241388   4.996   3.242   2.369  0.1765 -0.4285  0.3341
 6633TIP3   OH241389   1.493   0.138   0.982 -0.6157  0.2286  0.6449
 6633TIP3    H141390   1.409   0.173   0.952 -0.4107 -0.8904 -1.4022
 6633TIP3    H241391   1.503   0.170   1.071 -2.3558  1.8915  0.2721
 6634TIP3   OH241392   4.675   1.790  13.570 -0.2688 -0.0548 -0.3622
 6634TIP3    H141393   4.704   1.701  13.588  0.0675  0.0865 -0.1973
 6634TIP3    H241394   4.655   1.790  13.477 -3.2469 -1.1406  0.2358
 6635TIP3   OH241395   0.364   2.788   5.331  0.5375 -0.2166 -0.7170
 6635TIP3    H141396   0.335   2.857   5.272  0.4276  0.1248 -0.2666
 6635TIP3    H241397   0.289   2.771   5.387  1.0531  0.3605  0.1649
 6636TIP3   OH241398   2.694   2.272  16.070 -0.2873 -0.0968  0.0245
 6636TIP3    H141399   2.733   2.212  16.134  0.7885  1.5081  0.8984
 6636TIP3    H241400   2.753   2.267  15.994 -0.7146 -0.8336 -0.2671
 6637TIP3   OH241401   3.383   1.179  13.802 -0.2218 -0.0585  0.4468
 6637TIP3    H141402   3.314   1.117  13.825 -0.0861 -0.2739  0.2702
 6637TIP3    H241403   3.464   1.128  13.809 -0.3009 -0.6102 -2.2089
 6638TIP3   OH241404   5.757   4.079   0.379  0.1013  0.3609  0.1961
 6638TIP3    H141405   5.767   4.116   0.291 -0.7046  1.4095  0.5314
 6638TIP3    H241406   5.793   3.991   0.372  0.0472  0.4318 -1.1876
 6639TIP3   OH241407   3.238   5.441  13.166 -0.0523  0.2085 -0.2911
 6639TIP3    H141408   3.185   5.518  13.186  2.5902  1.6531  1.4503
 6639TIP3    H241409   3.194   5.369  13.211  0.2045  1.6404  2.3416
 6640TIP3   OH241410   1.594   1.649  15.084 -0.2380 -0.0937  0.5093
 6640TIP3    H141411   1.598   1.730  15.135 -0.6024  0.1718  0.1099
 6640TIP3    H241412   1.549   1.673  15.003  1.3645 -0.2686 -0.4331
 6641TIP3   OH241413   6.324   1.737   0.238  1.0071 -0.1364 -0.5034
 6641TIP3    H141414   6.276   1.772   0.163 -2.2251  1.9114  2.3408
 6641TIP3    H241415   6.326   1.643   0.224  0.1839  0.1917 -3.0025
 6642TIP3   OH241416   6.027   3.394  15.655  0.5193 -0.5637 -0.2847
 6642TIP3    H141417   5.947   3.345  15.669  0.3291  0.1784  1.3832
 6642TIP3    H241418   6.002   3.485  15.669  1.7995 -0.3886  1.0018
 6643TIP3   OH241419   6.712   4.119  15.890  0.3490 -0.0753 -0.2344
 6643TIP3    H141420   6.627   4.163  15.897 -0.8775 -1.6843 -3.9555
 6643TIP3    H241421   6.706   4.047  15.952  1.0086  2.7228  3.2514
 6644TIP3   OH241422   4.571   5.241   4.749 -0.5343 -0.2435  0.2829
 6644TIP3    H141423   4.518   5.170   4.785  1.6738 -3.2503 -2.2070
 6644TIP3    H241424   4.661   5.212   4.760  0.4220  2.1566 -0.8289
 6645TIP3   OH241425   3.469   0.233  16.227 -0.1569  0.2388 -0.3498
 6645TIP3    H141426   3.544   0.270  16.274  0.9263 -1.6919 -0.4623
 6645TIP3    H241427   3.440   0.161  16.282 -0.9720  0.0185 -1.0527
 6646TIP3   OH241428   6.031   0.647  13.932  0.1465  0.3669  0.6413
 6646TIP3    H141429   6.057   0.731  13.896  0.9806 -0.4801 -0.7611
 6646TIP3    H241430   6.113   0.600  13.946 -0.3755 -0.7667  0.0165
 6647TIP3   OH241431   6.795   5.148   5.694  0.3948 -0.1981  0.4875
 6647TIP3    H141432   6.867   5.107   5.742 -1.5156 -1.5592  2.3010
 6647TIP3    H241433   6.756   5.209   5.755 -0.4405 -0.0012 -0.2241
 6648TIP3   OH241434   4.895   1.398  16.227  0.2671  0.5234  0.3310
 6648TIP3    H141435   4.825   1.342  16.195 -1.5977  2.6043  0.6299
 6648TIP3    H241436   4.932   1.352  16.302 -1.4259 -0.1650  0.7440
 6649TIP3   OH241437   2.088   0.706   3.128  0.3240  0.3893 -0.2846
 6649TIP3    H141438   2.017   0.742   3.076  1.2737 -0.5693 -2.3188
 6649TIP3    H241439   2.093   0.614   3.102  0.8538 -0.1100  1.4896
 6650TIP3   OH241440   5.519   6.544  16.714  0.0268  0.1158 -0.5096
 6650TIP3    H141441   5.486   6.456  16.695  0.4269 -0.3146  0.7630
 6650TIP3    H241442   5.511   6.591  16.631 -1.0633 -0.8449 -0.9612
 6651TIP3   OH241443   0.036   4.574   4.215 -0.2394 -0.4438 -0.0563
 6651TIP3    H141444  -0.036   4.522   4.252 -0.5841  0.1311  0.0995
 6651TIP3    H241445   0.115   4.537   4.254 -0.5341 -0.4373  0.5586
 6652TIP3   OH241446   5.594   2.519   5.618 -0.3484  0.7042 -0.3320
 6652TIP3    H141447   5.606   2.597   5.672 -2.7197  0.8929 -0.0253
 6652TIP3    H241448   5.617   2.548   5.529  3.6329  0.3740  0.4956
 6653TIP3   OH241449   2.649   0.454  14.170 -0.2114 -0.1645  0.3821
 6653TIP3    H141450   2.560   0.477  14.198 -0.8602 -1.6509 -0.3708
 6653TIP3    H241451   2.667   0.510  14.095 -1.1644 -0.9926 -0.4797
 6654TIP3   OH241452   2.916   3.371  15.914 -0.3854 -0.2989  0.5557
 6654TIP3    H141453   2.919   3.344  16.006  0.4979 -0.6723  0.4140
 6654TIP3    H241454   2.992   3.428  15.903 -1.7583  1.6057  0.6362
 6655TIP3   OH241455   4.551   2.319   1.346 -0.2294  0.0882 -0.2432
 6655TIP3    H141456   4.559   2.398   1.399 -1.6210 -0.2154  0.4426
 6655TIP3    H241457   4.541   2.351   1.256  1.8208  0.6089 -0.3191
 6656TIP3   OH241458   4.009   2.386   1.079 -0.4916 -0.3303 -0.3151
 6656TIP3    H141459   4.090   2.336   1.090  0.7553  1.5447 -0.8927
 6656TIP3    H241460   4.004   2.403   0.985 -0.0722  1.9585  0.0471
 6657TIP3   OH241461   2.332   5.355  16.493  0.1047 -0.1455  0.1898
 6657TIP3    H141462   2.342   5.328  16.584  3.7932  0.0669 -0.0649
 6657TIP3    H241463   2.360   5.446  16.492 -0.9779  0.1850 -0.9815
 6658TIP3   OH241464   5.535   0.090  13.103 -0.5213  0.4224 -0.1214
 6658TIP3    H141465   5.447   0.109  13.070 -0.4767  1.1777  0.1982
 6658TIP3    H241466   5.593   0.147  13.052 -0.1117 -0.7389 -0.9835
 6659TIP3   OH241467   6.491   3.611   5.165 -0.0569  0.3984  0.2901
 6659TIP3    H141468   6.428   3.585   5.098 -0.2932  1.5118  0.0734
 6659TIP3    H241469   6.548   3.674   5.121  1.4997 -0.9188  0.3516
 6660TIP3   OH241470   5.447   3.390   2.640 -0.3661  0.4320 -0.6957
 6660TIP3    H141471   5.489   3.475   2.655  1.3396 -1.0324  3.6154
 6660TIP3    H241472   5.509   3.341   2.587  0.9355  0.1767  1.0385
 6661TIP3   OH241473   1.061   5.777   3.965  0.1037 -0.1265  0.3213
 6661TIP3    H141474   1.010   5.781   4.046 -1.8024  1.2226 -0.9203
 6661TIP3    H241475   1.079   5.684   3.953 -0.4597 -0.4375  1.7490
 6662TIP3   OH241476   4.629   6.285  16.877 -0.3573 -0.3807  0.0852
 6662TIP3    H141477   4.648   6.334  16.957  0.9328  0.2883 -0.6191
 6662TIP3    H241478   4.701   6.222  16.869 -0.5010 -0.4696 -0.5292
 6663TIP3   OH241479   0.239   3.411   0.471  0.3519 -0.3771 -0.1363
 6663TIP3    H141480   0.248   3.476   0.540 -1.4582 -0.0323 -0.2041
 6663TIP3    H241481   0.243   3.327   0.517  0.8304 -0.1920  0.1689
 6664TIP3   OH241482   0.538   4.868  16.050 -0.3020 -0.3458 -0.2356
 6664TIP3    H141483   0.587   4.840  16.127 -0.7054 -1.2856 -0.3120
 6664TIP3    H241484   0.549   4.963  16.048 -0.0505 -0.3458  0.8059
 6665TIP3   OH241485   6.221   2.157  16.906 -0.1613  0.1453 -0.3109
 6665TIP3    H141486   6.306   2.118  16.889  0.2144  1.4514 -1.5575
 6665TIP3    H241487   6.162   2.083  16.915  0.8765 -0.7489 -0.7390
 6666TIP3   OH241488   0.926   5.328  16.018 -0.0995 -0.2770 -0.3465
 6666TIP3    H141489   0.834   5.327  16.046  0.1346  0.8720  0.5177
 6666TIP3    H241490   0.943   5.240  15.986 -0.9201 -1.0961  1.4188
 6667TIP3   OH241491   0.697   3.034  13.821 -0.1934  0.0380  0.1673
 6667TIP3    H141492   0.670   3.047  13.730 -0.2451  0.0331  0.1820
 6667TIP3    H241493   0.619   3.058  13.872 -0.6469 -1.3832  0.1481
 6668TIP3   OH241494   0.129   2.898  10.877 -0.0038  0.3631  0.3865
 6668TIP3    H141495   0.140   2.925  10.786 -0.7449  1.5014  0.6272
 6668TIP3    H241496   0.217   2.905  10.915 -0.0740  1.9021  0.2959
 6669TIP3   OH241497   1.822   0.809  11.444 -0.3765 -1.1378 -0.0545
 6669TIP3    H141498   1.790   0.824  11.533 -0.1656 -2.1429  0.1999
 6669TIP3    H241499   1.755   0.849  11.388 -0.5154 -0.5108  0.5548
 6670TIP3   OH241500   4.772   0.445   6.136  0.2362 -0.0491  0.7065
 6670TIP3    H141501   4.811   0.491   6.211 -0.5921 -0.0245  1.1360
 6670TIP3    H241502   4.683   0.481   6.130  0.8399  1.1719 -1.3476
 6671TIP3   OH241503   1.102   3.142   2.745  0.3931 -0.1706 -0.0611
 6671TIP3    H141504   1.106   3.050   2.718 -0.1628 -0.4918  0.9294
 6671TIP3    H241505   1.143   3.190   2.673 -1.6881 -0.9342 -1.8212
 6672TIP3   OH241506   2.113   2.384  11.634 -0.5393 -0.1292 -0.1450
 6672TIP3    H141507   2.082   2.419  11.550 -0.3985  1.1114  0.3139
 6672TIP3    H241508   2.134   2.292  11.615  0.4294  0.3944 -1.7090
 6673TIP3   OH241509   0.163   2.984   3.444  0.6190  0.3552  0.3437
 6673TIP3    H141510   0.169   3.076   3.418 -0.6432  0.3559 -0.0232
 6673TIP3    H241511   0.247   2.964   3.484  1.8986  0.9166 -1.9871
 6674TIP3   OH241512   3.628   1.574  16.479 -0.2335  0.6016 -0.7125
 6674TIP3    H141513   3.653   1.660  16.446 -0.7663  0.9924 -0.1040
 6674TIP3    H241514   3.539   1.585  16.512 -1.1938 -0.7660 -2.7753
 6675TIP3   OH241515   2.392   2.256   3.954  0.4574 -0.5332 -0.3331
 6675TIP3    H141516   2.359   2.179   4.000  2.8691 -1.7409 -0.5427
 6675TIP3    H241517   2.368   2.329   4.010 -0.0016 -1.6466  0.9607
 6676TIP3   OH241518   1.384   1.378  16.766  0.1102 -0.1952 -0.0218
 6676TIP3    H141519   1.436   1.316  16.716  0.6591  1.1288 -1.1118
 6676TIP3    H241520   1.399   1.354  16.857  2.6683  0.1745 -0.3094
 6677TIP3   OH241521   0.595   0.463   5.901  0.2024 -0.0568 -0.3016
 6677TIP3    H141522   0.550   0.541   5.868 -0.6186 -0.2524  0.3555
 6677TIP3    H241523   0.526   0.408   5.937  1.1453  0.3997  2.2677
 6678TIP3   OH241524   6.609   0.784   3.976 -0.0484 -0.0622 -0.1894
 6678TIP3    H141525   6.524   0.761   3.939 -0.2405  0.5719 -0.1461
 6678TIP3    H241526   6.598   0.873   4.010  0.6040 -0.0070 -0.1002
 6679TIP3   OH241527   4.154   0.953  15.968  0.2340 -0.1225 -0.0641
 6679TIP3    H141528   4.206   0.962  15.888 -1.1720 -0.7806 -1.0705
 6679TIP3    H241529   4.151   0.858  15.984  1.1967  0.0477  1.2513
 6680TIP3   OH241530   5.842   5.808  14.035 -0.0896 -0.5046 -0.3871
 6680TIP3    H141531   5.825   5.725  13.990 -2.1636 -0.1352 -0.3310
 6680TIP3    H241532   5.921   5.791  14.087 -1.6407 -3.1128  1.2386
 6681TIP3   OH241533   4.305   6.010   0.891  0.0567  0.6507  0.4819
 6681TIP3    H141534   4.355   5.934   0.919 -0.0570  0.3507 -0.1127
 6681TIP3    H241535   4.260   5.981   0.811 -1.2257  0.8357  1.1128
 6682TIP3   OH241536   3.537   2.416   2.126  0.9226  0.4148 -0.6466
 6682TIP3    H141537   3.578   2.460   2.200 -3.1189  0.8873  1.4874
 6682TIP3    H241538   3.586   2.334   2.116  1.9338  0.6138  2.2148
 6683TIP3   OH241539   2.502   3.416   2.822 -0.1933 -0.1974 -0.0646
 6683TIP3    H141540   2.551   3.472   2.762 -0.8517 -0.4890 -0.8906
 6683TIP3    H241541   2.459   3.352   2.765  0.8544 -1.8011  0.8915
 6684TIP3   OH241542   0.049   5.223   5.441 -0.1451  0.4640  0.0651
 6684TIP3    H141543   0.031   5.194   5.530 -2.6380  1.0225 -0.2043
 6684TIP3    H241544   0.042   5.143   5.388 -1.6550  0.6062  0.0167
 6685TIP3   OH241545   2.619   5.767  13.237  0.0179  0.5318 -0.4719
 6685TIP3    H141546   2.529   5.789  13.213  0.3123  0.8826 -1.2893
 6685TIP3    H241547   2.657   5.849  13.268  0.3480  0.6020 -1.0593
 6686TIP3   OH241548   1.139   0.122  12.128  0.1680  0.3733  0.0853
 6686TIP3    H141549   1.115   0.197  12.073  0.7976  0.5402  0.0397
 6686TIP3    H241550   1.080   0.129  12.203 -2.7701 -1.5431 -1.9379
 6687TIP3   OH241551   0.786   6.070   2.864 -0.0990 -0.1270 -0.2413
 6687TIP3    H141552   0.762   5.996   2.809  1.4371 -1.7804  1.2439
 6687TIP3    H241553   0.829   6.132   2.805 -1.1513 -0.5336 -1.4434
 6688TIP3   OH241554   0.337   3.782   5.263  0.4436 -0.3206  0.1907
 6688TIP3    H141555   0.315   3.853   5.323  0.5681 -0.9921  1.0425
 6688TIP3    H241556   0.268   3.784   5.197  0.5768  0.7339  0.0813
 6689TIP3   OH241557   3.765   3.077   4.136  0.2400  0.0861 -0.3927
 6689TIP3    H141558   3.781   3.171   4.127  1.2044 -0.0527 -0.1754
 6689TIP3    H241559   3.802   3.054   4.220  2.8316 -1.0749 -1.7995
 6690TIP3   OH241560   2.292   1.546   6.542 -0.1731  0.1845  0.3303
 6690TIP3    H141561   2.360   1.552   6.608  3.0551 -3.3883 -2.4617
 6690TIP3    H241562   2.216   1.512   6.589  1.1977  0.3073  2.7233
 6691TIP3   OH241563   4.738   0.835  11.331  0.5165 -0.0240 -0.5759
 6691TIP3    H141564   4.682   0.913  11.333 -0.2605 -0.5943  2.4512
 6691TIP3    H241565   4.808   0.854  11.393  0.5990 -1.5227 -0.1852
 6692TIP3   OH241566   1.182   3.064   5.092  0.1343  0.2304 -0.1209
 6692TIP3    H141567   1.144   3.065   5.180 -1.6130  2.3481 -0.8647
 6692TIP3    H241568   1.186   2.971   5.068  1.2926 -0.4331  2.4351
 6693TIP3   OH241569   5.518   4.216  12.317 -0.0055  0.3864 -0.1922
 6693TIP3    H141570   5.587   4.282  12.314  0.7903 -0.3460  1.6081
 6693TIP3    H241571   5.458   4.240  12.246  1.2513  1.9525 -0.7315
 6694TIP3   OH241572   4.230   4.467   3.036  0.2045 -0.5184  0.3456
 6694TIP3    H141573   4.188   4.401   3.092 -0.7661 -0.3478 -0.1691
 6694TIP3    H241574   4.272   4.417   2.966  0.4142 -0.6607  0.5744
 6695TIP3   OH241575   1.438   2.493  14.042  0.0483  0.0327 -0.7125
 6695TIP3    H141576   1.403   2.486  13.953  2.2370 -0.3266 -1.5683
 6695TIP3    H241577   1.417   2.409  14.083  0.2023 -0.3103 -1.3270
 6696TIP3   OH241578   4.717   0.610   4.594 -0.0995  0.0538  0.2938
 6696TIP3    H141579   4.663   0.532   4.606 -0.2933  0.2107  0.4266
 6696TIP3    H241580   4.719   0.652   4.679  1.3086 -0.6496  0.6218
 6697TIP3   OH241581   0.404   2.960   3.552  0.3656 -0.3254 -0.3278
 6697TIP3    H141582   0.438   3.048   3.569  0.3498 -0.8321  2.5978
 6697TIP3    H241583   0.469   2.901   3.591 -0.0530 -1.5944 -1.4965
 6698TIP3   OH241584   3.373   5.283  12.456  0.3099 -0.3566 -0.2789
 6698TIP3    H141585   3.397   5.208  12.401  2.1795  0.8157 -1.1255
 6698TIP3    H241586   3.353   5.352  12.394  1.1206  0.5962  0.5142
 6699TIP3   OH241587   6.742   3.694  13.870  0.3372 -0.3963 -0.0504
 6699TIP3    H141588   6.656   3.660  13.848  0.2000 -0.0405 -0.0630
 6699TIP3    H241589   6.768   3.746  13.794  0.1555  0.2720  0.3318
 6700TIP3   OH241590   0.040   5.990   2.556 -0.0397  0.5528  0.0839
 6700TIP3    H141591  -0.055   5.986   2.542 -0.3694  3.4130  1.1751
 6700TIP3    H241592   0.075   6.018   2.472 -0.1343 -0.4396 -0.3005
 6701TIP3   OH241593   4.013   1.862  16.720 -0.0171 -0.1689 -0.2673
 6701TIP3    H141594   4.094   1.898  16.756 -0.7861 -1.6041  3.0616
 6701TIP3    H241595   3.959   1.938  16.701  1.7217  0.7566 -1.6610
 6702TIP3   OH241596   3.065   1.952   5.451  0.9479  0.0211 -0.2667
 6702TIP3    H141597   3.105   1.865   5.438 -0.2425 -0.6092  0.2156
 6702TIP3    H241598   3.128   1.999   5.505  1.1448 -0.8971  0.3253
 6703TIP3   OH241599   5.294   0.361  15.275 -0.1014 -0.2850  0.0086
 6703TIP3    H141600   5.220   0.301  15.285 -0.7705  0.1667 -1.9915
 6703TIP3    H241601   5.356   0.313  15.220 -0.5040  0.6856 -1.3372
 6704TIP3   OH241602   6.595   6.673   2.464 -0.1704  1.2033 -1.0115
 6704TIP3    H141603   6.646   6.750   2.440  1.6676  0.2877 -0.1198
 6704TIP3    H241604   6.583   6.680   2.559 -0.6805  0.8019 -1.0412
 6705TIP3   OH241605   5.391   5.432  13.913 -0.1539  0.7360 -0.6304
 6705TIP3    H141606   5.332   5.364  13.880  0.2512  0.6270 -1.1362
 6705TIP3    H241607   5.409   5.406  14.004 -1.4706  1.1755 -0.2271
 6706TIP3   OH241608   6.795   6.023   1.365  0.3949  0.1633  0.2353
 6706TIP3    H141609   6.762   6.012   1.455  2.4096  0.1768  1.0086
 6706TIP3    H241610   6.829   6.112   1.363 -0.7280  0.5735 -0.9287
 6707TIP3   OH241611   2.895   3.477  12.813 -0.0498  0.5339 -0.2472
 6707TIP3    H141612   2.888   3.391  12.853  1.7224  0.6899  0.4799
 6707TIP3    H241613   2.974   3.472  12.758 -0.6988  1.2793 -1.2752
 6708TIP3   OH241614   5.988   0.252  14.123 -0.4065  0.4847  0.0451
 6708TIP3    H141615   6.005   0.295  14.207  1.5446  0.4803 -0.3303
 6708TIP3    H241616   5.918   0.189  14.142 -0.1145  0.6135  1.6205
 6709TIP3   OH241617   0.821   5.408  15.155 -0.2688  0.1805  0.0930
 6709TIP3    H141618   0.895   5.424  15.213  0.2127 -0.1076 -0.4378
 6709TIP3    H241619   0.760   5.480  15.173  0.4162  0.7594  0.0893
 6710TIP3   OH241620   5.534   2.824  11.297  0.1832 -0.0514  0.2451
 6710TIP3    H141621   5.571   2.906  11.328 -1.2758  0.1834  1.4119
 6710TIP3    H241622   5.608   2.764  11.292  0.9281  0.7702  1.2863
 6711TIP3   OH241623   3.885   1.959   2.513  0.2962 -0.0964  0.0963
 6711TIP3    H141624   3.917   1.949   2.423  1.3320 -0.5513  0.5120
 6711TIP3    H241625   3.961   1.990   2.562 -0.5811  1.3422  0.5861
 6712TIP3   OH241626   1.195   3.264   0.090 -0.2318 -0.1790 -0.2256
 6712TIP3    H141627   1.231   3.175   0.099  0.1865 -0.0895 -0.9744
 6712TIP3    H241628   1.197   3.281  -0.004 -1.3318  0.2095 -0.1843
 6713TIP3   OH241629   4.135   4.384  16.107 -0.6793  0.1292 -0.3792
 6713TIP3    H141630   4.041   4.366  16.101 -0.8639  0.9531 -0.0376
 6713TIP3    H241631   4.174   4.332  16.037 -1.4551  0.2356 -0.8940
 6714TIP3   OH241632   5.795   6.741  12.065  0.0771  0.6815  0.3559
 6714TIP3    H141633   5.724   6.750  12.129 -0.5133 -1.4677  0.0411
 6714TIP3    H241634   5.873   6.726  12.118  0.1694  2.1927  0.6733
 6715TIP3   OH241635   4.459   1.467  12.600 -0.2957 -0.1383 -0.1579
 6715TIP3    H141636   4.444   1.532  12.532  1.1924  0.9467  0.5056
 6715TIP3    H241637   4.382   1.411  12.598 -1.5138  1.5371 -0.8770
 6716TIP3   OH241638   3.083   3.729   4.078 -0.0053 -0.2178  0.2905
 6716TIP3    H141639   3.151   3.694   4.020  0.6726  0.0120  0.9295
 6716TIP3    H241640   3.008   3.745   4.021  0.5696 -0.2371 -0.4782
 6717TIP3   OH241641   2.247   3.321  12.411 -0.7162 -0.4543 -0.3380
 6717TIP3    H141642   2.337   3.299  12.435 -0.5196 -2.1546 -2.4829
 6717TIP3    H241643   2.207   3.350  12.493  1.3721 -1.0172  0.9312
 6718TIP3   OH241644   1.330   3.521  13.027  0.1335  0.0637 -0.6351
 6718TIP3    H141645   1.423   3.519  13.004 -0.1092 -0.9581 -1.6135
 6718TIP3    H241646   1.320   3.597  13.084  2.1303 -1.5701  2.0099
 6719TIP3   OH241647   3.363   1.805   5.708 -0.3532  0.5681  0.0893
 6719TIP3    H141648   3.289   1.753   5.738  0.0300  0.9571  1.7903
 6719TIP3    H241649   3.388   1.766   5.625 -0.1438 -1.9137  1.2826
 6720TIP3   OH241650   6.083   0.597   4.202 -0.0877 -0.2302  0.5115
 6720TIP3    H141651   6.133   0.535   4.256 -0.2891  0.7245  1.8134
 6720TIP3    H241652   6.133   0.678   4.206  0.6103 -0.5046 -1.8614
 6721TIP3   OH241653   4.135   2.705   3.390 -0.2914 -0.0542  0.6635
 6721TIP3    H141654   4.132   2.800   3.401  0.6241 -0.0299  0.7135
 6721TIP3    H241655   4.081   2.689   3.312  0.8606  0.6722 -0.3120
 6722TIP3   OH241656   0.334   3.952   2.434 -0.0161  0.0543  0.2528
 6722TIP3    H141657   0.299   4.019   2.494 -1.6977 -0.3131 -0.2867
 6722TIP3    H241658   0.279   3.875   2.450  2.8776 -1.7433  1.9927
 6723TIP3   OH241659   3.783   1.369  11.098 -0.2137 -0.3745 -0.5004
 6723TIP3    H141660   3.764   1.293  11.153  2.3409 -0.8928 -0.2862
 6723TIP3    H241661   3.769   1.338  11.009 -0.9106 -0.5494 -0.3394
 6724TIP3   OH241662   0.943   0.384   5.579 -0.0999  0.1581 -0.3889
 6724TIP3    H141663   0.958   0.473   5.546  0.5152  0.5067  0.8059
 6724TIP3    H241664   1.020   0.366   5.634  0.0311 -1.3111 -1.0299
 6725TIP3   OH241665   4.510   0.524  10.973 -0.9294  0.5439  0.4279
 6725TIP3    H141666   4.566   0.595  11.003  0.0251 -0.2565  0.5657
 6725TIP3    H241667   4.504   0.536  10.878  2.4848 -1.4580 -0.1191
 6726TIP3   OH241668   6.388   0.265  15.254 -0.1753 -0.2647  0.3763
 6726TIP3    H141669   6.352   0.320  15.184  0.1350  0.5103  0.8132
 6726TIP3    H241670   6.397   0.178  15.215 -1.5809 -0.2299 -0.0329
 6727TIP3   OH241671   3.129   2.732   3.328 -0.2428  0.2153  0.0109
 6727TIP3    H141672   3.219   2.743   3.298 -0.8297  0.8097 -1.5563
 6727TIP3    H241673   3.131   2.764   3.418  1.3018 -0.6282  0.3125
 6728TIP3   OH241674   6.650   3.173   3.353  0.4221 -0.3494  0.7029
 6728TIP3    H141675   6.703   3.173   3.273 -0.2165  0.3948  0.2724
 6728TIP3    H241676   6.571   3.125   3.329 -0.7896  1.8201  0.1784
 6729TIP3   OH241677   4.201   5.125  11.260  0.1777  0.0098  0.0945
 6729TIP3    H141678   4.170   5.213  11.238 -0.7143 -0.0109  1.2452
 6729TIP3    H241679   4.122   5.076  11.281  0.4914 -1.5414 -2.0878
 6730TIP3   OH241680   4.487   2.648   0.388 -0.8440 -0.0572 -0.6608
 6730TIP3    H141681   4.575   2.613   0.372 -0.6969  0.5125 -1.1202
 6730TIP3    H241682   4.438   2.626   0.309 -0.5834  1.2933 -1.2124
 6731TIP3   OH241683   1.669   0.253   6.270  0.1876 -0.4543 -0.5383
 6731TIP3    H141684   1.636   0.172   6.232 -2.5815  0.6197 -0.5190
 6731TIP3    H241685   1.670   0.316   6.198  0.5916 -0.0149 -0.1629
 6732TIP3   OH241686   1.855   4.869  14.469  0.1414  0.4393  0.4037
 6732TIP3    H141687   1.888   4.791  14.425  0.1322  0.3373  0.5775
 6732TIP3    H241688   1.771   4.842  14.506  0.4236  0.3528  0.9927
 6733TIP3   OH241689   1.067   2.119  11.505  0.1268 -0.2220  0.3118
 6733TIP3    H141690   1.091   2.194  11.559  0.7139 -0.3868  0.2796
 6733TIP3    H241691   1.109   2.135  11.421  0.6929 -0.8478  0.4729
 6734TIP3   OH241692   6.269   0.345  12.606 -0.0524  0.3239 -0.3272
 6734TIP3    H141693   6.221   0.357  12.688 -1.4399 -1.5679 -0.8120
 6734TIP3    H241694   6.203   0.313  12.544  1.9287 -3.0198 -0.8499
 6735TIP3   OH241695   1.960   5.449   2.250 -0.5316 -0.3642 -0.0537
 6735TIP3    H141696   2.003   5.501   2.183  0.5460 -1.0928  0.0580
 6735TIP3    H241697   2.004   5.474   2.332 -1.2713 -0.0863  0.2613
 6736TIP3   OH241698   1.286   2.303   2.031 -0.3850  0.2632 -0.5705
 6736TIP3    H141699   1.296   2.347   1.946  0.1078 -0.8326 -1.0898
 6736TIP3    H241700   1.242   2.220   2.010 -1.3035  0.5059  0.3978
 6737TIP3   OH241701   3.862   3.210   6.010  0.6974 -0.0168  0.5118
 6737TIP3    H141702   3.905   3.233   6.092  0.1679  2.5951  0.0808
 6737TIP3    H241703   3.809   3.133   6.032 -0.2188  1.2276  2.8930
 6738TIP3   OH241704   1.328   0.859   3.661  0.0014  0.2951 -0.3058
 6738TIP3    H141705   1.337   0.869   3.755 -0.6372 -1.4733 -0.0348
 6738TIP3    H241706   1.238   0.827   3.649 -0.1341  1.1061 -1.5589
 6739TIP3   OH241707   3.662   2.603  12.860 -0.2310  0.6505 -0.2769
 6739TIP3    H141708   3.606   2.598  12.783 -0.3863 -0.7588 -0.0997
 6739TIP3    H241709   3.708   2.518  12.861 -0.0895  0.7331  1.0603
 6740TIP3   OH241710   3.475   0.422   5.887 -0.1322  0.4630 -0.2699
 6740TIP3    H141711   3.553   0.404   5.835 -0.3191  0.2084 -0.4658
 6740TIP3    H241712   3.443   0.506   5.854  0.0698  0.5766 -0.1752
 6741TIP3   OH241713   5.316   3.237  16.765  0.3000  0.2224 -0.2142
 6741TIP3    H141714   5.382   3.208  16.702  0.2750 -0.9500  0.2856
 6741TIP3    H241715   5.352   3.211  16.850 -0.4426  0.3041  0.1229
 6742TIP3   OH241716   1.494   4.039   5.447  0.1736  0.2799 -0.4933
 6742TIP3    H141717   1.423   3.975   5.456  0.6879 -0.2141  0.1256
 6742TIP3    H241718   1.570   3.988   5.418  0.5413  0.6392 -0.1763
 6743TIP3   OH241719   0.081   2.243   4.581 -0.2948  0.3417  0.2296
 6743TIP3    H141720   0.078   2.305   4.508  1.2156  0.3496  0.1668
 6743TIP3    H241721   0.173   2.219   4.588 -0.4954  0.0267  1.8838
 6744TIP3   OH241722   3.758   1.079   6.444 -0.2997 -0.0543  0.4018
 6744TIP3    H141723   3.713   1.086   6.528  0.6361  1.8756  0.7717
 6744TIP3    H241724   3.816   1.004   6.453 -1.3715 -0.8222  0.9169
 6745TIP3   OH241725   1.913   4.199   0.916 -0.6100 -0.5416  0.0402
 6745TIP3    H141726   1.918   4.125   0.977  0.3344 -1.3107 -0.9668
 6745TIP3    H241727   1.893   4.160   0.832 -4.0535  0.7100  0.2089
 6746TIP3   OH241728   4.518   6.077   1.187 -0.6567  0.3718 -0.0406
 6746TIP3    H141729   4.511   6.135   1.111 -0.9228  0.5311  0.1073
 6746TIP3    H241730   4.563   6.130   1.253 -2.0733  0.8500  0.5468
 6747TIP3   OH241731   2.577   2.955  14.161  0.0139  0.2522 -0.2082
 6747TIP3    H141732   2.641   3.013  14.120  1.1348  0.4286  1.7187
 6747TIP3    H241733   2.598   2.868  14.128 -0.0530  0.5873 -1.1431
 6748TIP3   OH241734   4.454   4.787  17.062 -0.1007  0.3370 -0.6534
 6748TIP3    H141735   4.492   4.797  17.149 -1.1998 -1.5019  0.0874
 6748TIP3    H241736   4.439   4.693  17.054  0.4479  0.4448 -3.0399
 6749TIP3   OH241737   5.454   0.093   2.922  0.2964  0.8115  0.1168
 6749TIP3    H141738   5.365   0.095   2.886 -0.1221 -0.2568  1.0523
 6749TIP3    H241739   5.444   0.048   3.006  1.7581  0.5246  0.1391
 6750TIP3   OH241740   6.760   0.588  15.021  0.2923  0.0156 -0.5080
 6750TIP3    H141741   6.722   0.674  15.001 -1.1680 -0.4800  0.1003
 6750TIP3    H241742   6.846   0.608  15.059 -0.4042  1.2522  0.4509
 6751TIP3   OH241743   5.476   2.527   3.726  0.2309 -0.4729  0.4766
 6751TIP3    H141744   5.425   2.529   3.807 -0.7495  0.8090 -0.1625
 6751TIP3    H241745   5.567   2.534   3.755 -0.1089 -0.0304  1.4594
 6752TIP3   OH241746   3.518   5.407   6.360  0.3708 -0.5427  0.2116
 6752TIP3    H141747   3.521   5.344   6.288 -2.2367 -0.3969 -0.0870
 6752TIP3    H241748   3.535   5.492   6.319  2.7144 -0.8854  0.4224
 6753TIP3   OH241749   2.318   6.224  13.581 -0.0051  0.2014  0.2036
 6753TIP3    H141750   2.379   6.162  13.541 -0.4565 -0.8526  1.1035
 6753TIP3    H241751   2.237   6.214  13.531  0.0767  0.4345  0.0251
 6754TIP3   OH241752   4.947   3.562  17.081 -0.4395 -0.2174 -0.7085
 6754TIP3    H141753   4.874   3.528  17.133 -0.1399  0.2208 -0.0086
 6754TIP3    H241754   5.016   3.496  17.090 -0.1654  0.1573 -0.0453
 6755TIP3   OH241755   6.605   5.798  14.897  0.3829 -0.0769 -0.4338
 6755TIP3    H141756   6.593   5.788  14.803  1.6907 -1.2721 -0.4925
 6755TIP3    H241757   6.638   5.887  14.908  0.1396  0.0954 -1.1056
 6756TIP3   OH241758   0.222   3.643  14.106  0.3547  0.3749  0.4165
 6756TIP3    H141759   0.241   3.631  14.199 -0.5484 -1.4408  0.3953
 6756TIP3    H241760   0.304   3.674  14.069  0.9013  0.5170  1.7062
 6757TIP3   OH241761   3.185   4.931   5.435  0.0903 -0.2606  0.0544
 6757TIP3    H141762   3.258   4.870   5.427 -1.7105 -2.6156  0.9795
 6757TIP3    H241763   3.113   4.878   5.470 -2.2205  1.8507 -1.3280
 6758TIP3   OH241764   5.770   4.470   0.503 -0.1944  0.1214 -0.0471
 6758TIP3    H141765   5.733   4.478   0.415 -1.5945  1.8614  0.6754
 6758TIP3    H241766   5.856   4.431   0.489 -0.0569  1.1440 -2.2824
 6759TIP3   OH241767   1.036   0.366  16.637 -0.1374 -0.2333  0.3589
 6759TIP3    H141768   1.100   0.436  16.621 -0.0027 -0.4683 -0.1244
 6759TIP3    H241769   1.078   0.310  16.702  0.1764 -0.4175  0.0007
 6760TIP3   OH241770   6.645   5.465  15.347  0.0269  0.4225 -0.5342
 6760TIP3    H141771   6.669   5.376  15.321 -0.2198 -0.2715  1.4995
 6760TIP3    H241772   6.642   5.514  15.265  0.3725 -1.3911 -1.6648
 6761TIP3   OH241773   4.391   3.828  14.847 -0.5157  0.1387  0.0646
 6761TIP3    H141774   4.434   3.760  14.899 -0.0226  0.7478  0.4607
 6761TIP3    H241775   4.435   3.909  14.872  0.3246  0.3356 -1.9446
 6762TIP3   OH241776   0.994   6.418   5.263  0.4840 -0.3287 -0.1195
 6762TIP3    H141777   0.976   6.468   5.342 -1.5841 -1.2718  0.0331
 6762TIP3    H241778   1.062   6.356   5.288 -0.3729 -0.8205  0.9999
 6763TIP3   OH241779   1.631   0.616   4.672  0.2725 -0.5021  0.0295
 6763TIP3    H141780   1.579   0.547   4.629 -0.5571 -0.2014  0.5257
 6763TIP3    H241781   1.655   0.676   4.602 -1.6959  0.3757  0.0714
 6764TIP3   OH241782   4.212   6.140  15.342  0.6737 -0.2483 -0.3040
 6764TIP3    H141783   4.253   6.099  15.266  0.0532  1.8282 -1.7844
 6764TIP3    H241784   4.280   6.198  15.378  1.1455 -1.6089  1.0858
 6765TIP3   OH241785   3.304   6.358  11.895 -0.2726 -0.1887 -0.2644
 6765TIP3    H141786   3.286   6.419  11.966  0.6473  0.6240 -0.7134
 6765TIP3    H241787   3.225   6.361  11.841 -0.5914 -0.0764  0.2085
 6766TIP3   OH241788   0.790   6.665  15.597 -0.1539  0.2418 -0.0753
 6766TIP3    H141789   0.806   6.760  15.595 -0.8462  0.3425 -2.8324
 6766TIP3    H241790   0.695   6.657  15.606 -0.4319 -0.1107 -2.8742
 6767TIP3   OH241791   0.923   4.593   4.393  0.2648 -0.4378  0.2716
 6767TIP3    H141792   0.995   4.615   4.453  0.2263 -0.9064  0.4890
 6767TIP3    H241793   0.964   4.539   4.326  0.2524 -0.1355  0.0184
 6768TIP3   OH241794   5.201   0.533   2.595 -0.1412 -0.7487  0.1597
 6768TIP3    H141795   5.243   0.619   2.600 -1.4181 -0.0682 -0.5039
 6768TIP3    H241796   5.107   0.552   2.596 -0.4378 -2.1304 -0.1823
 6769TIP3   OH241797   1.412   6.201   5.417  0.2927 -0.0813 -0.0971
 6769TIP3    H141798   1.448   6.239   5.337 -0.2524 -0.5695 -0.5766
 6769TIP3    H241799   1.321   6.181   5.395  0.5234 -1.4835  0.1976
 6770TIP3   OH241800   3.234   5.528   1.231 -0.0097  0.0955 -0.3362
 6770TIP3    H141801   3.272   5.465   1.293 -1.1334  0.8477  1.1485
 6770TIP3    H241802   3.300   5.596   1.222  0.5670 -0.5148 -0.7365
 6771TIP3   OH241803   3.952   5.008  11.303 -0.6598 -0.3102  0.3872
 6771TIP3    H141804   3.945   4.927  11.354  1.0383 -0.6664  0.0890
 6771TIP3    H241805   3.886   4.999  11.234  0.2034 -1.9032 -0.2624
 6772TIP3   OH241806   4.715   0.626  15.793 -0.2940 -0.0650  0.0193
 6772TIP3    H141807   4.725   0.673  15.876 -1.4337  0.4993 -0.1429
 6772TIP3    H241808   4.785   0.660  15.737  0.4936 -0.4639  0.7474
 6773TIP3   OH241809   2.211   1.664   0.370  0.4306 -0.4193  0.1682
 6773TIP3    H141810   2.207   1.683   0.463 -0.2788 -0.9517  0.2537
 6773TIP3    H241811   2.134   1.609   0.353 -0.6088  1.3694 -1.1187
 6774TIP3   OH241812   2.198   5.135  15.178 -0.0278  0.2648 -0.0773
 6774TIP3    H141813   2.119   5.115  15.129  0.8523 -1.1684 -0.9562
 6774TIP3    H241814   2.265   5.151  15.111  0.0475  3.2296  0.6251
 6775TIP3   OH241815   3.412   3.423  15.812  0.2430 -0.4344 -0.5271
 6775TIP3    H141816   3.502   3.405  15.839  1.7621  2.9688 -2.9861
 6775TIP3    H241817   3.404   3.382  15.726 -0.7957 -1.2062 -0.0786
 6776TIP3   OH241818   4.124   0.927   5.618  0.4065 -0.1876  0.1743
 6776TIP3    H141819   4.111   0.883   5.702  0.1739 -0.5541 -0.0510
 6776TIP3    H241820   4.104   1.018   5.635  0.4009 -0.2539  0.5264
 6777TIP3   OH241821   4.204   5.554   5.362 -0.7335 -0.3168  0.0778
 6777TIP3    H141822   4.230   5.463   5.350 -2.3500 -0.7219 -0.4194
 6777TIP3    H241823   4.232   5.598   5.281 -0.5629 -0.5080  0.0335
 6778TIP3   OH241824   6.283   2.025  11.780  0.3645  0.1016  0.1599
 6778TIP3    H141825   6.336   1.958  11.737  1.6957  1.8197 -0.9340
 6778TIP3    H241826   6.337   2.054  11.854 -0.7745 -0.9245  1.4376
 6779TIP3   OH241827   6.121   0.497   4.835 -0.1632 -0.3761  0.9499
 6779TIP3    H141828   6.178   0.570   4.811  0.7325 -1.2329  0.4522
 6779TIP3    H241829   6.044   0.539   4.874  0.7514  0.7973  1.5362
 6780TIP3   OH241830   5.653   1.365   5.056 -0.0233 -0.2150 -0.1635
 6780TIP3    H141831   5.626   1.383   4.966 -0.9008 -0.6213  0.0108
 6780TIP3    H241832   5.584   1.406   5.109  0.0420 -0.7063  0.3018
 6781TIP3   OH241833   5.065   0.728  16.520  0.4142 -0.3831  0.0564
 6781TIP3    H141834   5.126   0.655  16.513  1.5569  0.6265 -0.8972
 6781TIP3    H241835   5.031   0.739  16.431  0.4760  0.4132  0.1292
 6782TIP3   OH241836   0.495   0.795   2.406  0.1830 -0.2020 -0.3644
 6782TIP3    H141837   0.446   0.714   2.390  0.8201 -1.3207  2.9116
 6782TIP3    H241838   0.433   0.865   2.385 -1.8230 -1.5679  0.8363
 6783TIP3   OH241839   2.217   5.223   1.854 -0.8413 -0.1437 -1.1367
 6783TIP3    H141840   2.170   5.256   1.777 -1.0272  0.4512 -0.7669
 6783TIP3    H241841   2.258   5.300   1.893 -0.1103 -0.5560 -1.0664
 6784TIP3   OH241842   1.353   5.871  15.884 -0.3072  0.0309 -0.2139
 6784TIP3    H141843   1.386   5.814  15.814 -0.1347 -1.0827  0.7666
 6784TIP3    H241844   1.334   5.812  15.957  0.7279  1.3304  1.1375
 6785TIP3   OH241845   6.661   6.546  16.467  0.4746 -0.0062  0.0203
 6785TIP3    H141846   6.744   6.508  16.440 -0.9359 -0.9824 -3.1710
 6785TIP3    H241847   6.679   6.640  16.478  1.9502 -0.1933 -0.7669
 6786TIP3   OH241848   0.064   3.415  15.901  0.2763 -0.1461 -0.0301
 6786TIP3    H141849   0.019   3.370  15.830 -1.3012 -0.0605  0.8845
 6786TIP3    H241850   0.121   3.479  15.857  2.0776 -2.5626 -1.3114
 6787TIP3   OH241851   2.930   5.473  12.815 -0.1855 -0.2534 -0.2016
 6787TIP3    H141852   2.921   5.568  12.814 -1.3694 -0.3617 -2.1367
 6787TIP3    H241853   2.903   5.447  12.903  1.0992  1.2716  0.6640
 6788TIP3   OH241854   4.535   0.193   4.481  0.8540  0.0679 -0.3485
 6788TIP3    H141855   4.578   0.149   4.408  2.4781  1.1578 -0.0707
 6788TIP3    H241856   4.533   0.126   4.550 -0.3972 -0.8564 -1.2527
 6789TIP3   OH241857   5.492   2.797  12.820 -0.0532  0.2306  0.0271
 6789TIP3    H141858   5.397   2.797  12.811  0.0328  1.1881 -0.9507
 6789TIP3    H241859   5.520   2.877  12.776  1.1654  0.2047  0.7484
 6790TIP3   OH241860   2.033   4.030   6.153 -0.5991 -0.6730  0.2045
 6790TIP3    H141861   2.020   3.940   6.182 -0.4574 -0.7895 -0.0950
 6790TIP3    H241862   2.102   4.064   6.209 -0.2292 -0.9408 -0.0889
 6791TIP3   OH241863   2.400   2.039  14.994  0.1877 -0.7204 -0.6431
 6791TIP3    H141864   2.427   1.951  14.970 -2.6185 -1.2950 -1.8085
 6791TIP3    H241865   2.373   2.033  15.086 -0.1952 -1.0957 -0.7853
 6792TIP3   OH241866   1.105   0.920   1.843  0.5446 -0.2486  0.6716
 6792TIP3    H141867   1.036   0.862   1.877 -0.0975  0.6055  0.8293
 6792TIP3    H241868   1.166   0.928   1.916 -0.0924  0.4153  1.1352
 6793TIP3   OH241869   2.017   1.709  14.852 -0.0640  0.1486  0.1075
 6793TIP3    H141870   2.060   1.669  14.777 -1.8790  0.3110 -1.0601
 6793TIP3    H241871   2.027   1.803  14.838  0.8514  0.1650  0.8363
 6794TIP3   OH241872   0.341   1.860  10.303 -0.2403  0.2274 -0.0137
 6794TIP3    H141873   0.430   1.827  10.297 -1.1145 -2.1426 -0.4346
 6794TIP3    H241874   0.350   1.944  10.348  1.8687 -1.4615  2.9210
 6795TIP3   OH241875   0.848   3.999   1.330 -0.6672 -0.1319  0.1616
 6795TIP3    H141876   0.888   4.074   1.286  1.0277  0.2294  2.2427
 6795TIP3    H241877   0.841   4.025   1.421 -1.5004 -1.9334  0.6479
 6796TIP3   OH241878   6.574   1.063  10.245 -0.6524  0.6245  0.2892
 6796TIP3    H141879   6.569   0.967  10.253 -2.0530  0.8607  2.4699
 6796TIP3    H241880   6.668   1.081  10.237 -0.1834 -0.7718  2.2175
 6797TIP3   OH241881   4.219   3.722  12.746  0.2156  0.6861  0.0440
 6797TIP3    H141882   4.162   3.798  12.727 -1.1488 -0.5482 -0.9351
 6797TIP3    H241883   4.253   3.696  12.660  0.0314 -0.3071  0.2688
 6798TIP3   OH241884   3.224   4.161   2.539 -0.1294  0.0272  0.3916
 6798TIP3    H141885   3.168   4.238   2.537  1.4534  1.2493  1.8025
 6798TIP3    H241886   3.277   4.171   2.617  1.3688 -1.6043 -0.3644
 6799TIP3   OH241887   2.591   0.517   5.771  0.4356  0.0631  0.5890
 6799TIP3    H141888   2.535   0.562   5.835  1.9926 -1.2686  2.9525
 6799TIP3    H241889   2.668   0.574   5.763  1.2559 -0.8717  1.6508
 6800TIP3   OH241890   1.403   2.889  16.809  0.0557  0.0697 -0.3639
 6800TIP3    H141891   1.473   2.877  16.744  0.4547 -1.3966  0.3010
 6800TIP3    H241892   1.423   2.824  16.877 -0.8173  1.0350  0.8247
 6801TIP3   OH241893   4.368   3.169   0.646 -0.6067 -0.0756  0.2138
 6801TIP3    H141894   4.390   3.165   0.739 -1.4456 -1.2202  0.3815
 6801TIP3    H241895   4.452   3.168   0.601 -0.1981  0.4025  0.9628
 6802TIP3   OH241896   0.561   4.378  12.358  0.8821 -0.1449 -0.5403
 6802TIP3    H141897   0.627   4.314  12.329  0.5528 -0.8464  0.2352
 6802TIP3    H241898   0.529   4.343  12.441  1.6341  1.7309  0.5681
 6803TIP3   OH241899   0.344   0.046   0.837  0.0397 -0.0696 -0.1508
 6803TIP3    H141900   0.383   0.116   0.784 -1.3885  0.0999 -1.0199
 6803TIP3    H241901   0.347  -0.031   0.780 -1.8373  0.1979 -0.6421
 6804TIP3   OH241902   6.320   4.613   1.767  0.4124  0.0216 -0.5685
 6804TIP3    H141903   6.273   4.677   1.714 -1.1791 -0.1058  0.6624
 6804TIP3    H241904   6.354   4.550   1.703  0.6209  1.2033 -1.6406
 6805TIP3   OH241905   6.535   1.402   5.676  0.4455 -0.1846  0.4310
 6805TIP3    H141906   6.588   1.437   5.748 -0.7059 -0.6013  1.5010
 6805TIP3    H241907   6.518   1.311   5.702 -0.3066 -0.2212 -0.1884
 6806TIP3   OH241908   2.532   4.068   4.373 -0.1302  0.1794 -0.3570
 6806TIP3    H141909   2.616   4.109   4.394 -1.2313  1.2653  2.1091
 6806TIP3    H241910   2.486   4.133   4.320  0.8682 -0.7497 -2.4264
 6807TIP3   OH241911   2.809   2.061   3.910 -0.4745  0.2361 -0.1349
 6807TIP3    H141912   2.848   2.126   3.969 -2.7497  0.4148  1.2372
 6807TIP3    H241913   2.845   1.977   3.941  1.8596  0.7406 -1.4161
 6808TIP3   OH241914   4.621   3.454   1.695 -0.6377  0.0564  0.1606
 6808TIP3    H141915   4.598   3.367   1.662 -1.0802  0.5117 -0.7425
 6808TIP3    H241916   4.561   3.469   1.768 -1.6401  0.2705 -0.7069
 6809TIP3   OH241917   4.537   1.651   1.243 -0.5833 -0.0908 -1.2241
 6809TIP3    H141918   4.609   1.708   1.270  0.2931  0.5940 -4.7486
 6809TIP3    H241919   4.471   1.710   1.206 -0.6118 -1.1166 -2.8931
 6810TIP3   OH241920   1.932   1.575   0.346  0.4555  0.1387 -0.2470
 6810TIP3    H141921   1.883   1.636   0.291 -0.4138  1.1984  1.6744
 6810TIP3    H241922   1.883   1.572   0.428  0.6259 -2.9474 -0.2008
 6811TIP3   OH241923   6.396   0.461   0.403  0.1374 -0.1212  0.4273
 6811TIP3    H141924   6.487   0.480   0.384 -0.0803  0.3873 -0.1120
 6811TIP3    H241925   6.350   0.544   0.390 -0.3757 -0.3288  0.8611
 6812TIP3   OH241926   3.675   2.226   1.984  0.4267  0.9395  0.2142
 6812TIP3    H141927   3.677   2.137   1.948 -2.4246  0.9759 -0.1148
 6812TIP3    H241928   3.767   2.253   1.985  1.5200 -2.5507  1.7033
 6813TIP3   OH241929   3.301   0.410  11.633  0.2156  0.6043  0.5884
 6813TIP3    H141930   3.358   0.411  11.710  0.6443  0.6565  0.2748
 6813TIP3    H241931   3.269   0.500  11.626  1.2256  0.9171 -0.0651
 6814TIP3   OH241932   6.080   5.879  15.546  0.0828 -0.1385  0.3500
 6814TIP3    H141933   6.164   5.923  15.534 -1.2704  2.4521 -0.0367
 6814TIP3    H241934   6.034   5.892  15.462 -0.9140 -1.0651  0.7373
 6815TIP3   OH241935   6.494   5.131   1.788 -0.5857  0.1136 -0.0363
 6815TIP3    H141936   6.554   5.093   1.724  0.5564  1.5128  0.1787
 6815TIP3    H241937   6.413   5.145   1.739 -0.7530 -1.7442 -0.3445
 6816TIP3   OH241938   6.643   6.112  17.219 -0.5785  0.1964  0.0105
 6816TIP3    H141939   6.600   6.162  17.149  0.2061 -0.6445 -1.0854
 6816TIP3    H241940   6.687   6.178  17.272 -0.3493  0.7606 -0.8711
 6817TIP3   OH241941   3.509   3.155  10.864 -0.1680 -0.1680  0.3144
 6817TIP3    H141942   3.553   3.217  10.923 -0.2985  0.9400 -0.7374
 6817TIP3    H241943   3.442   3.114  10.919  0.7186 -0.2676  1.3470
 6818TIP3   OH241944   2.333   3.932  10.499  0.7595 -0.4089 -0.1020
 6818TIP3    H141945   2.300   3.980  10.576  0.9103 -0.1573 -0.1945
 6818TIP3    H241946   2.254   3.904  10.453  0.6666 -0.7800  0.2828
 6819TIP3   OH241947   4.968   5.618   2.847  0.2140 -0.0760  0.1953
 6819TIP3    H141948   5.028   5.612   2.922  0.0195 -2.4590  0.1819
 6819TIP3    H241949   4.917   5.697   2.864  1.2330  0.2610  1.7966
 6820TIP3   OH241950   1.099   1.420   4.334 -0.1471 -0.5131 -0.2627
 6820TIP3    H141951   1.008   1.433   4.362 -0.4861 -0.7203 -1.2662
 6820TIP3    H241952   1.114   1.326   4.345 -0.3463 -0.6283 -0.9744
 6821TIP3   OH241953   5.104   3.310  13.294  0.2739 -0.2033 -0.8260
 6821TIP3    H141954   5.097   3.289  13.387  0.8088 -1.4791 -1.0639
 6821TIP3    H241955   5.050   3.388  13.283 -1.4367 -1.2078  0.1758
 6822TIP3   OH241956   4.207   4.080   5.649 -0.7970 -0.4395  0.0829
 6822TIP3    H141957   4.163   4.022   5.586 -0.8711  2.2383 -2.4461
 6822TIP3    H241958   4.287   4.033   5.673 -1.1755 -1.9117 -1.4329
 6823TIP3   OH241959   6.218   6.398   2.831  0.6826 -0.1087  0.3516
 6823TIP3    H141960   6.169   6.470   2.793  0.0657  0.1209  1.5347
 6823TIP3    H241961   6.156   6.325   2.832  1.5858 -0.9386 -1.6765
 6824TIP3   OH241962   3.875   5.798   5.669 -0.4227 -0.4644 -0.1388
 6824TIP3    H141963   3.888   5.742   5.592  2.5865 -1.1997  0.8319
 6824TIP3    H241964   3.962   5.832   5.689 -1.3696  0.6816  2.2190
 6825TIP3   OH241965   3.033   3.031  17.145 -0.6656 -0.4179  0.2220
 6825TIP3    H141966   2.952   2.991  17.112 -1.2048  1.8923 -1.3374
 6825TIP3    H241967   3.034   3.008  17.238 -1.8903 -2.4658 -0.2372
 6826TIP3   OH241968   2.885   6.109   4.745  0.4578  0.1122 -0.2331
 6826TIP3    H141969   2.978   6.125   4.728  0.0536  0.0323 -2.7829
 6826TIP3    H241970   2.844   6.195   4.737  0.3007  0.1537  0.9264
 6827TIP3   OH241971   6.447   2.104  16.632  0.8355  0.6640 -0.6713
 6827TIP3    H141972   6.442   2.142  16.719 -2.5184  0.2341 -0.6081
 6827TIP3    H241973   6.431   2.010  16.646  1.9188  0.3328 -1.5811
 6828TIP3   OH241974   0.756   0.024  15.329  0.1531 -0.0418  0.1947
 6828TIP3    H141975   0.733  -0.068  15.337 -1.4392  0.4912  2.1563
 6828TIP3    H241976   0.771   0.053  15.419  0.1875  1.7199 -0.3571
 6829TIP3   OH241977   1.431   2.338   3.969  0.9380 -0.7862 -0.6620
 6829TIP3    H141978   1.367   2.402   4.001  2.0700  0.4459 -0.7766
 6829TIP3    H241979   1.411   2.258   4.017 -0.7051 -0.4315 -0.7304
 6830TIP3   OH241980   5.984   5.200  15.337  0.1936 -0.1122  0.3700
 6830TIP3    H141981   6.020   5.260  15.271 -0.2163  0.7049  0.8932
 6830TIP3    H241982   5.967   5.119  15.288  0.4895  0.2775 -0.3897
 6831TIP3   OH241983   0.373   3.440   5.567  0.1894 -0.1005 -0.3959
 6831TIP3    H141984   0.401   3.531   5.558  2.1325 -0.6962 -0.6980
 6831TIP3    H241985   0.330   3.436   5.652  1.0156  0.8892  0.0811
 6832TIP3   OH241986   6.299   2.421   3.909 -0.7705  0.4102  0.0241
 6832TIP3    H141987   6.346   2.490   3.955 -1.0097  0.9017 -0.4614
 6832TIP3    H241988   6.263   2.366   3.978  1.3758 -0.5649  0.4081
 6833TIP3   OH241989   6.256   3.041  12.750 -0.4208 -0.6837 -0.3752
 6833TIP3    H141990   6.332   3.076  12.798 -0.9365 -1.5579  1.1076
 6833TIP3    H241991   6.292   3.012  12.666  0.6455  0.1181 -0.2091
 6834TIP3   OH241992   2.011   4.786   1.004  0.1005  0.6639  0.0465
 6834TIP3    H141993   2.046   4.715   0.949  0.7267  0.5890  0.5393
 6834TIP3    H241994   2.016   4.752   1.093  1.2069  1.6565  0.3699
 6835TIP3   OH241995   3.480   0.113  17.245 -0.1286  0.6432 -0.5931
 6835TIP3    H141996   3.424   0.150  17.177 -0.7649 -0.4425 -0.6740
 6835TIP3    H241997   3.458   0.163  17.324 -0.5180  0.8693 -0.8411
 6836TIP3   OH241998   1.521   1.361  17.282 -0.0011  0.3177 -0.1103
 6836TIP3    H141999   1.486   1.367  17.371 -0.5840 -0.4308 -0.2794
 6836TIP3    H242000   1.561   1.274  17.279  0.5621  0.5916 -0.3836
 6837TIP3   OH242001   1.757   5.821   3.182  0.4972  0.0324  0.6184
 6837TIP3    H142002   1.779   5.787   3.269  0.3551  0.4535  0.8197
 6837TIP3    H242003   1.838   5.858   3.149  0.7878 -0.9660  0.1771
 6838TIP3   OH242004   5.484   5.396   5.180 -0.1720  0.1119  0.0815
 6838TIP3    H142005   5.551   5.460   5.205 -0.8974  0.2193  1.8875
 6838TIP3    H242006   5.466   5.414   5.088 -1.5664  3.6980  0.9634
 6839TIP3   OH242007   2.705   1.866  11.949  0.0830 -0.3242  0.4954
 6839TIP3    H142008   2.761   1.940  11.924  0.0752  0.1499  1.8366
 6839TIP3    H242009   2.762   1.807  11.998 -0.1064 -0.8173  0.1279
 6840TIP3   OH242010   4.222   1.626   3.490 -0.3638  0.5503 -0.5599
 6840TIP3    H142011   4.166   1.568   3.438 -1.2529  0.8605  0.0367
 6840TIP3    H242012   4.243   1.698   3.431 -0.3064  0.2609 -0.8977
 6841TIP3   OH242013   2.783   0.333  13.581 -0.1757  0.3878  0.7529
 6841TIP3    H142014   2.807   0.242  13.597  0.9165  0.8440  1.8304
 6841TIP3    H242015   2.690   0.330  13.562 -0.5239 -0.7955  2.4693
 6842TIP3   OH242016   0.692   4.322   4.696  0.0267 -0.1516 -0.3454
 6842TIP3    H142017   0.724   4.298   4.609  1.4239 -1.5059  0.5027
 6842TIP3    H242018   0.682   4.417   4.692 -2.4474 -0.4578 -2.7757
 6843TIP3   OH242019   4.956   2.936   3.545  0.4524 -0.2879  0.7310
 6843TIP3    H142020   5.051   2.934   3.559  0.3862  1.0759  1.4801
 6843TIP3    H242021   4.935   3.029   3.538 -0.9205 -0.5542  1.1480
 6844TIP3   OH242022   5.235   6.138  12.341  0.2429  0.4120 -0.0790
 6844TIP3    H142023   5.156   6.156  12.291  1.6630  0.7998 -2.2354
 6844TIP3    H242024   5.280   6.222  12.347 -0.1615  0.4874  2.3636
 6845TIP3   OH242025   5.152   1.982  11.294 -0.0242 -0.1778  0.2304
 6845TIP3    H142026   5.075   1.997  11.239  0.5945 -0.5585 -0.7525
 6845TIP3    H242027   5.116   1.947  11.376 -0.8175 -1.4627 -0.6446
 6846TIP3   OH242028   3.591   0.337   2.360 -0.0051 -0.1670  0.0337
 6846TIP3    H142029   3.566   0.377   2.444 -1.0385 -0.7630  0.0152
 6846TIP3    H242030   3.540   0.256   2.356  1.2622 -0.9479 -0.4301
 6847TIP3   OH242031   4.533   0.169   5.336  0.2123  0.1406  0.0044
 6847TIP3    H142032   4.536   0.111   5.259 -1.1806 -0.4161  0.3516
 6847TIP3    H242033   4.580   0.247   5.309 -1.6194  0.6027 -1.9794
 6848TIP3   OH242034   2.423   0.615  13.554  0.1308  0.2788  0.2012
 6848TIP3    H142035   2.497   0.646  13.606  0.3403  0.1215 -0.0005
 6848TIP3    H242036   2.383   0.547  13.608  0.6424 -0.2288 -0.0475
 6849TIP3   OH242037   5.446   6.005   6.430  0.1717 -0.0597 -0.2277
 6849TIP3    H142038   5.361   6.024   6.469  0.0785 -0.0079 -0.4607
 6849TIP3    H242039   5.508   6.057   6.482 -0.1900  1.6380 -1.4736
 6850TIP3   OH242040   0.581   4.517   1.520  0.5482  0.2689  0.4361
 6850TIP3    H142041   0.667   4.538   1.484  0.8663  0.5054  1.3257
 6850TIP3    H242042   0.520   4.566   1.464  0.9972  0.2738 -0.0621
 6851TIP3   OH242043   0.305   4.129  14.293  0.3850  0.2882  1.2287
 6851TIP3    H142044   0.317   4.046  14.341 -1.7564 -1.1190 -0.5674
 6851TIP3    H242045   0.309   4.196  14.361 -1.0074 -1.5342  3.1765
 6852TIP3   OH242046   5.372   1.587  14.382  0.0153  0.3055  0.0869
 6852TIP3    H142047   5.312   1.644  14.430  0.0438 -0.1783  0.6981
 6852TIP3    H242048   5.319   1.510  14.359 -0.9912  2.0125 -3.6764
 6853TIP3   OH242049   3.272   3.945   4.689  0.1007 -0.1122 -0.5580
 6853TIP3    H142050   3.240   4.020   4.638  0.7137 -1.8388 -3.6233
 6853TIP3    H242051   3.210   3.875   4.670  1.2496 -1.2353 -0.1909
 6854TIP3   OH242052   0.950   5.726   0.630  0.1088  0.3286  0.0052
 6854TIP3    H142053   1.045   5.733   0.619  0.1716 -1.3758 -0.6594
 6854TIP3    H242054   0.919   5.816   0.620  1.6378  0.8941  0.1236
 6855TIP3   OH242055   6.487   6.021  12.562  0.1931 -0.4423 -0.0217
 6855TIP3    H142056   6.493   6.112  12.592  0.0893 -1.0751  1.9854
 6855TIP3    H242057   6.394   6.000  12.567  0.1830 -0.5897 -0.7329
 6856TIP3   OH242058   1.801   5.104  13.677 -0.1949 -0.4643 -0.2119
 6856TIP3    H142059   1.886   5.060  13.670 -0.6309 -1.3104 -0.2970
 6856TIP3    H242060   1.740   5.034  13.696 -0.4309  0.5661  3.0361
 6857TIP3   OH242061   5.841   6.100  13.099 -0.5869 -0.1049  0.3513
 6857TIP3    H142062   5.898   6.040  13.147 -2.3239 -2.7548 -0.7372
 6857TIP3    H242063   5.899   6.143  13.036  0.4947 -1.5994  0.2880
 6858TIP3   OH242064   0.188   6.045  12.913 -0.5683  0.1436  0.3289
 6858TIP3    H142065   0.147   6.033  12.998 -0.4357 -1.3017  0.1997
 6858TIP3    H242066   0.128   6.003  12.851  1.0463 -1.9502  0.1314
 6859TIP3   OH242067   5.371   0.656  12.629  0.1531 -0.0057  0.4673
 6859TIP3    H142068   5.326   0.740  12.619 -0.8157 -0.5643 -0.0136
 6859TIP3    H242069   5.335   0.602  12.559  0.7456 -0.8295  0.7937
 6860TIP3   OH242070   1.950   0.998  15.693 -0.5682  0.2186 -0.0278
 6860TIP3    H142071   1.993   0.917  15.721 -1.3258 -0.3556 -0.4978
 6860TIP3    H242072   1.864   0.970  15.662 -0.4742  1.0877 -1.0942
 6861TIP3   OH242073   1.231   0.292   2.999  0.0980  0.3017 -0.1685
 6861TIP3    H142074   1.191   0.372   3.032 -2.1819 -0.4640 -0.9872
 6861TIP3    H242075   1.211   0.291   2.906  0.3606 -1.0778 -0.2275
 6862TIP3   OH242076   1.002   3.229  16.555 -0.0369 -0.1721 -0.2973
 6862TIP3    H142077   1.002   3.194  16.466 -0.3099  0.8190 -0.6940
 6862TIP3    H242078   1.066   3.176  16.602  0.3354 -0.5015 -1.1656
 6863TIP3   OH242079   5.220   0.952  11.356  0.2886 -0.3359  0.3671
 6863TIP3    H142080   5.161   0.902  11.299  0.4419 -1.3348  1.0722
 6863TIP3    H242081   5.306   0.912  11.342  0.7457  0.9179 -0.4264
 6864TIP3   OH242082   6.017   5.585   1.048  0.2154 -0.1889  0.2367
 6864TIP3    H142083   6.110   5.560   1.047  0.7163  1.5737 -0.0834
 6864TIP3    H242084   6.012   5.659   0.987 -1.5124 -0.6185 -0.1552
 6865TIP3   OH242085   5.863   2.300   3.780  0.3270 -0.2028 -0.6816
 6865TIP3    H142086   5.921   2.225   3.788  0.0092 -0.6448 -2.3136
 6865TIP3    H242087   5.907   2.371   3.827  2.3134 -0.4505 -2.1144
 6866TIP3   OH242088   1.235   1.733  16.626  0.4058  0.2164  0.3216
 6866TIP3    H142089   1.164   1.758  16.686  1.3391  2.0742  0.7095
 6866TIP3    H242090   1.190   1.704  16.547 -0.8179 -0.5796  1.2928
 6867TIP3   OH242091   4.364   5.564   2.675  0.9024 -0.1807 -0.1598
 6867TIP3    H142092   4.292   5.624   2.654 -0.7936 -2.0362  0.1720
 6867TIP3    H242093   4.441   5.605   2.636 -0.0802  2.5356  0.6217
 6868TIP3   OH242094   1.633   1.781   2.715 -0.1402  0.2573  0.4029
 6868TIP3    H142095   1.542   1.781   2.685 -0.2426 -0.7870  0.7085
 6868TIP3    H242096   1.678   1.720   2.657 -0.0645 -0.7674  1.5197
 6869TIP3   OH242097   5.540   5.554  11.246  0.1623  0.5962 -0.8164
 6869TIP3    H142098   5.576   5.572  11.333 -0.2689 -2.3821  0.0408
 6869TIP3    H242099   5.563   5.631  11.194  0.8353  2.2285  1.7984
 6870TIP3   OH242100   2.427   1.502  12.295  0.2355 -0.1913  0.1407
 6870TIP3    H142101   2.409   1.528  12.204  2.0387  2.1327  0.3928
 6870TIP3    H242102   2.414   1.583  12.346  0.1045 -1.2606  1.8296
 6871TIP3   OH242103   4.431   2.243   2.372 -0.2313  0.1961 -0.2775
 6871TIP3    H142104   4.452   2.309   2.438 -1.5014 -1.4554  1.8334
 6871TIP3    H242105   4.481   2.166   2.399 -0.9235 -0.5638 -1.1498
 6872TIP3   OH242106   4.326   1.839   5.676 -0.1735 -0.1212  0.1762
 6872TIP3    H142107   4.405   1.786   5.663 -0.7659 -0.7706 -0.7366
 6872TIP3    H242108   4.313   1.883   5.592 -0.9147 -0.1762  0.2668
 6873TIP3   OH242109   0.981   1.277   0.524  0.2878 -0.2916  0.9626
 6873TIP3    H142110   0.942   1.190   0.539 -1.7668  0.3132 -0.6593
 6873TIP3    H242111   0.928   1.337   0.576 -0.6367  0.4821 -0.8601
 6874TIP3   OH242112   0.925   4.098   3.439  0.4740 -0.5394 -0.1376
 6874TIP3    H142113   0.998   4.049   3.401 -0.3362 -1.5933 -0.3695
 6874TIP3    H242114   0.866   4.030   3.472 -0.6482  0.2923 -0.4347
 6875TIP3   OH242115   2.505   3.567   0.471 -0.0216  0.0258  0.4300
 6875TIP3    H142116   2.560   3.489   0.474  1.7722  1.2716  0.7334
 6875TIP3    H242117   2.500   3.590   0.378 -0.9854 -0.7461  0.2893
 6876TIP3   OH242118   3.549   3.403  11.840 -0.3773  0.0855  0.4685
 6876TIP3    H142119   3.613   3.340  11.808  0.1445 -0.9464  3.4489
 6876TIP3    H242120   3.592   3.488  11.830 -0.3927 -0.1445 -1.8657
 6877TIP3   OH242121   3.289   4.537   4.518  0.7673 -0.1589 -0.1135
 6877TIP3    H142122   3.211   4.532   4.574  0.1539 -0.3642 -0.9665
 6877TIP3    H242123   3.313   4.630   4.518 -0.7458  0.2640 -1.5159
 6878TIP3   OH242124   4.258   1.135   0.228  0.6380  0.2692  0.6365
 6878TIP3    H142125   4.279   1.081   0.304  2.5551  0.1416  0.0515
 6878TIP3    H242126   4.307   1.216   0.242 -0.3037  0.9017  0.3355
 6879TIP3   OH242127   3.996   6.451   2.170  0.4161 -0.4458  0.2101
 6879TIP3    H142128   4.069   6.513   2.166 -0.2827  0.4083  0.4141
 6879TIP3    H242129   3.930   6.488   2.111  0.8387 -2.1552 -1.3695
 6880TIP3   OH242130   1.970   0.405  14.034 -0.0059 -0.0020  0.3694
 6880TIP3    H142131   1.907   0.335  14.052  0.2323 -0.1053  0.8147
 6880TIP3    H242132   1.917   0.485  14.034  0.1049  0.1092  2.4508
 6881TIP3   OH242133   2.899   4.575  16.853  0.1563 -0.6682  0.4219
 6881TIP3    H142134   2.983   4.594  16.895 -0.0547 -2.2817  1.6329
 6881TIP3    H242135   2.878   4.654  16.805  1.5066  0.4174  1.5631
 6882TIP3   OH242136   6.422   6.459  16.602 -0.0457  0.0090 -0.5120
 6882TIP3    H142137   6.358   6.528  16.584  0.6797  0.7596 -0.2628
 6882TIP3    H242138   6.501   6.487  16.554  0.0727 -0.9376 -0.8725
 6883TIP3   OH242139   5.493   1.209   1.958  0.0798 -0.0775  0.0082
 6883TIP3    H142140   5.489   1.135   2.018  0.3164  1.3126  1.7558
 6883TIP3    H242141   5.463   1.284   2.009 -2.1456  0.6987 -2.3197
 6884TIP3   OH242142   5.020   5.189  11.890 -0.1578 -0.4458  0.0205
 6884TIP3    H142143   5.101   5.174  11.940 -0.1040 -2.5039 -0.6050
 6884TIP3    H242144   5.048   5.241  11.815  0.4797 -0.5658  0.1645
 6885TIP3   OH242145   3.270   3.195  14.306  0.2550 -0.7320 -0.1323
 6885TIP3    H142146   3.241   3.132  14.239  0.1280 -1.9543  1.0649
 6885TIP3    H242147   3.207   3.184  14.377  0.5828  0.3440  0.3287
 6886TIP3   OH242148   6.650   0.009  14.111  0.9661 -0.2106 -0.0469
 6886TIP3    H142149   6.641  -0.017  14.019 -0.5732  1.4401 -0.3900
 6886TIP3    H242150   6.578  -0.036  14.156  0.2138  0.9076 -0.1003
 6887TIP3   OH242151   2.639   6.440   3.090 -0.6119  0.2044  0.3451
 6887TIP3    H142152   2.579   6.365   3.089 -0.0150 -0.2759  0.5634
 6887TIP3    H242153   2.641   6.469   2.998 -1.6130  0.5759  0.4355
 6888TIP3   OH242154   3.072   2.007  12.124  0.5371  0.5496  0.0515
 6888TIP3    H142155   3.147   1.947  12.122 -0.3401 -0.6904  2.2064
 6888TIP3    H242156   3.025   1.988  12.043  0.0701 -1.9850  0.8738
 6889TIP3   OH242157   1.283   1.147  17.064 -0.3510 -0.0734  0.0095
 6889TIP3    H142158   1.263   1.107  17.149 -1.7336  0.4034 -0.0810
 6889TIP3    H242159   1.376   1.171  17.070  0.6390 -3.6084 -0.0908
 6890TIP3   OH242160   6.225   1.023   4.828 -0.2024 -0.1772 -0.3947
 6890TIP3    H142161   6.152   1.079   4.856  0.0688  0.5509 -1.1399
 6890TIP3    H242162   6.237   0.962   4.901 -1.7648 -0.5028 -0.3905
 6891TIP3   OH242163   5.436   5.130   5.489  0.0474  0.2513  0.2070
 6891TIP3    H142164   5.398   5.165   5.408  0.5057  0.1625 -0.0477
 6891TIP3    H242165   5.477   5.047   5.464 -0.4121 -0.1198  0.6691
 6892TIP3   OH242166   5.755   6.108  17.003  0.0978 -0.6831 -0.2624
 6892TIP3    H142167   5.669   6.099  17.045 -0.6971  1.1658 -1.4324
 6892TIP3    H242168   5.773   6.202  17.004  0.5981 -0.6903 -2.9374
 6893TIP3   OH242169   3.947   5.361  15.118 -0.0526  0.0173 -0.0306
 6893TIP3    H142170   3.945   5.378  15.024 -0.5881 -0.1413 -0.0488
 6893TIP3    H242171   3.856   5.368  15.145 -0.0473 -1.1097  0.2675
 6894TIP3   OH242172   0.013   2.488   3.010 -0.0497  0.0211 -0.0946
 6894TIP3    H142173   0.043   2.455   3.095 -0.0773  0.4148  0.0700
 6894TIP3    H242174   0.021   2.583   3.017 -1.6559  0.1516  0.0713
 6895TIP3   OH242175   1.904   0.013  14.988 -0.2114 -0.5081  0.5825
 6895TIP3    H142176   1.962  -0.063  14.979 -0.0224 -0.1927 -1.0733
 6895TIP3    H242177   1.927   0.051  15.072 -0.3417 -2.3130  1.4672
 6896TIP3   OH242178   6.045   3.553  16.377 -0.3862 -0.5137  0.3207
 6896TIP3    H142179   6.035   3.587  16.288  0.3031  0.9624  0.7935
 6896TIP3    H242180   5.967   3.583  16.424 -0.6396 -1.1028  0.2902
 6897TIP3   OH242181   1.413   4.271   0.535  0.0221  0.1046  0.5093
 6897TIP3    H142182   1.433   4.181   0.509  1.5383  0.3172  0.8586
 6897TIP3    H242183   1.349   4.262   0.605 -0.1863 -0.6755  0.2280
 6898TIP3   OH242184   5.709   5.828  16.200  0.4053 -0.2271 -0.2692
 6898TIP3    H142185   5.662   5.768  16.258  0.7854 -0.7102 -0.4532
 6898TIP3    H242186   5.740   5.772  16.129  2.0224 -0.0916  0.3062
 6899TIP3   OH242187   2.983   5.479   0.760 -1.0545 -0.7058 -0.0392
 6899TIP3    H142188   2.903   5.500   0.808 -0.7112 -1.0395  0.6719
 6899TIP3    H242189   3.054   5.494   0.822 -0.4442  0.9786 -1.0953
 6900TIP3   OH242190   6.447   5.643  15.477  0.6771 -0.3647 -0.3232
 6900TIP3    H142191   6.369   5.633  15.423  0.1898 -0.4084  0.3793
 6900TIP3    H242192   6.505   5.572  15.449  0.4010 -0.4314 -0.7350
 6901TIP3   OH242193   2.671   4.159  15.836  0.5023 -0.2900  0.3493
 6901TIP3    H142194   2.639   4.203  15.915 -1.0943 -0.8275  0.0211
 6901TIP3    H242195   2.602   4.096  15.815  0.5709  0.3439 -1.8776
 6902TIP3   OH242196   0.642   2.264  11.375  0.1356 -0.2313 -1.0342
 6902TIP3    H142197   0.684   2.178  11.375 -0.2496 -0.4301 -1.6364
 6902TIP3    H242198   0.673   2.306  11.294 -0.7356 -0.3444 -1.4351
 6903TIP3   OH242199   3.775   6.119  11.245 -0.5484 -0.1744 -0.5499
 6903TIP3    H142200   3.764   6.037  11.198 -0.4610 -1.6953  2.0080
 6903TIP3    H242201   3.852   6.105  11.300  0.0749  1.9898 -0.8234
 6904TIP3   OH242202   5.546   2.924  13.819 -0.1148  0.0895 -0.0797
 6904TIP3    H142203   5.458   2.886  13.818 -0.2160  0.2674  1.2423
 6904TIP3    H242204   5.546   2.981  13.895  1.0450  0.3459 -0.2720
 6905TIP3   OH242205   5.380   1.687   1.857  0.1353  0.0527 -0.4401
 6905TIP3    H142206   5.386   1.745   1.781  0.9747 -2.8098 -2.6434
 6905TIP3    H242207   5.340   1.607   1.824  1.9647 -1.8573  1.7382
 6906TIP3   OH242208   5.874   3.162  12.435 -0.4592  0.3227 -0.4429
 6906TIP3    H142209   5.870   3.118  12.520 -2.4235 -0.0205 -0.6813
 6906TIP3    H242210   5.897   3.253  12.457 -1.5684  0.3869  0.5367
 6907TIP3   OH242211   1.134   4.548  13.206 -0.5357 -0.2631 -0.7240
 6907TIP3    H142212   1.141   4.465  13.159  1.4025 -0.3949 -0.2287
 6907TIP3    H242213   1.218   4.591  13.191 -1.5812  1.7075 -1.1295
 6908TIP3   OH242214   3.082   1.369  11.495  0.0883 -0.3331 -0.1475
 6908TIP3    H142215   3.120   1.294  11.540 -1.7754 -0.8722  0.5639
 6908TIP3    H242216   3.060   1.336  11.408 -0.7968 -0.6499  0.1893
 6909TIP3   OH242217   5.086   5.635   5.502  0.1868  1.1478 -0.7455
 6909TIP3    H142218   5.145   5.664   5.433  0.1038  0.4239 -1.1204
 6909TIP3    H242219   5.139   5.636   5.581  0.3635  1.6876 -0.8724
 6910TIP3   OH242220   2.713   3.051   1.740 -0.8190  0.1249 -0.0484
 6910TIP3    H142221   2.687   2.982   1.680 -0.5166 -0.0707  0.0397
 6910TIP3    H242222   2.685   3.019   1.826  2.2140 -1.4309  0.4482
 6911TIP3   OH242223   3.849   1.384  16.415  0.2480  0.0347  0.0231
 6911TIP3    H142224   3.766   1.337  16.407 -0.0875  0.8212 -1.3314
 6911TIP3    H242225   3.828   1.475  16.393  1.7927 -0.0889 -2.1446
 6912TIP3   OH242226   6.548   0.047  11.095  0.3684  0.0831  0.3802
 6912TIP3    H142227   6.594   0.071  11.175  0.3341  0.9478  0.1504
 6912TIP3    H242228   6.612  -0.000  11.043  0.2669 -0.8571  1.0937
 6913TIP3   OH242229   6.801   2.030  12.467 -0.2440  0.0750 -0.4506
 6913TIP3    H142230   6.754   2.062  12.544 -0.3823  0.1171 -0.5521
 6913TIP3    H242231   6.738   1.972  12.424  0.6559 -1.8333  0.7564
 6914TIP3   OH242232   4.074   3.280  11.565 -0.0241  0.2386  0.2630
 6914TIP3    H142233   4.040   3.191  11.561  1.3733 -0.2254 -1.8294
 6914TIP3    H242234   4.024   3.328  11.498 -0.7874  1.0705  1.3904
 6915TIP3   OH242235   1.370   0.186   5.182  0.1722  0.4582 -0.0628
 6915TIP3    H142236   1.284   0.172   5.141  0.2314  1.1428 -0.4213
 6915TIP3    H242237   1.433   0.159   5.115  0.2288 -1.0836  0.5904
 6916TIP3   OH242238   3.394   2.480  12.250  0.2499 -0.1611 -0.4754
 6916TIP3    H142239   3.356   2.505  12.166 -0.7931  1.9043  0.5694
 6916TIP3    H242240   3.435   2.560  12.283  0.1355 -0.7832  1.2359
 6917TIP3   OH242241   2.221   6.374  17.035 -0.0957  0.2764 -0.8484
 6917TIP3    H142242   2.150   6.437  17.044 -0.0154  0.1390  0.9394
 6917TIP3    H242243   2.177   6.289  17.031 -0.1032  0.2923 -1.0777
 6918TIP3   OH242244   3.356   1.650  14.711 -0.2601 -0.0223 -0.1844
 6918TIP3    H142245   3.362   1.717  14.643 -0.5750 -1.1641 -1.3657
 6918TIP3    H242246   3.262   1.641  14.726 -0.1911  0.2025  0.3787
 6919TIP3   OH242247   1.665   5.380   4.335 -0.1613  0.0948  0.0368
 6919TIP3    H142248   1.593   5.397   4.396 -0.5417  1.1030 -0.6801
 6919TIP3    H242249   1.716   5.311   4.377 -1.1386 -0.1236  0.8943
 6920TIP3   OH242250   5.359   1.842   4.035  0.0130 -0.7321  0.1891
 6920TIP3    H142251   5.312   1.922   4.012  1.5810  0.1412 -0.1277
 6920TIP3    H242252   5.310   1.804   4.108 -1.1404  0.1430 -0.1203
 6921TIP3   OH242253   6.778   5.272   3.571  0.0696 -1.1310 -0.2171
 6921TIP3    H142254   6.757   5.326   3.648  1.4085 -2.6760  1.2622
 6921TIP3    H242255   6.735   5.318   3.498  0.7498  1.6686  1.0490
 6922TIP3   OH242256   4.231   3.417  15.657  0.0783  0.1474 -0.0300
 6922TIP3    H142257   4.184   3.430  15.740 -0.0834  0.7226 -0.2019
 6922TIP3    H242258   4.322   3.439  15.677  0.5121 -2.0846  0.5912
 6923TIP3   OH242259   2.004   6.092   2.708  0.6638  0.0646  0.4322
 6923TIP3    H142260   2.015   6.002   2.679  1.2484  0.6025 -1.0777
 6923TIP3    H242261   2.072   6.141   2.662 -0.4189  1.4740  0.2906
 6924TIP3   OH242262   6.156   1.431  15.522 -0.2799 -0.4879  0.3074
 6924TIP3    H142263   6.119   1.518  15.510  1.1438  0.1040  0.0774
 6924TIP3    H242264   6.155   1.391  15.435  0.5511 -0.0879  0.1121
 6925TIP3   OH242265   5.803   5.929   5.493  0.2079  0.2338  0.1490
 6925TIP3    H142266   5.812   5.956   5.584  2.2459  1.9548 -0.5358
 6925TIP3    H242267   5.710   5.938   5.474 -0.1944  0.0845  1.9780
 6926TIP3   OH242268   5.569   0.597  16.846 -0.3100  0.1130  0.2323
 6926TIP3    H142269   5.510   0.647  16.790  1.4552  0.1153 -1.7157
 6926TIP3    H242270   5.646   0.653  16.855 -0.5820  0.1190  2.7281
 6927TIP3   OH242271   2.994   5.605   5.591  0.6107 -0.4526  0.3458
 6927TIP3    H142272   2.920   5.618   5.531  1.3246 -2.7529 -1.0986
 6927TIP3    H242273   3.009   5.691   5.629 -1.7551  0.4141 -0.5702
 6928TIP3   OH242274   2.037   0.395   6.012 -0.4147 -0.0458  0.1476
 6928TIP3    H142275   2.120   0.351   6.028  0.4212  0.1289 -3.1934
 6928TIP3    H242276   1.977   0.324   5.987 -0.1616  0.2019 -1.2526
 6929TIP3   OH242277   3.264   2.314  14.275 -0.2191  0.1020  0.1663
 6929TIP3    H142278   3.215   2.301  14.355 -1.4058  0.5079 -0.4829
 6929TIP3    H242279   3.296   2.227  14.252  0.0515 -0.0273  1.0277
 6930TIP3   OH242280   3.539   6.664   4.330 -0.5705  0.0370 -0.2324
 6930TIP3    H142281   3.581   6.614   4.400 -1.0375  0.6867  0.5093
 6930TIP3    H242282   3.449   6.631   4.328 -0.7313  0.4788 -0.1086
 6931TIP3   OH242283   5.890   5.635   2.212  0.4509 -0.5040  0.7102
 6931TIP3    H142284   5.947   5.590   2.149  0.5731 -1.3024  1.3722
 6931TIP3    H242285   5.842   5.564   2.255 -1.9701  0.2422 -0.6868
 6932TIP3   OH242286   6.374   5.803  11.710 -0.1190 -0.0623  0.0125
 6932TIP3    H142287   6.346   5.714  11.689  2.8103 -0.7310 -1.1804
 6932TIP3    H242288   6.390   5.844  11.626 -0.6973  1.3839  0.5861
 6933TIP3   OH242289   2.563   1.363   5.220  0.5109 -0.3855 -0.1462
 6933TIP3    H142290   2.558   1.302   5.293  0.7070  0.8773  0.9214
 6933TIP3    H242291   2.484   1.345   5.169 -0.7149  0.1605  1.5147
 6934TIP3   OH242292   2.178   3.244  11.331 -0.3172 -0.1248  0.2870
 6934TIP3    H142293   2.119   3.300  11.282 -1.5818 -0.6868  1.1290
 6934TIP3    H242294   2.123   3.171  11.360  0.8580 -0.8104  0.8402
 6935TIP3   OH242295   1.411   0.580   1.086  0.6968  0.0585 -0.1364
 6935TIP3    H142296   1.395   0.617   0.999 -0.4637  1.5028  0.6673
 6935TIP3    H242297   1.324   0.573   1.126  0.7504 -4.3438 -0.5068
 6936TIP3   OH242298   5.066   5.705   6.622  0.1805  0.8569  0.2681
 6936TIP3    H142299   4.986   5.662   6.594  0.1325  0.7478  0.5789
 6936TIP3    H242300   5.105   5.645   6.685  0.4185  0.9904  0.2482
 6937TIP3   OH242301   4.418   3.331  15.413 -0.1239  0.1390  0.2029
 6937TIP3    H142302   4.509   3.353  15.396 -0.3672  1.0979  0.1173
 6937TIP3    H242303   4.368   3.388  15.354 -0.7243 -1.4882 -0.8743
 6938TIP3   OH242304   1.617   3.533   4.263 -0.2906  0.1646  0.2207
 6938TIP3    H142305   1.684   3.475   4.300 -0.9801 -0.6767  0.1574
 6938TIP3    H242306   1.646   3.621   4.287  0.7884 -0.1982  0.2828
 6939TIP3   OH242307   3.834   0.769   1.514 -0.2848  0.1128  0.1853
 6939TIP3    H142308   3.861   0.684   1.479 -0.7782  0.7361 -1.8164
 6939TIP3    H242309   3.795   0.749   1.599 -1.3233 -1.8017 -0.7088
 6940TIP3   OH242310   5.700   6.052   0.397  0.4045  0.2235  0.3887
 6940TIP3    H142311   5.676   5.969   0.437  1.3241 -0.2150  0.0528
 6940TIP3    H242312   5.780   6.079   0.443 -1.5624  2.5003  2.6678
 6941TIP3   OH242313   5.450   3.660   5.690 -0.1065 -0.0457 -0.3638
 6941TIP3    H142314   5.505   3.665   5.613  0.3108  0.6776 -0.0237
 6941TIP3    H242315   5.445   3.751   5.722 -1.1086 -0.1737 -0.1316
 6942TIP3   OH242316   3.340   5.717  11.619  0.0180  0.6365  0.3907
 6942TIP3    H142317   3.399   5.672  11.559  1.0514  2.7532 -0.2100
 6942TIP3    H242318   3.378   5.702  11.706  0.1538  0.0736  0.2367
 6943TIP3   OH242319   3.541   0.745  11.453 -0.2545  0.2532 -0.1452
 6943TIP3    H142320   3.586   0.663  11.435 -0.4793  0.5362 -2.0968
 6943TIP3    H242321   3.564   0.766  11.543  0.8567 -1.2897 -0.0633
 6944TIP3   OH242322   1.954   1.503  13.041 -0.2255 -0.1650  0.6630
 6944TIP3    H142323   1.963   1.481  12.949 -1.5249  1.5920  0.0921
 6944TIP3    H242324   1.880   1.450  13.072 -0.9264  0.5597  0.2412
 6945TIP3   OH242325   5.378   3.636  16.575 -0.2165 -0.3837  0.2757
 6945TIP3    H142326   5.398   3.660  16.666  1.9528  1.3303 -0.6185
 6945TIP3    H242327   5.362   3.719  16.531 -0.6611 -1.1636 -1.0584
 6946TIP3   OH242328   3.991   1.216   6.011 -0.0827  0.3774 -0.3946
 6946TIP3    H142329   3.936   1.290   6.040 -0.8772 -0.5572  0.5329
 6946TIP3    H242330   4.075   1.256   5.990 -0.1910  1.4327  1.0587
 6947TIP3   OH242331   6.338   1.031   4.105 -0.0699 -0.3844  0.2495
 6947TIP3    H142332   6.248   1.049   4.130 -0.1851 -2.0166  1.1076
 6947TIP3    H242333   6.379   0.998   4.185  1.0971 -0.3343 -0.3109
 6948TIP3   OH242334   6.589   1.798  14.659  0.1667 -0.4211  0.3884
 6948TIP3    H142335   6.528   1.840  14.599  0.3972 -0.1595  0.3376
 6948TIP3    H242336   6.626   1.725  14.609 -0.7097 -1.0855  0.6872
 6949TIP3   OH242337   4.464   3.147   2.915 -0.1074  0.2289  0.2571
 6949TIP3    H142338   4.458   3.222   2.856  1.7022  0.5853  0.4910
 6949TIP3    H242339   4.484   3.185   3.000 -1.6581 -0.3570  0.8968
 6950TIP3   OH242340   6.182   4.413   3.161  0.5283  0.0265 -0.4610
 6950TIP3    H142341   6.270   4.435   3.192  1.1012  0.8251 -2.5888
 6950TIP3    H242342   6.141   4.498   3.145 -0.5528 -0.3502  0.2446
 6951TIP3   OH242343   2.043   4.130  13.043  0.0513 -0.1934  0.4924
 6951TIP3    H142344   2.074   4.102  12.957  2.1234 -1.5889  1.6660
 6951TIP3    H242345   2.098   4.205  13.066 -1.2098  0.8548  0.1588
 6952TIP3   OH242346   6.019   1.482  12.033 -0.3218 -0.0275 -0.7165
 6952TIP3    H142347   5.964   1.514  12.105  0.2083 -1.6095  0.4100
 6952TIP3    H242348   6.026   1.388  12.048  1.4196 -0.0801 -1.7188
 6953TIP3   OH242349   1.689   1.065  13.930  0.0539  0.5888 -0.2904
 6953TIP3    H142350   1.612   1.013  13.907  0.6302 -1.1431  1.5415
 6953TIP3    H242351   1.752   1.046  13.861 -0.6766  0.9422 -1.0615
 6954TIP3   OH242352   0.714   5.303   4.295 -0.7800 -0.5012 -0.0258
 6954TIP3    H142353   0.717   5.376   4.357 -1.4778  1.0678 -1.7901
 6954TIP3    H242354   0.655   5.333   4.226  1.1442 -1.6002 -2.2037
 6955TIP3   OH242355   3.970   5.012   1.149  0.2688 -0.0522 -0.3321
 6955TIP3    H142356   4.039   5.053   1.202  0.7098 -0.8873 -0.2530
 6955TIP3    H242357   3.889   5.049   1.183  0.6894  1.2063 -0.6503
 6956TIP3   OH242358   4.062   5.015  10.713 -0.9322  0.1279 -0.3328
 6956TIP3    H142359   4.109   5.043  10.635 -1.5630  1.0126 -0.4137
 6956TIP3    H242360   3.988   4.964  10.680 -1.1754  0.4672 -0.3242
 6957TIP3   OH242361   2.231   2.403   2.129 -0.2437  0.0483  0.1126
 6957TIP3    H142362   2.214   2.484   2.082  0.0948  0.2681  0.3609
 6957TIP3    H242363   2.319   2.377   2.101 -1.8998 -2.3932 -3.0487
 6958TIP3   OH242364   6.579   5.272  12.534 -0.6566 -0.4327  0.4422
 6958TIP3    H142365   6.542   5.245  12.619 -1.8235 -0.7925 -0.1665
 6958TIP3    H242366   6.583   5.367  12.539 -0.1981 -0.4821  1.1137
 6959TIP3   OH242367   3.278   0.925  13.563 -0.5209 -0.6790  0.1742
 6959TIP3    H142368   3.355   0.953  13.612 -0.4950  2.2539 -1.3760
 6959TIP3    H242369   3.313   0.879  13.487 -0.2845  0.3003 -0.3214
 6960TIP3   OH242370   6.623   6.702  12.124 -0.6610 -0.0804 -0.1854
 6960TIP3    H142371   6.700   6.734  12.171 -1.1874  0.4242  0.3282
 6960TIP3    H242372   6.582   6.640  12.184 -1.0812  0.2223 -0.1632
 6961TIP3   OH242373   3.154   6.278   2.516  0.2810 -0.6923  0.0528
 6961TIP3    H142374   3.167   6.312   2.604  1.8061  0.0669 -0.4438
 6961TIP3    H242375   3.089   6.208   2.526 -0.8970  0.5742  1.4926
 6962TIP3   OH242376   2.704   1.022   5.516  0.0151  0.3718  0.1866
 6962TIP3    H142377   2.637   0.954   5.509 -0.6664  0.9526  0.8851
 6962TIP3    H242378   2.783   0.976   5.545  0.1068 -0.4213 -1.2938
 6963TIP3   OH242379   6.518   5.147  11.133  0.4045 -0.0589 -0.3492
 6963TIP3    H142380   6.570   5.144  11.214 -1.3425 -1.7778  0.7341
 6963TIP3    H242381   6.510   5.056  11.107 -1.4913  0.2508 -0.8748
 6964TIP3   OH242382   4.725   4.941  13.153  0.0526  0.0950 -0.3034
 6964TIP3    H142383   4.657   5.000  13.185  0.8739  0.8489  0.0752
 6964TIP3    H242384   4.797   4.952  13.215  0.3893 -0.9544 -0.5012
 6965TIP3   OH242385   6.128   6.673  13.679  0.1142  0.3086 -0.1693
 6965TIP3    H142386   6.119   6.742  13.744  1.3332 -2.2733  2.8529
 6965TIP3    H242387   6.221   6.675  13.654  0.2563 -0.5064  0.2736
 6966TIP3   OH242388   3.094   1.590   1.424  0.1085  0.2239  0.2175
 6966TIP3    H142389   3.030   1.549   1.366 -0.0613  0.0235  0.5451
 6966TIP3    H242390   3.059   1.677   1.442 -0.0545  0.1270  0.3682
 6967TIP3   OH242391   4.622   1.386   3.801 -0.2177 -0.3061 -0.0168
 6967TIP3    H142392   4.588   1.384   3.712 -2.0267 -0.5932  0.6764
 6967TIP3    H242393   4.716   1.402   3.790 -0.3916 -0.5493 -1.9716
 6968TIP3   OH242394   4.678   2.811   4.314  0.3645 -0.3117  0.0835
 6968TIP3    H142395   4.683   2.875   4.384  0.1793 -0.5139  0.2822
 6968TIP3    H242396   4.702   2.728   4.355 -0.5995 -0.5792  0.1087
 6969TIP3   OH242397   2.366   5.358   0.188  0.1236 -0.6029  0.0915
 6969TIP3    H142398   2.330   5.436   0.146  1.4236 -0.3240 -0.5222
 6969TIP3    H242399   2.391   5.300   0.116  3.8249  0.5297  0.3560
 6970TIP3   OH242400   2.871   0.680   1.339  0.5729 -0.2292  0.7371
 6970TIP3    H142401   2.811   0.733   1.286  1.3664  1.1305  1.1561
 6970TIP3    H242402   2.833   0.592   1.339  0.4707 -0.2328 -1.9734
 6971TIP3   OH242403   3.409   4.181   5.336  0.7534  0.3124 -0.3757
 6971TIP3    H142404   3.485   4.141   5.377 -0.2955 -0.2500  1.0906
 6971TIP3    H242405   3.335   4.128   5.367 -0.5604  2.7881  0.8980
 6972TIP3   OH242406   0.893   3.009  12.010  0.5184  0.6825 -0.0626
 6972TIP3    H142407   0.951   3.085  12.001  1.7190  0.1800  2.9258
 6972TIP3    H242408   0.950   2.933  11.998  0.6108  0.1788  3.0317
 6973TIP3   OH242409   0.833   1.136  12.248 -0.0735 -0.5181 -0.4113
 6973TIP3    H142410   0.907   1.184  12.208 -1.0389  0.0341 -1.5557
 6973TIP3    H242411   0.784   1.102  12.174 -1.5119 -0.0699  0.3319
 6974TIP3   OH242412   3.386   2.883  11.264 -0.5093 -0.4999 -0.1059
 6974TIP3    H142413   3.385   2.966  11.312  0.5345  0.6156 -1.9485
 6974TIP3    H242414   3.474   2.848  11.278 -0.3980 -0.4620 -0.7010
 6975TIP3   OH242415   2.495   1.150   3.658 -0.6423  0.1081 -0.4639
 6975TIP3    H142416   2.576   1.124   3.614  0.2931 -0.3845  1.4772
 6975TIP3    H242417   2.425   1.124   3.598  0.5497 -1.2558 -1.3003
 6976TIP3   OH242418   1.684   2.395  12.528 -0.0647  0.5729 -0.3385
 6976TIP3    H142419   1.684   2.453  12.451  1.3407  1.0810  0.0289
 6976TIP3    H242420   1.679   2.455  12.602 -0.1948  0.1378  0.0045
 6977TIP3   OH242421   2.411   0.541   4.478  0.4908  0.0234  0.0289
 6977TIP3    H142422   2.329   0.586   4.460  1.0549  0.2152 -2.3084
 6977TIP3    H242423   2.453   0.593   4.546 -1.0881  0.2008  0.8814
 6978TIP3   OH242424   3.247   4.624   0.208 -0.0810  0.4989 -0.3663
 6978TIP3    H142425   3.211   4.711   0.190 -0.0531  0.6148  0.1260
 6978TIP3    H242426   3.205   4.567   0.144 -0.1327  0.8671 -0.6646
 6979TIP3   OH242427   6.061   0.171  16.280 -0.0348  0.0584 -0.7967
 6979TIP3    H142428   6.066   0.221  16.361 -0.3273 -0.7475 -0.2841
 6979TIP3    H242429   6.077   0.080  16.306 -2.0227 -0.4742 -1.3452
 6980TIP3   OH242430   3.599   6.776  16.022  0.2713 -0.6849 -0.4245
 6980TIP3    H142431   3.548   6.847  15.983  0.9623 -0.8540 -1.6712
 6980TIP3    H242432   3.534   6.717  16.059 -0.3280  0.3485  0.1832
 6981TIP3   OH242433   6.533   0.344  14.039  0.1640 -0.5434  0.0145
 6981TIP3    H142434   6.524   0.407  13.967 -3.7189 -2.6424 -1.4622
 6981TIP3    H242435   6.626   0.323  14.040  0.9799  2.5719 -1.7059
 6982TIP3   OH242436   0.815   0.802   3.197  0.7690 -0.4352  0.3024
 6982TIP3    H142437   0.737   0.747   3.206 -0.2471  0.8032 -0.8275
 6982TIP3    H242438   0.856   0.773   3.116 -1.2375  2.2151 -1.7631
 6983TIP3   OH242439   3.438   3.319  13.195 -0.4971  0.1934 -0.4746
 6983TIP3    H142440   3.425   3.230  13.227 -1.1138  0.1772 -0.7549
 6983TIP3    H242441   3.501   3.358  13.256 -0.3551 -0.3791 -0.2538
 6984TIP3   OH242442   4.983   4.741  14.674 -0.0108  0.0009  0.3068
 6984TIP3    H142443   4.969   4.647  14.681  2.3098 -0.2311  2.7641
 6984TIP3    H242444   4.901   4.780  14.705 -0.9668 -1.1974 -0.6739
 6985TIP3   OH242445   5.366   2.356   5.593 -0.1817 -0.0210 -0.8728
 6985TIP3    H142446   5.284   2.394   5.561 -0.7230  0.7477  1.3058
 6985TIP3    H242447   5.421   2.432   5.612  0.5867 -0.4994 -1.1662
 6986TIP3   OH242448   0.615   0.651   2.140  0.1209 -0.1496  0.5752
 6986TIP3    H142449   0.532   0.692   2.115  0.2116  0.3220  1.0443
 6986TIP3    H242450   0.592   0.559   2.157  0.5853 -1.3232 -4.3496
 6987TIP3   OH242451   5.326   5.614   0.334  0.5476 -0.6025  0.3565
 6987TIP3    H142452   5.348   5.662   0.254 -0.3412  0.7595  0.9138
 6987TIP3    H242453   5.408   5.570   0.359  1.3787  0.6358 -0.1577
 6988TIP3   OH242454   4.034   0.540   4.642 -0.1057  0.0556  0.4894
 6988TIP3    H142455   3.950   0.499   4.621 -0.1346  0.8146 -0.9339
 6988TIP3    H242456   4.011   0.618   4.693 -0.3341  0.6978 -0.5738
 6989TIP3   OH242457   3.394   4.557  14.434 -0.5209  0.2607  0.1447
 6989TIP3    H142458   3.315   4.611  14.436  0.2900  1.4331  0.6882
 6989TIP3    H242459   3.462   4.612  14.473  0.5028 -0.8492 -0.0533
 6990TIP3   OH242460   6.358   0.222   4.785 -0.2808  0.0043 -0.1523
 6990TIP3    H142461   6.302   0.296   4.806  0.7015  0.6292  0.2508
 6990TIP3    H242462   6.385   0.187   4.870 -0.7481 -0.8364 -0.3349
 6991TIP3   OH242463   6.148   3.174  13.571  0.1093  0.1127 -0.3195
 6991TIP3    H142464   6.071   3.140  13.527  1.2790 -0.9037 -1.6306
 6991TIP3    H242465   6.136   3.148  13.663 -1.2077  0.1877 -0.4613
 6992TIP3   OH242466   2.662   4.145  10.052 -0.4505 -0.4852 -0.4681
 6992TIP3    H142467   2.596   4.086  10.016  0.3035 -2.1568  0.8112
 6992TIP3    H242468   2.709   4.092  10.117 -0.0984  1.6838  1.1046
 6993TIP3   OH242469   0.384   1.652   5.646 -0.1010 -0.3851 -0.0648
 6993TIP3    H142470   0.407   1.703   5.724 -1.8999  0.6136 -0.1741
 6993TIP3    H242471   0.318   1.589   5.676 -0.3075 -0.4494 -0.6408
 6994TIP3   OH242472   4.055   2.899  12.808  0.7064  0.5148 -0.0602
 6994TIP3    H142473   4.039   2.976  12.752 -0.7962  0.0887 -0.2419
 6994TIP3    H242474   3.968   2.876  12.841  1.3461 -0.3083  1.0577
 6995TIP3   OH242475   0.122   3.816  12.027 -0.0566  0.3532  0.1163
 6995TIP3    H142476   0.154   3.755  12.093 -1.2456  0.3576  0.7195
 6995TIP3    H242477   0.195   3.876  12.012  0.2061  0.3785  1.4576
 6996TIP3   OH242478   3.584   3.572  15.102 -0.4216  0.0282 -0.6214
 6996TIP3    H142479   3.678   3.564  15.121 -1.1484 -0.4456  3.2035
 6996TIP3    H242480   3.562   3.661  15.131 -1.7892 -1.0739  1.9086
 6997TIP3   OH242481   1.739   4.851  11.027 -0.3808  0.2641  0.2935
 6997TIP3    H142482   1.649   4.818  11.025 -0.7926  1.1208  2.6206
 6997TIP3    H242483   1.773   4.833  10.940 -1.9694 -2.3844  0.1636
 6998TIP3   OH242484   4.967   0.172   4.844 -0.4329 -0.6089 -0.3526
 6998TIP3    H142485   4.967   0.218   4.760 -2.5302 -0.9067 -0.5379
 6998TIP3    H242486   4.976   0.242   4.909 -0.9618 -0.1911 -0.7294
 6999TIP3   OH242487   2.192   0.538  11.738  0.0449  0.1627  0.2334
 6999TIP3    H142488   2.108   0.559  11.698 -1.1969 -0.8677  2.2431
 6999TIP3    H242489   2.178   0.454  11.781  1.3815  1.1194  2.6438
 7000TIP3   OH242490   2.402   0.103  11.160  0.2571  0.1451  0.2351
 7000TIP3    H142491   2.423   0.191  11.193 -0.7905  0.5927 -0.2635
 7000TIP3    H242492   2.322   0.116  11.109 -0.4825 -1.2890  1.0251
 7001TIP3   OH242493   6.671   5.232  13.618 -0.0996 -0.1507  0.3882
 7001TIP3    H142494   6.682   5.143  13.584  1.2678  0.1549  0.0293
 7001TIP3    H242495   6.685   5.289  13.543  0.7359  0.4409  0.9802
 7002TIP3   OH242496   3.883   2.995   4.424 -0.0557 -0.2671 -0.2316
 7002TIP3    H142497   3.830   3.055   4.477  2.3573  0.0095  2.0200
 7002TIP3    H242498   3.896   2.919   4.480  1.6797 -0.4237 -0.8080
 7003TIP3   OH242499   3.364   3.510  14.462  0.4697 -0.0769  0.0186
 7003TIP3    H142500   3.320   3.575  14.517 -0.4235 -0.3079 -0.4216
 7003TIP3    H242501   3.301   3.439  14.452  0.8059 -0.2582 -0.9012
 7004TIP3   OH242502   1.257   4.510  10.589 -0.6419  0.2326  0.0248
 7004TIP3    H142503   1.260   4.502  10.494  0.8067 -0.5245  0.1064
 7004TIP3    H242504   1.267   4.420  10.620 -1.5370  0.4247  0.8912
 7005TIP3   OH242505   4.899   1.424   3.777  0.0615  0.1641 -0.5351
 7005TIP3    H142506   4.929   1.337   3.803  0.1263  0.3834  0.1170
 7005TIP3    H242507   4.962   1.452   3.710  0.2853 -0.1134 -0.4396
 7006TIP3   OH242508   3.173   2.696  12.494 -0.1748  0.3395 -0.0076
 7006TIP3    H142509   3.128   2.618  12.461  1.2410 -0.6844  0.4224
 7006TIP3    H242510   3.189   2.677  12.586 -1.6515  2.0305  0.6357
 7007TIP3   OH242511   2.740   2.548   0.356 -0.3089 -0.6447 -0.2399
 7007TIP3    H142512   2.801   2.516   0.423 -0.2283  0.8872  0.4308
 7007TIP3    H242513   2.711   2.468   0.311  1.6761 -1.4632 -0.1459
 7008TIP3   OH242514   2.098   2.111   2.271 -0.3892  0.4609 -0.5829
 7008TIP3    H142515   2.146   2.195   2.272 -0.9108  0.7676 -1.4243
 7008TIP3    H242516   2.147   2.056   2.332 -0.9591  1.8947  1.2477
 7009TIP3   OH242517   3.940   3.823  15.190 -0.5119  0.3009 -0.1141
 7009TIP3    H142518   3.923   3.887  15.259  1.0570  0.2810  0.3071
 7009TIP3    H242519   3.975   3.876  15.117  1.1027 -0.0875  0.3525
 7010TIP3   OH242520   1.977   4.252  11.458 -0.0397 -0.0406  0.1707
 7010TIP3    H142521   1.993   4.328  11.514 -1.1986 -0.7119  1.4360
 7010TIP3    H242522   2.064   4.216  11.442  0.8649  3.1626 -2.8305
 7011TIP3   OH242523   3.257   1.299   2.619  0.2125 -0.0728  0.1678
 7011TIP3    H142524   3.195   1.319   2.689 -1.5520 -1.0343 -1.0856
 7011TIP3    H242525   3.242   1.367   2.553 -0.7041 -1.2659 -0.8765
 7012TIP3   OH242526   3.358   1.324   0.493 -0.0332  0.1668  0.2607
 7012TIP3    H142527   3.337   1.284   0.578 -0.6209 -1.1609 -0.5047
 7012TIP3    H242528   3.278   1.372   0.470 -0.3567 -0.5720 -0.1684
 7013TIP3   OH242529   5.336   5.464   4.946 -0.2628 -0.6940 -0.0293
 7013TIP3    H142530   5.260   5.425   4.903 -0.4197  1.6365 -1.9712
 7013TIP3    H242531   5.403   5.469   4.878  0.6330 -0.0068  0.8696
 7014TIP3   OH242532   3.811   0.101  16.236  0.4771 -0.1125 -0.2341
 7014TIP3    H142533   3.791   0.046  16.311  0.7600 -0.1806 -0.2067
 7014TIP3    H242534   3.750   0.074  16.168  2.5516 -2.5323 -1.2214
 7015TIP3   OH242535   3.244   0.957   0.543 -0.0106  0.2225 -0.1969
 7015TIP3    H142536   3.172   0.959   0.481 -0.2517  0.5143  0.0899
 7015TIP3    H242537   3.318   0.994   0.495  0.3024 -1.3110 -0.9252
 7016TIP3   OH242538   1.632   4.524  15.448 -0.5869 -0.0555 -0.2493
 7016TIP3    H142539   1.638   4.476  15.530  0.9124 -2.3015 -1.6025
 7016TIP3    H242540   1.557   4.487  15.403  1.2569 -2.0592 -1.8026
 7017TIP3   OH242541   0.205   3.924  14.924 -0.1162  0.1519  0.1992
 7017TIP3    H142542   0.293   3.894  14.945 -0.0345  0.4429  0.2673
 7017TIP3    H242543   0.156   3.843  14.906 -0.1611 -0.1098  1.4024
 7018TIP3   OH242544   6.815   5.465   6.196  0.0391  0.4292  0.5462
 7018TIP3    H142545   6.864   5.426   6.268  1.0815  0.4031 -0.1591
 7018TIP3    H242546   6.724   5.447   6.216  0.4234 -1.1689  0.9323
 7019TIP3   OH242547   4.074   4.602  11.786 -0.3557 -0.1808 -0.2650
 7019TIP3    H142548   4.129   4.648  11.722 -1.2626  0.4574 -0.6087
 7019TIP3    H242549   3.984   4.623  11.759 -0.7535 -0.1377  1.0623
 7020TIP3   OH242550   3.876   1.962   4.417  0.1612  0.1552 -0.6203
 7020TIP3    H142551   3.928   1.882   4.423 -1.8066 -1.3934 -3.1717
 7020TIP3    H242552   3.919   2.013   4.348 -0.4745 -0.1857 -1.2728
 7021TIP3   OH242553   4.787   1.097   4.926 -0.6058  0.0618 -0.0132
 7021TIP3    H142554   4.735   1.029   4.969  1.2970 -1.1678  0.4131
 7021TIP3    H242555   4.800   1.063   4.837 -0.3766  0.2735 -0.0581
 7022TIP3   OH242556   2.902   0.704  14.161 -0.0495  0.0809 -1.0967
 7022TIP3    H142557   2.901   0.649  14.240 -0.7242  0.4687 -0.8241
 7022TIP3    H242558   2.956   0.656  14.099 -1.3397 -1.3314 -1.1591
 7023TIP3   OH242559   3.309   0.558   1.286 -0.5441 -0.2351  0.7214
 7023TIP3    H142560   3.381   0.503   1.253  0.3306 -0.5000  2.9775
 7023TIP3    H242561   3.349   0.643   1.301 -0.4614 -0.6024  2.7653
 7024TIP3   OH242562   1.874   4.078   0.631 -0.2121  0.1821 -0.2576
 7024TIP3    H142563   1.920   3.998   0.603  1.5349  0.8981  0.5359
 7024TIP3    H242564   1.830   4.108   0.552  0.3660 -0.7262 -0.9481
 7025TIP3   OH242565   0.902   1.136   4.537 -0.2352  0.4181  0.3106
 7025TIP3    H142566   0.987   1.155   4.496  0.2009 -1.4387  0.3069
 7025TIP3    H242567   0.922   1.070   4.604 -1.6607  0.0210  0.3551
 7026TIP3   OH242568   1.696   3.728  12.504 -0.0105  0.7045 -0.4997
 7026TIP3    H142569   1.667   3.646  12.464 -0.1851  1.0979 -1.1802
 7026TIP3    H242570   1.704   3.789  12.431 -1.7376  1.8477  0.2316
 7027TIP3   OH242571   5.074   1.775  16.403 -0.1834  0.2015 -0.4352
 7027TIP3    H142572   5.109   1.862  16.423  1.2424 -0.5583  0.4593
 7027TIP3    H242573   5.133   1.741  16.335  0.3852 -0.7690  0.5100
 7028TIP3   OH242574   0.813   0.828  13.236 -0.5840 -0.2382 -0.1005
 7028TIP3    H142575   0.724   0.802  13.213 -0.1811  0.3787 -2.4381
 7028TIP3    H242576   0.826   0.912  13.192  1.4037 -0.6715 -0.3843
 7029TIP3   OH242577   3.446   3.284  14.113 -0.8581  0.5721  0.5177
 7029TIP3    H142578   3.498   3.208  14.087 -1.0609  0.4577  0.4395
 7029TIP3    H242579   3.393   3.253  14.186  1.6346  1.6435  2.8292
 7030TIP3   OH242580   4.848   1.749  14.267  0.1108 -1.1686 -0.1317
 7030TIP3    H142581   4.812   1.799  14.341 -1.7577 -0.9084 -1.1873
 7030TIP3    H242582   4.870   1.664  14.305  3.0838  0.2900  1.6321
 7031TIP3   OH242583   2.042   3.126   2.207  1.1792 -0.2285  0.1791
 7031TIP3    H142584   2.083   3.173   2.280  3.2118 -0.2252 -0.9293
 7031TIP3    H242585   2.029   3.193   2.140 -1.7364  0.0121  0.8926
 7032TIP3   OH242586   6.602   2.499  14.193  0.1744  0.3162  0.4729
 7032TIP3    H142587   6.624   2.518  14.102  1.2078  0.4222  0.7367
 7032TIP3    H242588   6.610   2.404  14.201  0.0848  0.3071  0.4500
 7033TIP3   OH242589   6.698   1.181   3.902  0.1463  0.8011  0.1884
 7033TIP3    H142590   6.718   1.246   3.835 -0.3024  0.0927 -0.6325
 7033TIP3    H242591   6.624   1.218   3.950 -0.1933  0.8345 -0.3638
 7034TIP3   OH242592   5.042   1.952   1.908 -0.3143  0.3114  0.3826
 7034TIP3    H142593   4.980   2.018   1.937  0.5152  0.2415  2.3512
 7034TIP3    H242594   5.006   1.869   1.942  0.1503  0.1004  0.3544
 7035TIP3   OH242595   6.250   4.366  16.024  0.5072  0.1803  0.0647
 7035TIP3    H142596   6.341   4.358  15.995  0.1998 -1.7604 -0.4828
 7035TIP3    H242597   6.221   4.275  16.035 -1.4644  0.7708 -0.1052
 7036TIP3   OH242598   3.545   2.112   4.245 -0.6335 -0.9275 -0.0418
 7036TIP3    H142599   3.481   2.169   4.201 -0.5048  0.3135  1.3257
 7036TIP3    H242600   3.491   2.052   4.297 -0.7212 -0.6116  0.2358
 7037TIP3   OH242601   2.186   3.652  15.737 -0.7167 -0.1664 -0.0407
 7037TIP3    H142602   2.274   3.659  15.775 -0.4470 -1.5656 -0.3773
 7037TIP3    H242603   2.127   3.676  15.809 -0.0779  0.4650  0.2838
 7038TIP3   OH242604   6.619   2.628  15.574 -0.4233  0.5562 -0.5705
 7038TIP3    H142605   6.527   2.602  15.578 -0.0285 -0.6793  0.7938
 7038TIP3    H242606   6.650   2.619  15.664  1.0008  1.0828 -1.0079
 7039TIP3   OH242607   5.971   1.888  11.806  0.0464 -0.3859 -0.1857
 7039TIP3    H142608   5.952   1.982  11.811  0.5518 -0.3532  1.5439
 7039TIP3    H242609   6.033   1.872  11.878 -1.4847 -2.3848  0.7519
 7040TIP3   OH242610   2.450   1.759  16.507 -0.2225  0.7357 -0.2021
 7040TIP3    H142611   2.482   1.767  16.597  1.3684  1.4728 -0.8099
 7040TIP3    H242612   2.446   1.665  16.491  0.7361  0.6186  0.2148
 7041TIP3   OH242613   4.266   0.061  17.153 -0.1891  0.1381 -0.1195
 7041TIP3    H142614   4.329   0.074  17.223  0.7365 -1.2642 -0.6889
 7041TIP3    H242615   4.181   0.068  17.196  0.3587  0.4681  0.9265
 7042TIP3   OH242616   2.229   6.450  10.853 -0.2431 -0.4858 -0.6213
 7042TIP3    H142617   2.203   6.542  10.866 -0.9546 -0.5647 -1.5178
 7042TIP3    H242618   2.147   6.402  10.847  0.1321 -1.1965 -0.1133
 7043TIP3   OH242619   3.258   4.850  17.159 -1.2032 -0.1432  0.1879
 7043TIP3    H142620   3.350   4.846  17.186 -0.8998 -0.7901 -0.9115
 7043TIP3    H242621   3.219   4.914  17.218 -0.2436 -0.5120  1.2540
 7044TIP3   OH242622   0.508   6.140   1.886  0.0954 -0.6906  0.3076
 7044TIP3    H142623   0.497   6.230   1.855 -0.1058 -0.8449 -0.0631
 7044TIP3    H242624   0.455   6.135   1.965  1.8083  0.1519  1.5506
 7045TIP3   OH242625   4.933   1.457  14.064 -0.6739  0.1481  0.1951
 7045TIP3    H142626   4.937   1.362  14.075 -2.3852  0.4571  4.1657
 7045TIP3    H242627   4.841   1.479  14.078 -0.0888  2.5155  0.5099
 7046TIP3   OH242628   2.465   5.530  11.976  0.1682  0.4705  0.0086
 7046TIP3    H142629   2.549   5.488  11.994  0.5318  1.3843  0.4862
 7046TIP3    H242630   2.463   5.543  11.881  0.7728  0.8740  0.0524
 7047TIP3   OH242631   5.843   5.172   2.905 -0.2905 -0.3709  0.4466
 7047TIP3    H142632   5.907   5.180   2.976  2.4478  0.1587 -1.9819
 7047TIP3    H242633   5.815   5.080   2.908 -0.1035 -0.4036  2.0563
 7048TIP3   OH242634   1.940   4.229  11.776  0.0768  0.0025  0.0896
 7048TIP3    H142635   2.023   4.233  11.823  1.0938  2.2386 -1.7801
 7048TIP3    H242636   1.944   4.302  11.714 -3.3353  0.2351  0.0283
 7049TIP3   OH242637   4.262   0.967   1.997  0.6705  0.2929 -0.0599
 7049TIP3    H142638   4.190   0.907   1.976  1.9086 -0.9376 -0.9945
 7049TIP3    H242639   4.294   0.996   1.911  2.5392 -0.7445  0.2551
 7050TIP3   OH242640   6.438   5.215  16.003 -0.1541 -0.2454  0.5879
 7050TIP3    H142641   6.387   5.260  16.072 -0.6383 -1.3205  0.9416
 7050TIP3    H242642   6.380   5.215  15.927 -0.1183 -0.1986  0.5598
 7051TIP3   OH242643   5.380   3.108  15.386 -0.3964 -0.3756 -0.1157
 7051TIP3    H142644   5.357   3.029  15.336 -0.1090 -1.5091  1.5039
 7051TIP3    H242645   5.468   3.131  15.355  0.4827 -2.0687  1.0571
 7052TIP3   OH242646   6.486   1.363  11.974  0.4164  0.2588  0.1296
 7052TIP3    H142647   6.484   1.396  11.884 -1.1991 -2.0744 -0.7401
 7052TIP3    H242648   6.407   1.397  12.014  0.2636 -0.1047  0.1401
 7053TIP3   OH242649   0.589   2.267  15.356 -0.0624 -0.2260 -0.1933
 7053TIP3    H142650   0.666   2.210  15.355 -0.6422 -1.0263 -1.0565
 7053TIP3    H242651   0.597   2.320  15.277  0.0680  0.3254  0.1922
 7054TIP3   OH242652   0.001   4.469  11.000  0.0775  0.4191 -0.2103
 7054TIP3    H142653  -0.018   4.403  10.935  2.5226  2.1602 -2.8287
 7054TIP3    H242654  -0.070   4.462  11.064 -1.4296 -2.4903 -2.1157
 7055TIP3   OH242655   1.725   6.284   6.086  0.7407  0.3625 -0.2501
 7055TIP3    H142656   1.744   6.230   6.163 -0.5440 -0.5436 -0.5419
 7055TIP3    H242657   1.802   6.274   6.030 -0.0346 -2.3031 -0.9152
 7056TIP3   OH242658   2.924   3.222  12.978 -0.4099 -0.3538 -0.6199
 7056TIP3    H142659   2.883   3.197  13.061 -1.7118  0.0475 -1.1249
 7056TIP3    H242660   3.010   3.254  13.003  0.6861 -3.7467  0.2177
 7057TIP3   OH242661   2.841   6.655   0.071 -0.5689 -0.1159 -0.3709
 7057TIP3    H142662   2.797   6.657  -0.014 -0.4129  1.1795 -0.4196
 7057TIP3    H242663   2.890   6.573   0.070 -0.2849  0.0620 -1.6736
 7058TIP3   OH242664   6.609   2.364   5.136 -0.3898  0.2423  0.0594
 7058TIP3    H142665   6.697   2.335   5.160  0.2056  0.5414 -1.7054
 7058TIP3    H242666   6.600   2.340   5.044 -2.4218 -0.3925  0.4017
 7059TIP3   OH242667   6.371   1.262  16.460  0.1344 -0.1018 -0.8279
 7059TIP3    H142668   6.348   1.261  16.553  0.7259 -0.5024 -0.6802
 7059TIP3    H242669   6.346   1.349  16.430 -2.1344 -0.7233 -0.8184
 7060TIP3   OH242670   1.884   5.539  14.645  0.1759 -0.0682  0.5359
 7060TIP3    H142671   1.880   5.495  14.730  0.1558  0.0774  0.6114
 7060TIP3    H242672   1.906   5.630  14.667  2.6315 -0.5569  0.2146
 7061TIP3   OH242673   3.260   0.860  15.216 -0.2624 -0.1343  0.7355
 7061TIP3    H142674   3.197   0.834  15.283 -1.0929  0.7692  0.3236
 7061TIP3    H242675   3.238   0.806  15.140  0.3285 -0.7663  1.0023
 7062TIP3   OH242676   3.654   2.403  10.309  0.4234  0.1336 -0.3352
 7062TIP3    H142677   3.737   2.450  10.315  0.7462 -0.1899 -1.9689
 7062TIP3    H242678   3.599   2.459  10.254  0.0443 -0.3408 -0.4397
 7063TIP3   OH242679   1.770   1.530   0.077 -0.1268  0.4551 -0.4726
 7063TIP3    H142680   1.808   1.576   0.003 -0.8302  0.1743 -1.0142
 7063TIP3    H242681   1.694   1.582   0.102  0.5605  0.9764  0.5629
 7064TIP3   OH242682   2.053   0.004   0.361  0.3232 -0.5729 -0.1291
 7064TIP3    H142683   2.146   0.021   0.347  0.2522  0.2152  0.3065
 7064TIP3    H242684   2.013   0.091   0.361 -0.4888 -0.9412 -0.8370
 7065TIP3   OH242685   0.069   1.320   3.279 -0.1902 -0.0417  0.2331
 7065TIP3    H142686  -0.022   1.293   3.293 -0.3026  1.0701  1.6782
 7065TIP3    H242687   0.107   1.247   3.230 -1.3953 -1.3165  1.1409
 7066TIP3   OH242688   5.182   0.599  15.502 -0.4226  0.0011 -0.0859
 7066TIP3    H142689   5.173   0.679  15.451 -1.3770 -0.4449 -0.6199
 7066TIP3    H242690   5.271   0.603  15.537 -0.2709  1.0163 -0.5816
 7067TIP3   OH242691   3.382   5.688   0.156  0.3440 -0.1352 -0.7508
 7067TIP3    H142692   3.471   5.669   0.126  0.4790  0.0966 -0.4997
 7067TIP3    H242693   3.384   5.667   0.250  0.0507 -0.4209 -0.8074
 7068TIP3   OH242694   6.325   2.863  13.821 -0.4829 -0.4957 -0.3841
 7068TIP3    H142695   6.266   2.828  13.755 -1.6335 -1.0077  0.9032
 7068TIP3    H242696   6.287   2.836  13.905  1.3743 -0.5407  0.4777
 7069TIP3   OH242697   5.000   1.525  14.366  0.8432 -0.0378  0.0882
 7069TIP3    H142698   4.931   1.503  14.429  0.4701  1.9525  0.4329
 7069TIP3    H242699   5.074   1.553  14.420  1.4977 -0.9849 -0.3097
 7070TIP3   OH242700   0.288   5.369   3.390  0.6305 -0.1180 -0.3169
 7070TIP3    H142701   0.230   5.376   3.314 -0.9067  0.6419  0.8937
 7070TIP3    H242702   0.304   5.275   3.400  0.9918 -0.2036 -1.6793
 7071TIP3   OH242703   3.014   4.413  13.418 -0.1204  0.1183  0.3312
 7071TIP3    H142704   2.990   4.364  13.339 -1.8334 -0.9810  1.4942
 7071TIP3    H242705   3.060   4.349  13.473  0.5943  0.7259  0.4504
 7072TIP3   OH242706   6.278   4.583   4.101  0.5040  0.0340 -0.0597
 7072TIP3    H142707   6.229   4.625   4.030 -1.6806 -0.9142  0.8470
 7072TIP3    H242708   6.308   4.500   4.063  1.5547  0.6567 -0.6422
 7073TIP3   OH242709   1.165   2.174   5.754  0.2630 -0.3815  0.9234
 7073TIP3    H142710   1.072   2.152   5.744  0.0411  1.0239 -0.3701
 7073TIP3    H242711   1.198   2.113   5.820 -1.8386 -0.1916  2.1910
 7074TIP3   OH242712   2.285   4.123  16.811 -0.0005 -0.2553 -0.2467
 7074TIP3    H142713   2.273   4.210  16.772  2.4063  0.1627 -0.1569
 7074TIP3    H242714   2.196   4.092  16.828 -0.9367  1.7266 -1.2897
 7075TIP3   OH242715   6.717   6.423  17.250  0.0564  0.5099 -0.3127
 7075TIP3    H142716   6.662   6.488  17.292 -0.9496 -1.0693  0.8875
 7075TIP3    H242717   6.683   6.415  17.161 -1.3440 -0.0970  0.2732
 7076TIP3   OH242718   6.712   0.087  16.825 -0.3313 -0.4418  0.2235
 7076TIP3    H142719   6.723  -0.000  16.863  0.7218 -0.4758 -0.1412
 7076TIP3    H242720   6.620   0.109  16.842 -0.0720 -0.7516  2.1339
 7077TIP3   OH242721   1.024   3.221   0.292 -0.1100 -0.0333 -0.1494
 7077TIP3    H142722   1.074   3.267   0.225 -1.8158 -0.1154 -1.5419
 7077TIP3    H242723   1.061   3.133   0.294 -1.5371 -0.7374 -2.6996
 7078TIP3   OH242724   1.278   1.955   0.024  0.5548  0.1470 -0.0274
 7078TIP3    H142725   1.317   2.038   0.054  1.1828 -0.4809  0.9117
 7078TIP3    H242726   1.343   1.918  -0.035  0.2667  0.3246 -0.4593
 7079TIP3   OH242727   5.185   5.312  12.545 -0.7035 -0.1355 -0.1454
 7079TIP3    H142728   5.146   5.386  12.499 -2.4745 -0.4949  0.7477
 7079TIP3    H242729   5.271   5.302  12.505 -1.3240  0.9781 -1.8123
 7080TIP3   OH242730   5.805   3.592  17.181 -0.0762 -0.2535  0.7291
 7080TIP3    H142731   5.780   3.684  17.182 -0.7384 -0.4336  0.7042
 7080TIP3    H242732   5.850   3.581  17.097  1.7826  0.5109  1.5974
 7081TIP3   OH242733   2.203   2.955   2.634 -0.0062 -0.2448  0.2239
 7081TIP3    H142734   2.242   2.972   2.548 -0.6121 -0.7476 -0.1583
 7081TIP3    H242735   2.240   2.870   2.660 -1.5680 -1.2118 -0.5879
 7082TIP3   OH242736   0.827   5.587  13.045 -0.2219 -0.1603  0.1128
 7082TIP3    H142737   0.754   5.617  12.992  0.3455  1.6017  0.3052
 7082TIP3    H242738   0.800   5.604  13.136  0.3485  0.3813  0.1916
 7083TIP3   OH242739   3.753   2.415   3.114  0.1639 -0.3822  0.0326
 7083TIP3    H142740   3.845   2.388   3.115  0.1769 -0.4388 -1.8896
 7083TIP3    H242741   3.732   2.426   3.022 -1.1106  1.8958  0.5456
 7084TIP3   OH242742   0.785   0.093  12.444  0.7551 -0.0349  0.0979
 7084TIP3    H142743   0.779   0.177  12.399  1.5299 -1.9186 -3.7695
 7084TIP3    H242744   0.871   0.058  12.418  0.0591 -2.4049  0.8313
 7085TIP3   OH242745   0.311   6.234  14.649  0.5683  0.0142  0.0962
 7085TIP3    H142746   0.335   6.180  14.575  0.8703 -0.0523  0.2435
 7085TIP3    H242747   0.305   6.323  14.614 -0.3494 -0.1786 -0.2339
 7086TIP3   OH242748   1.753   3.057   3.141  0.0312  0.6209 -0.1500
 7086TIP3    H142749   1.834   3.107   3.151 -0.7169  2.0018 -0.9041
 7086TIP3    H242750   1.700   3.109   3.081 -0.9574 -0.8468 -0.5552
 7087TIP3   OH242751   1.669   3.339  14.601  0.9033 -0.3219  0.3662
 7087TIP3    H142752   1.594   3.289  14.568 -0.1395 -0.1912  2.4293
 7087TIP3    H242753   1.742   3.277  14.599  0.1097 -1.2820  0.8640
 7088TIP3   OH242754   0.259   2.090  11.768  0.0804  1.1358  0.1213
 7088TIP3    H142755   0.297   2.015  11.720  0.3146  0.3420  1.5184
 7088TIP3    H242756   0.333   2.149  11.782  0.7471 -0.1651  2.3739
 7089TIP3   OH242757   0.159   4.777   0.649 -0.2437  0.4561  0.9217
 7089TIP3    H142758   0.172   4.790   0.555  0.0955 -0.9912  0.7494
 7089TIP3    H242759   0.111   4.854   0.678  0.4818  1.3695 -0.2633
 7090TIP3   OH242760   6.056   5.477  16.332 -0.2367 -0.2635  0.1314
 7090TIP3    H142761   5.964   5.495  16.352  0.3926  1.0968  1.9442
 7090TIP3    H242762   6.088   5.557  16.290 -0.1605 -1.1563 -1.5412
 7091TIP3   OH242763   4.754   1.146  16.226 -0.1640  0.3956 -0.0788
 7091TIP3    H142764   4.826   1.087  16.251  0.3125  0.2016 -1.8723
 7091TIP3    H242765   4.679   1.088  16.214 -1.1554  0.7887  3.6046
 7092TIP3   OH242766   5.397   2.317   4.268  0.2930 -0.0051 -0.5500
 7092TIP3    H142767   5.389   2.344   4.359 -0.1697  0.5276 -0.7493
 7092TIP3    H242768   5.344   2.237   4.262  0.4987 -0.1588 -0.3006
 7093TIP3   OH242769   0.482   6.091  15.865 -0.1330 -0.0019  0.4590
 7093TIP3    H142770   0.534   6.094  15.945 -0.0515  0.0487  0.4033
 7093TIP3    H242771   0.416   6.023  15.882  0.3731 -0.5426  0.2640
 7094TIP3   OH242772   2.172   2.426   5.689 -0.1018 -0.4868  0.2593
 7094TIP3    H142773   2.248   2.483   5.702 -0.4519 -0.5020  2.6579
 7094TIP3    H242774   2.203   2.338   5.710 -0.2703 -0.7731 -0.6947
 7095TIP3   OH242775   1.196   0.707   0.080  0.0841 -0.1149  0.1450
 7095TIP3    H142776   1.210   0.797   0.106  1.6657 -0.7548  1.5373
 7095TIP3    H242777   1.119   0.679   0.129 -0.7133  0.6085 -0.6726
 7096TIP3   OH242778   0.168   4.969  11.965 -0.4711 -0.0347 -0.3980
 7096TIP3    H142779   0.080   5.005  11.972  0.2109  1.4185  0.8743
 7096TIP3    H242780   0.181   4.954  11.872 -1.8746  0.2243 -0.6355
 7097TIP3   OH242781   5.182   2.984  15.542 -0.2480 -0.5375 -0.4185
 7097TIP3    H142782   5.190   3.013  15.632 -1.3706  1.1438 -0.8379
 7097TIP3    H242783   5.258   3.020  15.497 -0.2028 -0.5535 -0.3547
 7098TIP3   OH242784   0.235   4.739   6.717  0.5759  0.4201 -0.3478
 7098TIP3    H142785   0.187   4.665   6.752 -0.3507  1.6420  1.0436
 7098TIP3    H242786   0.201   4.815   6.765  3.0661  1.4706 -0.1689
 7099TIP3   OH242787   4.155   4.567   3.404  0.5304  0.1097 -0.5343
 7099TIP3    H142788   4.096   4.557   3.480 -1.8505 -2.3719 -2.6137
 7099TIP3    H242789   4.240   4.538   3.436 -0.0210  0.8176  1.6941
 7100TIP3   OH242790   6.483   3.699  15.507  0.5264 -0.3194 -0.2806
 7100TIP3    H142791   6.394   3.720  15.536 -0.6423 -0.9107 -3.2025
 7100TIP3    H242792   6.538   3.713  15.584 -1.8686  1.6021  1.1546
 7101TIP3   OH242793   3.879   1.527  14.052 -0.0465  0.0087 -0.0537
 7101TIP3    H142794   3.918   1.453  14.098  1.4967  0.7200 -0.1922
 7101TIP3    H242795   3.939   1.545  13.980 -1.5996 -0.0511 -1.3995
 7102TIP3   OH242796   2.429   4.628  14.751  0.3113 -0.1433 -0.5228
 7102TIP3    H142797   2.366   4.669  14.810 -0.4916 -1.1036 -0.7035
 7102TIP3    H242798   2.441   4.691  14.681  0.4356  0.5379  0.1007
 7103TIP3   OH242799   0.126   5.723  17.119 -0.0691  0.0512  0.0200
 7103TIP3    H142800   0.110   5.795  17.058 -1.8946  0.5346  1.0412
 7103TIP3    H242801   0.040   5.681  17.129  0.6491 -1.2919  0.6681
 7104TIP3   OH242802   5.503   4.429  10.906 -0.4036  0.2375 -0.0196
 7104TIP3    H142803   5.513   4.341  10.869 -1.7688 -0.2844  0.8167
 7104TIP3    H242804   5.486   4.413  10.999  0.1538  1.4243  0.2927
 7105TIP3   OH242805   0.389   3.583   3.581  0.0701 -0.2696  0.3262
 7105TIP3    H142806   0.419   3.587   3.490 -0.0630  1.8857  0.3389
 7105TIP3    H242807   0.331   3.659   3.590  1.0298  0.2522  2.5225
 7106TIP3   OH242808   2.652   4.917   5.048 -0.4894  0.0651 -0.3257
 7106TIP3    H142809   2.589   4.954   5.110  1.1178  1.4961  0.5100
 7106TIP3    H242810   2.670   4.989   4.987  1.0789  0.0291  0.0641
 7107TIP3   OH242811   3.032   1.912   5.147 -0.0667 -0.4778 -0.1752
 7107TIP3    H142812   3.027   1.901   5.242  0.0560  1.1176  0.0344
 7107TIP3    H242813   3.115   1.957   5.132  0.2516 -1.3572 -1.1072
 7108TIP3   OH242814   1.593   1.099  11.931 -0.0549 -0.0864 -0.5938
 7108TIP3    H142815   1.669   1.154  11.915  0.5467 -0.5809  0.5479
 7108TIP3    H242816   1.611   1.056  12.014 -0.8014 -1.5367 -1.1683
 7109TIP3   OH242817   0.528   5.987  14.857 -0.6281  0.5770  0.2421
 7109TIP3    H142818   0.606   5.956  14.902 -0.5619 -0.1667 -0.3935
 7109TIP3    H242819   0.558   6.014  14.771 -0.6875  2.3924  0.7649
 7110TIP3   OH242820   2.258   3.349   4.189 -0.3897 -0.0034  0.4261
 7110TIP3    H142821   2.323   3.346   4.259  1.4252 -0.6154 -1.2289
 7110TIP3    H242822   2.309   3.360   4.109 -2.4929  2.3520 -0.6938
 7111TIP3   OH242823   6.750   5.238  14.914 -0.0867 -0.7575 -0.3804
 7111TIP3    H142824   6.787   5.246  15.002  0.0078  0.0852 -0.4911
 7111TIP3    H242825   6.656   5.255  14.926 -0.0949 -0.7722 -0.4213
 7112TIP3   OH242826   3.739   3.614  11.741  0.1324 -0.0900 -0.3670
 7112TIP3    H142827   3.815   3.556  11.736 -0.6430 -1.1662 -0.0051
 7112TIP3    H242828   3.706   3.618  11.651 -0.1950 -0.7556 -0.2849
 7113TIP3   OH242829   2.107   0.686   3.426 -0.0558  0.3227 -0.1490
 7113TIP3    H142830   2.078   0.685   3.335  0.3209  2.1752 -0.2999
 7113TIP3    H242831   2.196   0.650   3.423  0.0062  0.5035 -0.5349
 7114TIP3   OH242832   1.112   3.862   0.635  0.0139  0.2227 -0.2262
 7114TIP3    H142833   1.099   3.945   0.681 -0.3800  0.2286 -0.3475
 7114TIP3    H242834   1.133   3.800   0.705 -1.3700  0.0576  0.0628
 7115TIP3   OH242835   5.975   2.252  16.231  0.0487  0.2943  0.0727
 7115TIP3    H142836   5.903   2.262  16.293  0.5075 -1.8135  0.9798
 7115TIP3    H242837   6.054   2.264  16.284  0.4173 -0.3446 -0.3209
 7116TIP3   OH242838   3.167   5.396  14.169 -0.1360 -0.0850  0.5470
 7116TIP3    H142839   3.160   5.327  14.103  1.7351 -1.0067  1.2674
 7116TIP3    H242840   3.176   5.477  14.119 -0.7703 -0.5355 -0.3125
 7117TIP3   OH242841   4.110   2.013  13.403  0.2177  0.6103  0.0954
 7117TIP3    H142842   4.025   2.043  13.433  0.6208  0.7601  1.0891
 7117TIP3    H242843   4.097   1.922  13.379 -0.1618  0.5675  0.4750
 7118TIP3   OH242844   2.929   0.426  14.740  0.1766 -0.6083  0.0551
 7118TIP3    H142845   2.909   0.503  14.687 -0.4823 -0.0020  1.1401
 7118TIP3    H242846   2.916   0.456  14.830 -2.8054 -2.7217  0.4147
 7119TIP3   OH242847   2.921   1.945  15.230 -0.1265 -0.4334  0.3161
 7119TIP3    H142848   2.834   1.907  15.236 -0.9275  0.8561 -2.2970
 7119TIP3    H242849   2.961   1.903  15.154 -0.9898  3.6639 -2.5457
 7120TIP3   OH242850   1.242   2.711  13.298 -0.1506  0.0184 -0.0363
 7120TIP3    H142851   1.226   2.780  13.361  0.5058  0.3289 -0.2058
 7120TIP3    H242852   1.291   2.753  13.227 -0.2893 -0.4731 -0.4321
 7121TIP3   OH242853   2.917   5.938   0.295 -0.2674 -0.2008 -0.0632
 7121TIP3    H142854   2.995   5.913   0.247  0.2409  1.1690  0.0284
 7121TIP3    H242855   2.866   5.991   0.234  0.4165  1.6096  0.8930
 7122TIP3   OH242856   1.494   2.338  12.951 -0.3209  0.6411  0.6715
 7122TIP3    H142857   1.543   2.257  12.943 -2.6180 -0.5294 -2.1574
 7122TIP3    H242858   1.413   2.314  12.997  0.0458  1.8456  2.0195
 7123TIP3   OH242859   1.563   2.583  11.907  0.1096  0.7311 -0.1609
 7123TIP3    H142860   1.467   2.585  11.916  0.2791  1.8939  1.5431
 7123TIP3    H242861   1.589   2.674  11.916  1.3266  0.5056 -1.3762
 7124TIP3   OH242862   1.186   5.125   4.415  0.5630  0.1203 -1.1984
 7124TIP3    H142863   1.092   5.110   4.408  0.2746  0.6519  1.0979
 7124TIP3    H242864   1.224   5.037   4.419  0.0730 -0.0962 -1.2576
 7125TIP3   OH242865   0.578   5.239   5.245 -0.1414 -0.0016 -0.2756
 7125TIP3    H142866   0.496   5.261   5.289 -0.0890  1.1184 -0.7156
 7125TIP3    H242867   0.632   5.199   5.313 -0.3242  1.0717  0.5214
 7126TIP3   OH242868   6.648   1.465   3.814  0.0334  0.0572 -0.7281
 7126TIP3    H142869   6.712   1.480   3.884 -1.5783  0.1573  0.7462
 7126TIP3    H242870   6.639   1.550   3.772 -0.0744  0.3436 -0.1335
 7127TIP3   OH242871   2.603   6.553   1.683 -0.3036  0.0203 -0.1957
 7127TIP3    H142872   2.696   6.529   1.690 -0.0967  1.3459  2.1112
 7127TIP3    H242873   2.558   6.470   1.670  1.2237 -0.6239 -1.5810
 7128TIP3   OH242874   0.955   3.007  12.314  0.0027 -0.3329 -0.3123
 7128TIP3    H142875   0.887   2.947  12.342 -1.7074  1.7043  0.0414
 7128TIP3    H242876   0.957   2.999  12.219  0.5073 -1.6841 -0.1935
 7129TIP3   OH242877   0.124   3.029  11.633  0.6482  0.0187  0.4239
 7129TIP3    H142878   0.141   3.103  11.692 -2.1999  1.0017  0.0721
 7129TIP3    H242879   0.200   3.028  11.574  1.8910  1.1188  1.9725
 7130TIP3   OH242880   0.144   3.297  12.906  0.2867  0.3199  1.1790
 7130TIP3    H142881   0.112   3.346  12.982  1.5960  0.8183  1.4421
 7130TIP3    H242882   0.240   3.304  12.913  0.4054  1.2119 -1.0523
 7131TIP3   OH242883   4.682   4.082  13.488  0.0081  0.1227  0.1039
 7131TIP3    H142884   4.669   4.145  13.418 -1.5377 -0.4677 -0.1639
 7131TIP3    H242885   4.610   4.099  13.549  0.5938 -0.2258  0.9140
 7132TIP3   OH242886   5.470   2.192  13.147  0.0520 -0.1562 -0.4054
 7132TIP3    H142887   5.505   2.194  13.058 -0.4271 -0.3286 -0.6037
 7132TIP3    H242888   5.397   2.254  13.145  1.2804  1.3517  0.4117
 7133TIP3   OH242889   6.754   1.033   4.619  0.3266  0.5768  0.4127
 7133TIP3    H142890   6.703   1.113   4.613  1.8611  1.5142 -0.4083
 7133TIP3    H242891   6.832   1.057   4.669  1.2389 -0.1710 -0.6344
 7134TIP3   OH242892   6.178   3.357  16.793 -0.0155 -0.1777 -0.1127
 7134TIP3    H142893   6.265   3.363  16.834  0.8014 -0.4166 -1.7950
 7134TIP3    H242894   6.195   3.361  16.699 -1.7576 -1.1339 -0.4855
 7135TIP3   OH242895   0.292   3.892   4.359  0.1454  0.5226  0.1263
 7135TIP3    H142896   0.268   3.833   4.430 -2.3457  1.4065  0.0494
 7135TIP3    H242897   0.366   3.942   4.393 -1.1109  1.0507  2.1781
 7136TIP3   OH242898   6.553   6.422   2.082  0.5220 -0.4477  0.9105
 7136TIP3    H142899   6.646   6.407   2.062  0.0617 -2.2575  0.0103
 7136TIP3    H242900   6.547   6.416   2.177  1.5002  0.7387  1.0568
 7137TIP3   OH242901   4.826   2.162   1.331  0.0536  0.3365 -0.0277
 7137TIP3    H142902   4.780   2.171   1.247 -0.1292  0.9058  0.1321
 7137TIP3    H242903   4.785   2.226   1.388 -0.7279 -0.9658  0.9085
 7138TIP3   OH242904   5.989   1.905  16.878  0.1073 -0.1901 -0.5937
 7138TIP3    H142905   6.014   1.929  16.788  0.0122  1.4867 -0.1754
 7138TIP3    H242906   6.025   1.817  16.889  2.2774  0.5651 -1.4170
 7139TIP3   OH242907   4.664   5.792  13.285 -0.1560 -0.4676  0.0748
 7139TIP3    H142908   4.691   5.815  13.197 -0.5504 -1.7168 -0.3914
 7139TIP3    H242909   4.745   5.773  13.332  0.0194 -0.3954 -0.2023
 7140TIP3   OH242910   2.184   4.255   0.887  0.2128 -0.6762 -0.0252
 7140TIP3    H142911   2.227   4.171   0.902 -1.7171 -1.6167  0.4851
 7140TIP3    H242912   2.092   4.238   0.907 -0.1613  1.6416  0.3819
 7141TIP3   OH242913   3.168   2.058   2.893 -0.1458  0.3741  0.4874
 7141TIP3    H142914   3.084   2.105   2.890 -0.9075 -0.9537  0.6947
 7141TIP3    H242915   3.176   2.030   2.985 -0.0179 -0.4713  0.2177
 7142TIP3   OH242916   3.610   2.958   5.503  0.4662  0.1362 -0.0215
 7142TIP3    H142917   3.542   3.001   5.556  1.5469 -0.9835  2.3535
 7142TIP3    H242918   3.675   2.928   5.567  1.3167 -2.1850 -1.8925
 7143TIP3   OH242919   2.511   1.400   1.789  0.6376 -0.4324 -0.1556
 7143TIP3    H142920   2.515   1.408   1.884  0.8402  1.3858 -0.3072
 7143TIP3    H242921   2.441   1.460   1.763  2.8363  1.6770 -1.4381
 7144TIP3   OH242922   5.941   0.465  16.277  0.3158  0.2668  0.1118
 7144TIP3    H142923   5.985   0.430  16.199 -1.5840  0.3164 -1.0275
 7144TIP3    H242924   5.930   0.389  16.334  0.3422 -0.0858 -0.3465
 7145TIP3   OH242925   1.173   4.500  16.612  0.1039 -0.8575 -0.0385
 7145TIP3    H142926   1.157   4.546  16.695  0.1039 -3.4176  1.4371
 7145TIP3    H242927   1.268   4.503  16.602  0.0790 -0.2479 -0.1362
 7146TIP3   OH242928   2.443   5.092  12.844 -0.2701 -0.2008  0.3610
 7146TIP3    H142929   2.440   4.998  12.863  2.6008 -0.0419  1.9131
 7146TIP3    H242930   2.433   5.134  12.929 -2.1782  0.9613 -0.4085
 7147TIP3   OH242931   2.669   1.528  10.614 -0.0134 -0.4261 -0.1284
 7147TIP3    H142932   2.756   1.557  10.587 -0.2332  0.3131 -0.0546
 7147TIP3    H242933   2.616   1.534  10.535  0.2571 -1.8805 -0.4182
 7148TIP3   OH242934   1.397   6.390   4.414  0.1961 -0.3127  0.6764
 7148TIP3    H142935   1.448   6.366   4.337 -2.8363  1.2708 -1.9537
 7148TIP3    H242936   1.427   6.478   4.437 -0.3897  0.0608  0.0011
 7149TIP3   OH242937   2.724   2.420  14.827 -0.3760  0.3324  0.0211
 7149TIP3    H142938   2.651   2.366  14.857 -0.1477 -0.7074 -1.2767
 7149TIP3    H242939   2.778   2.361  14.775  0.3279  1.6090 -0.7161
 7150TIP3   OH242940   4.090   5.442  16.329  0.1871  0.5492 -0.0123
 7150TIP3    H142941   4.170   5.490  16.308  1.3480 -1.0976  0.5644
 7150TIP3    H242942   4.102   5.413  16.419  0.4197 -2.5429 -0.9858
 7151TIP3   OH242943   2.469   2.413   5.462  0.2042 -0.7056 -0.5108
 7151TIP3    H142944   2.423   2.412   5.547 -0.3628  1.2551 -0.7577
 7151TIP3    H242945   2.399   2.405   5.397  0.5685 -1.4575 -0.8082
 7152TIP3   OH242946   6.592   2.229   1.684  0.0186  0.1386 -0.4020
 7152TIP3    H142947   6.672   2.272   1.714 -1.0512  0.3328  2.2720
 7152TIP3    H242948   6.521   2.282   1.720 -1.3415 -0.7112 -1.7565
 7153TIP3   OH242949   3.628   5.391   1.010  0.3006 -0.8989  0.1089
 7153TIP3    H142950   3.714   5.350   1.005  0.7757  0.1684 -0.8563
 7153TIP3    H242951   3.576   5.346   0.944  0.2676 -1.2198  0.3562
 7154TIP3   OH242952   1.002   2.715  13.537  0.3421  0.2230 -0.3157
 7154TIP3    H142953   0.944   2.758  13.600 -1.0324  0.6679 -1.8279
 7154TIP3    H242954   1.084   2.764  13.542  0.5588 -0.2998  1.7305
 7155TIP3   OH242955   0.784   1.627   2.730 -0.7243  0.4453 -0.0313
 7155TIP3    H142956   0.762   1.719   2.744  0.0693  0.7541 -0.7278
 7155TIP3    H242957   0.718   1.595   2.668 -0.6588  0.7149 -0.2424
 7156TIP3   OH242958   2.632   1.324   3.248 -0.2154 -0.4912  0.1869
 7156TIP3    H142959   2.639   1.248   3.191  0.1530  0.0222 -0.4649
 7156TIP3    H242960   2.552   1.369   3.219  0.6218  0.4289 -0.7551
 7157TIP3   OH242961   1.968   1.356  12.783  0.5421 -0.4727  0.6043
 7157TIP3    H142962   2.049   1.406  12.772  0.1628  0.3963  1.6425
 7157TIP3    H242963   1.968   1.295  12.710  2.0148 -0.3149  0.4435
 7158TIP3   OH242964   3.223   0.120   0.463  0.4921  0.1740  0.2089
 7158TIP3    H142965   3.248   0.185   0.397  0.7086 -0.8522 -0.7190
 7158TIP3    H242966   3.298   0.117   0.522  0.5859  0.5802  0.1163
 7159TIP3   OH242967   5.163   4.605  14.951 -0.1467 -0.3782  0.2390
 7159TIP3    H142968   5.156   4.693  14.989  0.5266  0.4029 -1.4137
 7159TIP3    H242969   5.079   4.590  14.909 -0.1292 -0.3846  0.2068
 7160TIP3   OH242970   0.015   2.220  14.620 -0.0931  0.4358 -0.2777
 7160TIP3    H142971   0.107   2.199  14.633 -0.1118 -0.3220 -1.2763
 7160TIP3    H242972   0.014   2.271  14.538 -0.5433  0.5558 -0.1982
 7161TIP3   OH242973   3.240   0.304  16.024  0.0957  0.5551 -0.3526
 7161TIP3    H142974   3.302   0.279  16.094 -1.2631 -0.7056  0.4417
 7161TIP3    H242975   3.160   0.329  16.071 -0.0100  2.1776 -1.3717
 7162TIP3   OH242976   3.982   3.138  16.858  0.2048  0.1090 -0.5374
 7162TIP3    H142977   4.014   3.218  16.816 -0.7875  0.5659 -0.4475
 7162TIP3    H242978   3.891   3.130  16.828 -0.5766  0.5212  1.6039
 7163TIP3   OH242979   2.943   2.259  15.218 -0.0130 -0.0907 -0.4152
 7163TIP3    H142980   2.915   2.168  15.222  3.0511 -1.0060  1.2154
 7163TIP3    H242981   2.986   2.267  15.133  1.0167 -0.5661  0.0582
 7164TIP3   OH242982   4.572   1.425  17.024 -0.6716  0.5546  0.3737
 7164TIP3    H142983   4.511   1.475  17.079 -3.5023 -2.3811  0.0728
 7164TIP3    H242984   4.628   1.378  17.086 -1.9141 -0.4504  0.7590
 7165TIP3   OH242985   1.913   5.273   0.058 -0.5685  0.1082  0.0808
 7165TIP3    H142986   1.934   5.361   0.090  0.3335 -0.7375  1.8601
 7165TIP3    H242987   1.819   5.278   0.038 -0.7703  1.1764  1.1817
 7166TIP3   OH242988   3.308   5.808  12.798  0.4602  0.4044  0.3640
 7166TIP3    H142989   3.264   5.723  12.803 -0.2902  0.9358  3.7806
 7166TIP3    H242990   3.236   5.871  12.791  0.9979  0.8220 -1.6808
 7167TIP3   OH242991   1.546   6.739  13.225  0.1750  0.2952 -0.3067
 7167TIP3    H142992   1.459   6.759  13.190 -0.1660  1.3314  1.0935
 7167TIP3    H242993   1.529   6.676  13.295  0.7995 -1.3383 -1.5945
 7168TIP3   OH242994   1.414   4.609   0.863 -0.2680  0.9497 -0.3738
 7168TIP3    H142995   1.349   4.626   0.932 -1.1319  0.6454 -1.1038
 7168TIP3    H242996   1.441   4.518   0.878  1.3201  1.6375  1.0220
 7169TIP3   OH242997   5.680   3.084  15.459 -0.1523  0.1946  0.6730
 7169TIP3    H142998   5.646   3.127  15.538  0.2580 -0.6440  1.3147
 7169TIP3    H242999   5.770   3.060  15.482 -0.6158 -1.6876  0.5993
 7170TIP3   OH243000   0.927   2.652   6.511  0.0320 -0.5989  0.1476
 7170TIP3    H143001   1.017   2.674   6.490 -0.0699 -0.5587 -0.2532
 7170TIP3    H243002   0.896   2.602   6.436 -0.9153  1.1361 -0.6578
 7171TIP3   OH243003   4.271   0.364  13.491  0.0577  0.1452 -0.4185
 7171TIP3    H143004   4.254   0.313  13.412  0.3895 -0.2528 -0.2343
 7171TIP3    H243005   4.349   0.415  13.470 -0.9280  1.4425 -1.0099
 7172TIP3   OH243006   6.090   6.430  12.756  0.1630  0.7029  0.3638
 7172TIP3    H143007   6.118   6.451  12.667  0.3545  0.1420  0.2851
 7172TIP3    H243008   6.167   6.448  12.810  0.5210 -0.3215  0.2203
 7173TIP3   OH243009   6.137   4.266  13.259 -0.1760 -0.4531  0.0979
 7173TIP3    H143010   6.185   4.220  13.190 -0.2475  0.5396 -0.6191
 7173TIP3    H243011   6.205   4.301  13.317 -0.1146 -1.2650  0.5175
 7174TIP3   OH243012   3.722   6.405   0.555 -0.0148  0.3058  0.4867
 7174TIP3    H143013   3.757   6.338   0.496 -0.1397 -0.1473  0.9212
 7174TIP3    H243014   3.713   6.483   0.500  0.4470  0.0613  0.0584
 7175TIP3   OH243015   0.283   3.028  16.826  0.3424 -0.5712 -0.3826
 7175TIP3    H143016   0.282   3.110  16.776 -0.8719  0.7809  1.7785
 7175TIP3    H243017   0.373   2.998  16.822  1.0109  1.3799 -0.4511
 7176TIP3   OH243018   3.047   2.715   2.322 -0.1261  0.0370  0.0427
 7176TIP3    H143019   3.020   2.739   2.410 -0.7178  1.8966 -0.6290
 7176TIP3    H243020   3.126   2.661   2.335 -0.8297 -0.6063  1.7320
 7177TIP3   OH243021   2.695   0.790  13.066  0.2797  0.5360  0.8408
 7177TIP3    H143022   2.633   0.839  13.012 -1.0793 -1.2573  0.7173
 7177TIP3    H243023   2.744   0.736  13.004  1.0786  0.9882  1.0708
 7178TIP3   OH243024   2.306   5.484  14.664  0.1169  0.7892  0.6624
 7178TIP3    H143025   2.245   5.457  14.595  1.4277  0.7429 -0.5009
 7178TIP3    H243026   2.311   5.579  14.656  0.1531  0.7980  0.7982
 7179TIP3   OH243027   2.040   0.797  11.021  0.0898  0.0018  0.3414
 7179TIP3    H143028   2.095   0.722  11.001  0.6413  0.4911 -0.0106
 7179TIP3    H243029   2.047   0.808  11.115  0.0292 -0.3750  0.3881
 7180TIP3   OH243030   1.510   4.564   3.253  0.1001 -0.2982  0.3155
 7180TIP3    H143031   1.440   4.531   3.196  1.6971 -1.8288 -0.8263
 7180TIP3    H243032   1.499   4.514   3.334 -1.3825  0.9541  0.9083
 7181TIP3   OH243033   1.925   5.512   0.179  0.1189  0.6737  0.1331
 7181TIP3    H143034   1.992   5.579   0.182  1.0370 -0.1349 -1.3954
 7181TIP3    H243035   1.844   5.559   0.157  0.5934  1.3882 -0.0834
 7182TIP3   OH243036   5.106   0.290   3.158 -0.6414  0.4031 -0.1222
 7182TIP3    H143037   5.083   0.237   3.235  0.5229  1.2305  0.8114
 7182TIP3    H243038   5.201   0.288   3.155 -0.6880  0.2285 -1.6792
 7183TIP3   OH243039   4.844   0.438  16.239 -0.8787 -0.0107  0.3480
 7183TIP3    H143040   4.826   0.512  16.298 -1.4289  0.8559 -0.8947
 7183TIP3    H243041   4.924   0.398  16.274  0.9325  2.7620 -0.5229
 7184TIP3   OH243042   3.522   2.769   3.431 -0.1721 -0.3131 -0.6368
 7184TIP3    H143043   3.491   2.846   3.383 -0.1628 -0.6629 -1.1941
 7184TIP3    H243044   3.599   2.801   3.478 -0.9888  0.3936  0.2581
 7185TIP3   OH243045   2.772   0.683   0.838 -0.7173 -0.0649  0.3577
 7185TIP3    H143046   2.686   0.697   0.797 -0.7725 -2.4710 -0.4211
 7185TIP3    H243047   2.829   0.660   0.764  0.2171 -0.0824  1.0865
 7186TIP3   OH243048   1.923   5.011   3.424 -0.1101 -0.0778 -0.3235
 7186TIP3    H143049   1.949   5.065   3.349  1.3539 -0.2490  0.0619
 7186TIP3    H243050   1.931   4.921   3.393  0.7581 -0.1546  0.1241
 7187TIP3   OH243051   3.935   3.767   3.629  0.1915  0.1715 -0.0163
 7187TIP3    H143052   3.963   3.812   3.708  2.0671  1.4804 -1.4001
 7187TIP3    H243053   3.900   3.683   3.660 -0.2899  1.2068  2.2855
 7188TIP3   OH243054   5.572   0.748  17.181  0.4553  0.2293  0.2464
 7188TIP3    H143055   5.502   0.730  17.118 -1.1354  3.1514  1.0976
 7188TIP3    H243056   5.644   0.781  17.127  0.3573 -0.5841 -0.3941
 7189TIP3   OH243057   3.032   2.716   5.517  0.0307  0.3490 -0.6234
 7189TIP3    H143058   2.965   2.700   5.451 -1.1744 -0.0425  0.6647
 7189TIP3    H243059   3.033   2.636   5.571 -0.5462  1.4921  1.1397
 7190TIP3   OH243060   0.193   1.551   2.871 -0.1133 -0.1040  0.2082
 7190TIP3    H143061   0.213   1.638   2.838  1.5502 -0.3810  0.4213
 7190TIP3    H243062   0.181   1.563   2.965  0.7635 -0.1869  0.3398
 7191TIP3   OH243063   0.400   2.149   2.087 -0.0987  0.2847  0.4785
 7191TIP3    H143064   0.456   2.217   2.124  0.3570  0.8646 -1.2098
 7191TIP3    H243065   0.458   2.075   2.072 -0.4837 -0.2983  1.8121
 7192TIP3   OH243066   5.760   0.778  16.851  0.3430  0.2587  0.0620
 7192TIP3    H143067   5.729   0.865  16.826  0.3052  0.3556  0.4372
 7192TIP3    H243068   5.819   0.794  16.925  1.0033  0.0424 -0.4116
 7193TIP3   OH243069   3.303   3.654   1.785  0.2022  0.3278 -0.0161
 7193TIP3    H143070   3.293   3.592   1.712 -1.6645  1.0354 -0.4030
 7193TIP3    H243071   3.313   3.598   1.862  0.2990 -0.4449 -0.5783
 7194TIP3   OH243072   2.849   3.959   3.487 -0.3925  0.1225 -0.2635
 7194TIP3    H143073   2.928   3.921   3.525  0.1945  0.8591 -0.7377
 7194TIP3    H243074   2.780   3.941   3.551  0.3447  0.3013  0.5828
 7195TIP3   OH243075   2.492   6.276   3.414 -0.1259  0.0275  0.7091
 7195TIP3    H143076   2.492   6.207   3.480 -3.1749 -1.7022 -0.9647
 7195TIP3    H243077   2.445   6.349   3.455 -1.2115 -0.7098  0.7860
 7196TIP3   OH243078   0.549   6.243  17.086  0.1200  0.0028 -0.0083
 7196TIP3    H143079   0.523   6.271  16.999 -0.4752  2.3172  0.8805
 7196TIP3    H243080   0.616   6.175  17.071  0.3648  0.7004 -2.2254
 7197TIP3   OH243081   6.451   5.738  14.261 -0.0004  0.6277 -0.9224
 7197TIP3    H143082   6.534   5.707  14.297 -1.2845 -2.0066 -0.0357
 7197TIP3    H243083   6.442   5.827  14.294  2.0265  0.6142 -0.2710
 7198TIP3   OH243084   6.556   3.471  15.342  0.3281 -0.5232  0.7447
 7198TIP3    H143085   6.521   3.408  15.405  0.1527 -0.2741  0.8966
 7198TIP3    H243086   6.565   3.553  15.391  1.2065 -0.6010  0.7374
 7199TIP3   OH243087   1.316   6.259   4.636  0.3218  0.4177  0.2455
 7199TIP3    H143088   1.338   6.339   4.589 -0.6101  0.9864  0.7613
 7199TIP3    H243089   1.344   6.188   4.578 -0.6617  1.1012 -1.1066
 7200TIP3   OH243090   5.820   6.553  15.592  0.4497 -0.1619  0.1781
 7200TIP3    H143091   5.894   6.493  15.591  0.0928 -0.6237  0.8498
 7200TIP3    H243092   5.778   6.543  15.507  0.4218 -0.8279  0.2724
 7201TIP3   OH243093   5.011   3.486  16.275  0.3399 -0.9425 -0.2346
 7201TIP3    H143094   4.935   3.436  16.304  1.1690 -2.2766 -0.3245
 7201TIP3    H243095   5.045   3.526  16.355  1.4469 -2.9906  0.3512
 7202TIP3   OH243096   2.337   5.481  13.386 -0.3070  0.6653 -0.2942
 7202TIP3    H143097   2.286   5.528  13.320 -2.0299 -1.9211 -0.8968
 7202TIP3    H243098   2.379   5.410  13.338  1.1352  0.7380  0.8294
 7203TIP3   OH243099   3.295   5.934   1.151 -0.1510  0.4459  0.1584
 7203TIP3    H143100   3.325   5.844   1.167  0.6574  1.0668  2.2298
 7203TIP3    H243101   3.201   5.931   1.172 -0.7123 -0.5024 -2.2970
 7204TIP3   OH243102   4.115   1.362  13.996  0.6842 -0.1208 -0.3049
 7204TIP3    H143103   4.197   1.398  13.963  0.2017 -0.5555 -1.9957
 7204TIP3    H243104   4.127   1.361  14.091  2.5882 -0.0498 -0.5143
 7205TIP3   OH243105   4.762   1.528  13.550  0.0126  0.2294  0.2318
 7205TIP3    H143106   4.835   1.488  13.596 -0.7052 -0.0433  1.1420
 7205TIP3    H243107   4.764   1.489  13.463  1.1140  0.4322  0.1631
 7206TIP3   OH243108   1.924   1.887   0.553 -0.3851 -0.3642 -0.0991
 7206TIP3    H143109   1.976   1.820   0.597 -1.5232 -1.1693  0.0309
 7206TIP3    H243110   1.833   1.858   0.563 -0.7514  0.0769 -1.9179
 7207TIP3   OH243111   0.175   4.474   4.841 -0.0396 -0.9386 -0.5422
 7207TIP3    H143112   0.248   4.533   4.821 -0.9903  0.6682  0.6637
 7207TIP3    H243113   0.099   4.531   4.848 -0.5348 -1.9326  3.0821
 7208TIP3   OH243114   3.045   3.628  14.715 -0.2661  0.3598 -0.5312
 7208TIP3    H143115   3.118   3.677  14.677 -1.4795  2.0355 -0.7468
 7208TIP3    H243116   3.000   3.589  14.640  1.0587 -1.6749 -0.3234
 7209TIP3   OH243117   6.418   5.540   1.828  0.0914 -0.2172  0.4496
 7209TIP3    H143118   6.482   5.472   1.848  0.6344 -0.0255 -0.6047
 7209TIP3    H243119   6.373   5.509   1.750  0.7794  0.9028 -0.4218
 7210TIP3   OH243120   2.349   0.754   1.598  0.3811 -0.5366 -0.0168
 7210TIP3    H143121   2.445   0.761   1.597  0.4555 -1.3756 -2.5377
 7210TIP3    H243122   2.331   0.675   1.648  1.1625 -1.7339 -1.5674
 7211TIP3   OH243123   0.275   4.510  11.061 -0.0039 -0.0595 -0.4549
 7211TIP3    H143124   0.304   4.442  11.122 -0.3614 -0.2834 -0.5333
 7211TIP3    H243125   0.181   4.494  11.051  0.2860 -0.8073 -2.0491
 7212TIP3   OH243126   0.456   0.672   5.774 -0.0019  0.9054 -0.0960
 7212TIP3    H143127   0.460   0.594   5.718  1.4263 -0.1590  1.4510
 7212TIP3    H243128   0.365   0.703   5.765 -0.5964 -0.9386 -0.6974
 7213TIP3   OH243129   5.155   1.975  11.843 -0.3158 -0.2173 -0.3948
 7213TIP3    H143130   5.184   1.946  11.929  0.7395 -1.6350 -1.1914
 7213TIP3    H243131   5.065   1.943  11.835 -0.4987  0.1314  0.2755
 7214TIP3   OH243132   3.613   3.552  12.797  0.3575  0.0561  0.2895
 7214TIP3    H143133   3.639   3.575  12.886 -2.0724 -0.7254  1.2332
 7214TIP3    H243134   3.622   3.457  12.793 -0.5505 -0.0228  0.0376
 7215TIP3   OH243135   2.730   2.994   5.922  0.3459  0.2136 -0.0160
 7215TIP3    H143136   2.750   3.067   5.864 -1.1780  0.9901  0.4161
 7215TIP3    H243137   2.776   3.015   6.004 -1.0880  1.3082  0.5200
 7216TIP3   OH243138   2.519   4.924   0.179  0.9547 -1.1288  0.4274
 7216TIP3    H143139   2.447   4.941   0.239  0.5061 -0.1484 -0.3572
 7216TIP3    H243140   2.501   4.838   0.143 -0.7662 -0.2005 -1.0254
 7217TIP3   OH243141   6.400   6.783   5.724  0.5964 -0.3551  0.0161
 7217TIP3    H143142   6.327   6.806   5.667  0.7061  0.0251  0.0205
 7217TIP3    H243143   6.366   6.714   5.780  0.2943 -0.3040 -0.1010
 7218TIP3   OH243144   0.445   5.577   4.012 -0.3012  0.0125 -0.3248
 7218TIP3    H143145   0.410   5.600   3.926 -0.2049  0.8740 -0.1321
 7218TIP3    H243146   0.396   5.630   4.074 -0.9839 -1.2512  0.2416
 7219TIP3   OH243147   6.174   5.130   0.206  0.1317 -0.4285 -0.2882
 7219TIP3    H143148   6.084   5.108   0.182  0.6660 -0.7549 -2.0297
 7219TIP3    H243149   6.217   5.046   0.220  0.2361 -0.2763  0.3607
 7220TIP3   OH243150   6.329   3.843   5.558 -0.1854  0.0557  0.7243
 7220TIP3    H143151   6.387   3.840   5.482  0.6023  0.6663  1.3009
 7220TIP3    H243152   6.258   3.782   5.536  0.5970 -0.5888 -0.0327
 7221TIP3   OH243153   2.280   2.176   5.691 -0.4323 -0.1860  0.4869
 7221TIP3    H143154   2.355   2.211   5.740 -0.4179  0.3984  0.0523
 7221TIP3    H243155   2.281   2.082   5.710 -0.5080  0.0539  1.7250
 7222TIP3   OH243156   5.367   1.599   0.190  0.2891 -0.4698 -0.3431
 7222TIP3    H143157   5.339   1.513   0.157 -1.0617  0.0288 -0.5511
 7222TIP3    H243158   5.413   1.639   0.117 -1.6905  0.1643 -1.2894
 7223TIP3   OH243159   3.450   2.528  14.759  0.1913  0.0790 -0.0474
 7223TIP3    H143160   3.470   2.617  14.788 -1.3020  0.7576 -1.0625
 7223TIP3    H243161   3.463   2.531  14.664  0.3254 -0.8402 -0.0574
 7224TIP3   OH243162   6.368   6.674  13.913 -0.1424  0.2973  0.5759
 7224TIP3    H143163   6.413   6.753  13.882 -0.6890  1.0497  1.6473
 7224TIP3    H243164   6.433   6.631  13.969  0.2198 -0.1089 -0.1576
 7225TIP3   OH243165   3.273   0.135  16.407  0.6341 -0.5428 -0.6885
 7225TIP3    H143166   3.208   0.083  16.361  0.0414  0.9259 -1.5649
 7225TIP3    H243167   3.226   0.175  16.480  0.2157  1.4713 -2.0134
 7226TIP3   OH243168   4.630   5.804  16.639 -0.2619 -0.0104 -0.2685
 7226TIP3    H143169   4.612   5.733  16.576  0.6367 -1.4160  1.0327
 7226TIP3    H243170   4.725   5.815  16.635 -0.1673 -0.3218  1.0709
 7227TIP3   OH243171   5.105   0.750   5.974 -0.3292 -0.0438  0.0336
 7227TIP3    H143172   5.195   0.778   5.957  0.8937 -2.5105  2.0740
 7227TIP3    H243173   5.069   0.816   6.032  1.0333 -0.3556  1.2473
 7228TIP3   OH243174   6.360   0.142  10.914 -0.6272 -0.1755  0.4659
 7228TIP3    H143175   6.424   0.129  10.985 -0.7229  1.7457  0.9478
 7228TIP3    H243176   6.414   0.168  10.839 -0.7186  0.0723  0.4852
 7229TIP3   OH243177   3.548   0.598   1.601  0.0499  0.2340  0.8502
 7229TIP3    H143178   3.508   0.665   1.545 -0.7026  0.2378  1.3829
 7229TIP3    H243179   3.612   0.645   1.654 -0.6353  0.5803  1.3812
 7230TIP3   OH243180   3.525   3.708  15.556  0.0827  0.2370  0.0187
 7230TIP3    H143181   3.440   3.668  15.573 -0.0962  0.5630 -0.0983
 7230TIP3    H243182   3.525   3.789  15.607 -0.3224  1.0451 -1.2191
 7231TIP3   OH243183   4.582   1.565  14.384  0.2081 -0.0736  0.4078
 7231TIP3    H143184   4.607   1.497  14.321  0.1862  0.0620  0.2518
 7231TIP3    H243185   4.629   1.543  14.464 -0.7622 -1.0003  0.7488
 7232TIP3   OH243186   1.882   3.325  13.408 -0.1279  0.1103  0.3929
 7232TIP3    H143187   1.968   3.286  13.393  0.4184  1.9973 -1.5651
 7232TIP3    H243188   1.894   3.380  13.485  0.3689  0.2156  0.2400
 7233TIP3   OH243189   0.627   1.229  16.675 -0.0090  0.1559  0.0349
 7233TIP3    H143190   0.675   1.253  16.595 -2.6863  0.0622 -1.6716
 7233TIP3    H243191   0.547   1.281  16.671  0.0332  0.4796  2.9444
 7234TIP3   OH243192   3.306   1.190  14.583 -0.2862 -0.2584  1.0121
 7234TIP3    H143193   3.319   1.110  14.633  0.5921  0.3045  1.6925
 7234TIP3    H243194   3.308   1.162  14.491 -0.5223 -1.0805  1.2572
 7235TIP3   OH243195   5.972   1.621   1.000 -0.6108  0.7376 -0.1579
 7235TIP3    H143196   5.905   1.683   0.972 -0.2431  1.3763  0.3574
 7235TIP3    H243197   6.054   1.670   0.994 -0.0364 -0.3870 -1.8914
 7236TIP3   OH243198   0.633   1.588  13.349  0.2137  0.2103  0.7771
 7236TIP3    H143199   0.688   1.567  13.425 -0.0260  1.1385  1.2048
 7236TIP3    H243200   0.552   1.622  13.387  0.1500  0.8174  0.0936
 7237TIP3   OH243201   6.324   2.135   5.400 -0.2915 -0.5965  0.0414
 7237TIP3    H143202   6.289   2.112   5.314 -0.4663  0.7904 -0.2663
 7237TIP3    H243203   6.376   2.214   5.385  0.1428 -0.6736  1.1069
 7238TIP3   OH243204   1.363   3.402  16.560 -0.0112  0.1355 -0.2125
 7238TIP3    H143205   1.350   3.353  16.478 -0.5306 -1.3567  0.7435
 7238TIP3    H243206   1.275   3.432  16.584 -0.3746 -2.0815  1.4024
 7239TIP3   OH243207   4.624   2.713  16.864 -0.3618  0.9339 -0.0064
 7239TIP3    H143208   4.532   2.740  16.856 -0.8723 -0.1220  2.0693
 7239TIP3    H243209   4.638   2.655  16.789 -2.8267 -2.7115  2.1921
 7240TIP3   OH243210   6.327   2.715  13.433  0.8213 -0.0217 -0.8177
 7240TIP3    H143211   6.262   2.712  13.503  0.9257  0.6440 -0.6848
 7240TIP3    H243212   6.409   2.691  13.476  0.7816 -0.1916 -0.8360
 7241TIP3   OH243213   5.894   1.371   0.783 -0.4291 -0.3600  0.9031
 7241TIP3    H143214   5.873   1.287   0.743  0.4377 -0.7892  1.3400
 7241TIP3    H243215   5.914   1.351   0.875 -1.0796  0.4354  1.2297
 7242TIP3   OH243216   3.579   5.579  10.530  0.1622 -0.5934 -0.1729
 7242TIP3    H143217   3.490   5.584  10.493 -0.1223 -0.3436  0.5373
 7242TIP3    H243218   3.566   5.542  10.617  0.7703 -0.6304 -0.1028
 7243TIP3   OH243219   2.120   4.022  12.764  0.7276 -0.1076  0.1072
 7243TIP3    H143220   2.059   4.051  12.696 -0.1479  1.3074  1.4573
 7243TIP3    H243221   2.131   3.928  12.748 -2.0830 -0.4766  0.0230
 7244TIP3   OH243222   5.227   6.135  16.365 -0.3094 -0.1183 -0.8653
 7244TIP3    H143223   5.275   6.055  16.345 -0.3535 -0.6440  0.9724
 7244TIP3    H243224   5.136   6.107  16.377 -0.2986  0.1670 -0.0478
 7245TIP3   OH243225   0.888   2.181  12.025  0.4603 -0.6034 -0.1022
 7245TIP3    H143226   0.809   2.171  12.078  0.3881  2.2106  0.3926
 7245TIP3    H243227   0.902   2.276  12.020  2.6893 -0.9765 -1.8451
 7246TIP3   OH243228   1.858   2.845  10.395  0.4319 -0.2415 -0.1946
 7246TIP3    H143229   1.900   2.931  10.387 -0.3307  0.1598  0.0806
 7246TIP3    H243230   1.917   2.796  10.452  0.9656  0.0383 -0.5001
 7247TIP3   OH243231   0.135   3.906  15.644 -0.6323 -0.3382 -0.4657
 7247TIP3    H143232   0.163   3.884  15.733 -0.3157 -0.8585 -0.6920
 7247TIP3    H243233   0.167   3.995  15.630 -0.4897 -0.3375 -0.1411
 7248TIP3   OH243234   3.479   2.615  10.986  0.1486 -0.1577  0.5314
 7248TIP3    H143235   3.473   2.541  10.925  0.2882  1.0970 -1.0656
 7248TIP3    H243236   3.521   2.579  11.064 -0.9394 -2.0505  0.2889
 7249TIP3   OH243237   5.487   4.121   4.487  0.5074 -0.9519 -0.1137
 7249TIP3    H143238   5.406   4.101   4.440 -0.2581 -0.3276  0.9183
 7249TIP3    H243239   5.500   4.215   4.474 -0.8892 -0.3244  2.6962
 7250TIP3   OH243240   5.784   3.586   2.445 -0.2018 -0.5832  0.0150
 7250TIP3    H143241   5.693   3.614   2.430  0.4794  1.1781 -0.9181
 7250TIP3    H243242   5.831   3.666   2.464  1.2784 -1.4231 -0.0710
 7251TIP3   OH243243   1.601   1.904   0.433  0.0092 -0.9385  0.0922
 7251TIP3    H143244   1.630   1.855   0.510  1.6062 -0.4449 -0.1733
 7251TIP3    H243245   1.515   1.869   0.413 -1.5291  0.6288  3.6161
 7252TIP3   OH243246   5.062   3.543  11.169 -0.1591  0.4320 -0.6555
 7252TIP3    H143247   5.127   3.547  11.098 -1.1620 -0.3230 -1.6341
 7252TIP3    H243248   5.046   3.635  11.192 -0.4859  0.7266 -2.0231
 7253TIP3   OH243249   6.512   2.722   3.299 -0.5481  0.1868  0.1326
 7253TIP3    H143250   6.525   2.652   3.235 -1.0754  0.7025 -0.5465
 7253TIP3    H243251   6.600   2.755   3.317 -0.2486 -0.9403  0.7948
 7254TIP3   OH243252   6.779   0.681  11.332  0.5007 -0.3147 -0.3305
 7254TIP3    H143253   6.737   0.606  11.374 -0.7615 -1.1236 -2.9510
 7254TIP3    H243254   6.836   0.643  11.266 -0.1457  1.0396 -1.6906
 7255TIP3   OH243255   6.171   2.217   0.217  0.4083 -0.2973 -0.3038
 7255TIP3    H143256   6.248   2.181   0.261  1.1475  2.6875  1.0128
 7255TIP3    H243257   6.126   2.267   0.285 -0.8972  0.7244 -1.8798
 7256TIP3   OH243258   6.536   3.335  11.344  0.2673  0.2784  0.2254
 7256TIP3    H143259   6.486   3.370  11.270  1.7049  0.9536 -0.4570
 7256TIP3    H243260   6.538   3.407  11.408 -1.2637 -0.4242  1.0704
 7257TIP3   OH243261   0.450   5.199   4.425  0.5005 -0.4404  0.2953
 7257TIP3    H143262   0.369   5.149   4.421 -0.5260  1.2947 -1.0329
 7257TIP3    H243263   0.437   5.272   4.366  2.8111  0.2227  0.5334
 7258TIP3   OH243264   4.220   3.128  15.323 -0.1173  0.2595  0.0274
 7258TIP3    H143265   4.303   3.152  15.364 -1.1320  0.8028  1.8366
 7258TIP3    H243266   4.211   3.188  15.250  1.9601 -1.0351 -1.3708
 7259TIP3   OH243267   5.535   3.520   1.083 -0.4344 -0.4947  0.5548
 7259TIP3    H143268   5.451   3.557   1.111  0.1603  1.5263 -0.1877
 7259TIP3    H243269   5.524   3.505   0.989 -0.7745 -2.5512  0.9151
 7260TIP3   OH243270   0.562   3.317  17.123 -0.3705 -0.3272 -0.5238
 7260TIP3    H143271   0.566   3.236  17.173 -1.2443 -1.6484 -2.5410
 7260TIP3    H243272   0.470   3.343  17.125 -0.0177  0.9105  0.5293
 7261TIP3   OH243273   0.530   6.350  10.521 -0.0904  0.1385 -0.3323
 7261TIP3    H143274   0.548   6.381  10.432  1.7802 -1.4958 -0.5630
 7261TIP3    H243275   0.523   6.430  10.573  3.6559  1.0757 -1.1063
 7262TIP3   OH243276   5.784   1.113  16.035 -0.1398  0.3836 -0.9932
 7262TIP3    H143277   5.761   1.194  16.081  1.1045  0.5881 -0.7180
 7262TIP3    H243278   5.873   1.094  16.063  0.0787 -0.3316 -2.1451
 7263TIP3   OH243279   3.127   4.956  14.305  0.8361 -0.5890  0.6862
 7263TIP3    H143280   3.036   4.954  14.333  0.1444 -0.1605 -1.4538
 7263TIP3    H243281   3.124   4.943  14.210  3.1200 -2.3088  0.7845
 7264TIP3   OH243282   2.106   3.945  15.477  0.0995 -0.1874 -0.1514
 7264TIP3    H143283   2.196   3.927  15.505 -0.4755 -3.6296 -0.2538
 7264TIP3    H243284   2.099   3.903  15.391 -0.7217  2.8152 -1.6096
 7265TIP3   OH243285   6.654   0.084   2.168 -0.3238 -0.3228  0.0216
 7265TIP3    H143286   6.694   0.008   2.209  0.6921  0.0419 -0.2675
 7265TIP3    H243287   6.561   0.077   2.188  0.0885 -0.3699  2.0197
 7266TIP3   OH243288   4.463   3.958  16.572 -0.4877  0.3530 -0.3445
 7266TIP3    H143289   4.473   3.941  16.665 -0.8227 -3.1355 -0.8711
 7266TIP3    H243290   4.543   4.003  16.546 -1.0144  2.6295  1.8677
 7267TIP3   OH243291   5.840   3.542  11.401 -0.3031  0.2916 -0.3343
 7267TIP3    H143292   5.798   3.521  11.484  0.4955 -0.1903 -0.0479
 7267TIP3    H243293   5.909   3.605  11.424  1.3218 -1.4593 -0.3076
 7268TIP3   OH243294   2.128   3.423  12.627 -0.4038 -0.2189 -0.6803
 7268TIP3    H143295   2.172   3.506  12.648  1.0289 -1.0590 -0.2981
 7268TIP3    H243296   2.064   3.412  12.697  1.0456 -0.6089  0.6137
 7269TIP3   OH243297   6.455   5.788   2.302  0.3052 -0.8909  0.1364
 7269TIP3    H143298   6.474   5.737   2.223 -0.1285 -2.5155  1.0577
 7269TIP3    H243299   6.413   5.726   2.362 -0.7048  0.6755  1.1068
 7270TIP3   OH243300   2.058   6.626   1.338 -0.1693  0.1076 -0.0147
 7270TIP3    H143301   2.137   6.582   1.306  0.2517  0.5326  0.4383
 7270TIP3    H243302   2.087   6.673   1.416 -0.2973  2.3582 -1.2968
 7271TIP3   OH243303   5.840   0.821  15.889 -0.4615  0.0824 -0.7598
 7271TIP3    H143304   5.794   0.759  15.832 -0.9426  0.0105 -0.3095
 7271TIP3    H243305   5.811   0.797  15.977 -0.3262  0.6850 -0.5498
 7272TIP3   OH243306   0.464   0.917   1.430  0.0278  0.3297  0.2803
 7272TIP3    H143307   0.403   0.848   1.407 -1.1069  1.1168  0.8744
 7272TIP3    H243308   0.415   0.998   1.417  0.8713  0.9638  0.9769
 7273TIP3   OH243309   1.144   3.073  14.671 -0.2940  0.0851  0.1259
 7273TIP3    H143310   1.170   3.145  14.614 -1.8152  1.6013  1.2914
 7273TIP3    H243311   1.220   3.060  14.729  1.0500 -1.1255 -1.8469
 7274TIP3   OH243312   0.693   2.945  16.264 -0.4740  0.1341  0.0598
 7274TIP3    H143313   0.600   2.931  16.282 -0.8086  0.6317 -1.2341
 7274TIP3    H243314   0.738   2.878  16.315 -1.4404  0.7999  1.8552
 7275TIP3   OH243315   4.951   6.710   5.314 -0.1661  0.6388  0.1847
 7275TIP3    H143316   5.040   6.745   5.315 -0.4808  1.4469  0.0833
 7275TIP3    H243317   4.896   6.784   5.290 -0.6915 -0.2691 -1.5366
 7276TIP3   OH243318   4.693   2.067  15.827  0.3912  0.0013  0.5846
 7276TIP3    H143319   4.634   2.083  15.753 -0.1639  0.1201  1.0460
 7276TIP3    H243320   4.712   2.155  15.862  1.6818  0.0451 -0.2038
 7277TIP3   OH243321   5.030   5.306   1.689  0.1197  0.1718  0.2672
 7277TIP3    H143322   5.006   5.360   1.764 -0.1975 -1.0046  1.0210
 7277TIP3    H243323   4.989   5.221   1.706  0.7925 -0.3827 -0.7979
 7278TIP3   OH243324   4.050   1.946   1.222  0.2107  0.2958  0.0423
 7278TIP3    H143325   3.959   1.915   1.224 -0.7187  2.8559 -0.6086
 7278TIP3    H243326   4.072   1.963   1.313 -0.2296  0.3499  0.1413
 7279TIP3   OH243327   0.975   5.905  11.656  0.3843  0.1826 -0.3962
 7279TIP3    H143328   1.007   5.848  11.586  0.6795 -1.1238  0.7990
 7279TIP3    H243329   1.055   5.943  11.694  0.2908  0.0066 -0.0249
 7280TIP3   OH243330   2.568   0.512   2.632  0.1834 -0.0017 -0.2093
 7280TIP3    H143331   2.509   0.489   2.703 -2.2985  2.7200 -1.2825
 7280TIP3    H243332   2.654   0.520   2.674 -0.9809  0.2720  2.2206
 7281TIP3   OH243333   6.549   1.072  15.967  0.4704 -0.2640 -0.1440
 7281TIP3    H143334   6.632   1.034  15.996  1.0701  1.3641  0.3342
 7281TIP3    H243335   6.566   1.166  15.962 -1.1138  0.0069 -0.8516
 7282TIP3   OH243336   1.362   2.430  13.778 -0.4935  0.5960 -0.5891
 7282TIP3    H143337   1.356   2.335  13.780 -0.4949  0.6142  0.5367
 7282TIP3    H243338   1.438   2.448  13.722 -0.3564 -0.0670 -0.6187
 7283TIP3   OH243339   0.488   3.240  13.128 -0.1108  0.0139 -0.2297
 7283TIP3    H143340   0.575   3.225  13.165 -1.0259  0.1332  1.9993
 7283TIP3    H243341   0.459   3.322  13.166 -0.9650  0.2930 -1.4445
 7284TIP3   OH243342   4.585   3.200  10.922 -0.3834  0.0057 -0.3020
 7284TIP3    H143343   4.537   3.159  10.849 -1.1560 -0.7073  0.6016
 7284TIP3    H243344   4.516   3.231  10.981  0.2731 -1.9008  1.5100
 7285TIP3   OH243345   4.497   5.315   1.035  0.5269 -0.4728 -0.3990
 7285TIP3    H143346   4.469   5.252   0.968  1.8808  0.3098 -1.7095
 7285TIP3    H243347   4.499   5.399   0.990 -0.7213  0.4463  1.2105
 7286TIP3   OH243348   4.034   1.512  17.035  0.3805 -0.0069  0.4268
 7286TIP3    H143349   4.076   1.559  16.963  0.6108 -1.0456 -0.1315
 7286TIP3    H243350   4.022   1.423  17.001  1.2587 -0.7312  1.9706
 7287TIP3   OH243351   3.356   0.710   0.591 -0.8490  0.4478  0.1414
 7287TIP3    H143352   3.316   0.663   0.517  1.9315  0.2777 -1.3128
 7287TIP3    H243353   3.305   0.791   0.597 -2.2800 -0.3403 -0.7677
 7288TIP3   OH243354   5.148   3.268   0.853  0.5752  0.2093  0.1402
 7288TIP3    H143355   5.140   3.292   0.761 -0.5728 -0.6030  0.0124
 7288TIP3    H243356   5.190   3.182   0.851  1.4819  0.6386  0.4308
 7289TIP3   OH243357   6.748   1.233  16.664 -0.3937  0.3442 -0.3433
 7289TIP3    H143358   6.739   1.149  16.618 -1.3299 -0.0833  0.6084
 7289TIP3    H243359   6.673   1.284  16.635  0.5030  1.0930 -1.3919
 7290TIP3   OH243360   2.775   5.064   3.450 -0.5126  0.6241  0.1019
 7290TIP3    H143361   2.700   5.119   3.424 -0.7412  0.9030  1.2961
 7290TIP3    H243362   2.740   5.009   3.520 -0.8353 -2.4700 -2.3504
 7291TIP3   OH243363   4.008   3.390  13.874 -0.0218 -0.4895  0.0260
 7291TIP3    H143364   3.934   3.427  13.922 -0.5753 -0.2134 -1.0324
 7291TIP3    H243365   4.002   3.296  13.891 -0.9215 -0.5279 -0.4643
 7292TIP3   OH243366   2.267   4.006   2.075  0.4253 -0.1812 -0.2914
 7292TIP3    H143367   2.322   3.949   2.129 -2.1543 -1.5518  0.9977
 7292TIP3    H243368   2.229   4.068   2.136 -0.6473 -0.2120 -0.9113
 7293TIP3   OH243369   6.237   6.666   3.451 -1.0145  0.0779  0.2425
 7293TIP3    H143370   6.150   6.635   3.478 -0.1371 -1.8255  0.9391
 7293TIP3    H243371   6.229   6.680   3.357 -2.0571 -0.1420  0.2932
 7294TIP3   OH243372   2.463   3.965  11.867 -0.6501 -0.4086 -0.2633
 7294TIP3    H143373   2.501   4.035  11.920 -0.7652 -0.7680  0.3040
 7294TIP3    H243374   2.381   3.943  11.911 -1.7756  0.7142 -1.7830
 7295TIP3   OH243375   5.186   3.251  16.256  0.5796 -0.3110  0.0043
 7295TIP3    H143376   5.117   3.316  16.269  0.1951 -0.1712 -2.5381
 7295TIP3    H243377   5.265   3.293  16.289 -0.0613  0.5864  0.4119
 7296TIP3   OH243378   4.134   6.184   3.334 -0.5129 -0.2215 -0.3331
 7296TIP3    H143379   4.122   6.165   3.241  0.6774 -0.7156 -0.3833
 7296TIP3    H243380   4.209   6.242   3.338 -0.8058  0.1259  0.2962
 7297TIP3   OH243381   5.681   5.817   0.494 -0.6711 -0.0937 -0.0652
 7297TIP3    H143382   5.622   5.761   0.545 -0.9300 -1.3857 -1.7424
 7297TIP3    H243383   5.710   5.761   0.422  2.6725  0.4580  0.7469
 7298TIP3   OH243384   2.708   6.516   0.713 -0.5092 -0.1929  0.1125
 7298TIP3    H143385   2.796   6.550   0.733 -0.8140 -0.0455  1.2098
 7298TIP3    H243386   2.696   6.443   0.775 -2.1348  1.3381  1.6461
 7299TIP3   OH243387   2.836   0.574  14.487  0.5646 -0.1990 -0.0228
 7299TIP3    H143388   2.868   0.494  14.446 -0.5767 -1.2016  0.9805
 7299TIP3    H243389   2.894   0.643  14.455  0.8648 -1.2445 -1.7969
 7300TIP3   OH243390   6.642   2.135  12.668 -0.4220 -0.2649 -0.3302
 7300TIP3    H143391   6.634   2.094  12.754  0.3839 -1.1181 -0.6519
 7300TIP3    H243392   6.655   2.228  12.685 -4.3635  0.2370  0.3912
 7301TIP3   OH243393   0.543   5.205   2.706  0.1403  0.3117 -0.1800
 7301TIP3    H143394   0.555   5.110   2.710  2.4079  0.5574 -0.5614
 7301TIP3    H243395   0.629   5.239   2.681 -0.7696  2.4377 -0.5067
 7302TIP3   OH243396   4.774   2.716  10.726 -0.1393 -0.3822 -0.1360
 7302TIP3    H143397   4.733   2.803  10.725 -0.0768 -0.2986  2.3667
 7302TIP3    H243398   4.836   2.718  10.653 -0.5275  1.4862 -0.4425
 7303TIP3   OH243399   2.952   5.740  12.828 -0.2359  0.3646  0.0549
 7303TIP3    H143400   2.899   5.783  12.761  1.2423 -0.2870 -1.5897
 7303TIP3    H243401   3.022   5.802  12.847 -1.2691  1.0125  1.8443
 7304TIP3   OH243402   0.129   1.917   4.522  0.1407  0.1274 -0.3104
 7304TIP3    H143403   0.210   1.916   4.572 -0.7342 -3.0117  1.1541
 7304TIP3    H243404   0.062   1.945   4.584 -0.5701 -1.4761 -0.3371
 7305TIP3   OH243405   0.044   3.030  16.480  0.1994 -0.5206 -0.1037
 7305TIP3    H143406  -0.035   3.058  16.435  0.6701  1.3146  0.2008
 7305TIP3    H243407   0.112   3.091  16.452  1.0672 -0.8838  1.1380
 7306TIP3   OH243408   4.180   0.441  10.819  0.1740 -0.1209  0.7126
 7306TIP3    H143409   4.267   0.477  10.800 -0.9142  0.6070 -3.5588
 7306TIP3    H243410   4.174   0.362  10.765 -2.5995  1.0656 -0.8370
 7307TIP3   OH243411   0.787   4.853   0.491 -0.2257 -0.2073 -0.4797
 7307TIP3    H143412   0.863   4.885   0.442 -1.2610  2.2844 -0.5298
 7307TIP3    H243413   0.825   4.799   0.561  1.7760  2.9004  0.9574
 7308TIP3   OH243414   1.450   5.103  16.340  0.0084  1.0094 -0.4979
 7308TIP3    H143415   1.393   5.035  16.305  0.1880  0.8401 -0.4600
 7308TIP3    H243416   1.537   5.080  16.309  0.1294  1.0043 -0.1602
 7309TIP3   OH243417   6.585   6.654  14.409 -0.4531 -0.3750  0.3749
 7309TIP3    H143418   6.516   6.689  14.352 -1.1201 -0.0743  1.3510
 7309TIP3    H243419   6.580   6.559  14.397  0.4510 -0.2380 -1.2423
 7310TIP3   OH243420   2.782   3.248   0.235 -0.3928  0.5467  0.0585
 7310TIP3    H143421   2.728   3.174   0.263  0.1581  0.1278  0.0403
 7310TIP3    H243422   2.742   3.278   0.154 -1.8400  1.5871  1.1431
 7311TIP3   OH243423   6.279   6.489   3.113  0.0459  0.3476  0.2612
 7311TIP3    H143424   6.189   6.513   3.135 -0.3762 -0.3542 -0.7054
 7311TIP3    H243425   6.271   6.418   3.050  1.2811  0.2275  0.2236
 7312TIP3   OH243426   3.857   1.093   5.569  0.1639 -0.5845  0.3506
 7312TIP3    H143427   3.815   1.117   5.652  2.8826  1.6433  1.1723
 7312TIP3    H243428   3.840   1.168   5.511  2.4616  0.0843  0.5116
 7313TIP3   OH243429   3.858   0.481  14.358 -0.2039  0.2878 -0.1834
 7313TIP3    H143430   3.787   0.448  14.302  1.1578 -0.3034 -1.6146
 7313TIP3    H243431   3.827   0.467  14.447 -0.9377 -2.1468 -0.7636
 7314TIP3   OH243432   2.199   4.128   4.881  0.1114 -0.5130  0.5930
 7314TIP3    H143433   2.139   4.106   4.952 -1.7007  0.2384 -0.6542
 7314TIP3    H243434   2.209   4.046   4.832 -1.4378 -0.2025 -0.2813
 7315TIP3   OH243435   3.073   1.674  14.687 -0.1908  0.1960  0.2540
 7315TIP3    H143436   2.998   1.614  14.690  0.2846 -0.3997  0.3878
 7315TIP3    H243437   3.102   1.672  14.596  0.6939 -0.8694  0.5514
 7316TIP3   OH243438   4.509   1.622   4.289 -0.1540 -0.0718 -0.1636
 7316TIP3    H143439   4.423   1.641   4.253 -0.0209 -0.9364 -0.9450
 7316TIP3    H243440   4.557   1.582   4.217  0.6186 -0.3989  0.5234
 7317TIP3   OH243441   2.783   5.866   4.838 -0.2457 -0.0379 -0.2971
 7317TIP3    H143442   2.839   5.865   4.916 -1.8858 -0.6200  0.9147
 7317TIP3    H243443   2.814   5.942   4.788 -0.3610  1.4946  1.8454
 7318TIP3   OH243444   6.668   2.016  11.595  0.1441  0.6896  0.2144
 7318TIP3    H143445   6.702   2.078  11.531 -2.1950  3.8063  1.8986
 7318TIP3    H243446   6.715   2.037  11.676 -0.5831  0.1743  0.7776
 7319TIP3   OH243447   1.611   1.466   0.297 -0.3583  0.0542 -0.5146
 7319TIP3    H143448   1.696   1.477   0.255 -0.5248 -0.6037 -1.0303
 7319TIP3    H243449   1.554   1.530   0.254 -0.5819 -0.7647 -1.4424
 7320TIP3   OH243450   1.298   3.286  13.536  0.9472  0.7141 -0.3148
 7320TIP3    H143451   1.385   3.289  13.575  2.2869  1.2692 -3.1573
 7320TIP3    H243452   1.309   3.332  13.452 -2.4429  2.1349 -0.0494
 7321TIP3   OH243453   5.333   6.476  15.410 -0.0878 -0.4952 -0.1980
 7321TIP3    H143454   5.314   6.387  15.442 -1.8239 -0.5581 -1.3266
 7321TIP3    H243455   5.342   6.466  15.316  2.5957  0.0962 -0.0344
 7322TIP3   OH243456   0.899   2.019   4.325 -0.2689 -0.2821  0.1064
 7322TIP3    H143457   0.892   2.100   4.375  0.2709  0.2702 -0.6973
 7322TIP3    H243458   0.841   2.032   4.250 -0.1196 -0.6079 -0.0672
 7323TIP3   OH243459   2.140   4.474  15.452 -0.9154 -0.1522  0.0442
 7323TIP3    H143460   2.210   4.442  15.509 -0.4867  0.2958 -0.2207
 7323TIP3    H243461   2.065   4.417  15.471 -0.4320 -0.7421  0.2186
 7324TIP3   OH243462   2.167   4.472   2.395 -0.0753 -0.0016  0.5237
 7324TIP3    H143463   2.082   4.503   2.362  0.2892  0.1539 -0.2855
 7324TIP3    H243464   2.182   4.523   2.474 -0.8138 -0.1385  0.7603
 7325TIP3   OH243465   6.672   2.306  17.066  0.0392 -0.3029  0.3595
 7325TIP3    H143466   6.759   2.300  17.105  1.0188  0.5537 -1.6254
 7325TIP3    H243467   6.688   2.331  16.975 -2.3062  0.3492  0.0952
 7326TIP3   OH243468   1.739   2.511   5.255 -0.6616  0.3856  0.0049
 7326TIP3    H143469   1.735   2.593   5.205 -0.4285  0.4901  0.1562
 7326TIP3    H243470   1.777   2.536   5.339 -2.3853  0.4667  0.7881
 7327TIP3   OH243471   4.340   3.757  16.440 -0.1241 -0.0055 -0.7346
 7327TIP3    H143472   4.389   3.828  16.483 -0.1713 -0.2082 -0.3379
 7327TIP3    H243473   4.249   3.787  16.442  0.0028  0.4261 -1.5825
 7328TIP3   OH243474   2.941   1.345   0.024 -0.8560 -0.5015  0.6323
 7328TIP3    H143475   3.031   1.368  -0.001 -0.2620 -1.5079  1.7702
 7328TIP3    H243476   2.908   1.424   0.068 -0.5553 -0.1005  0.1430
 7329TIP3   OH243477   6.123   1.935   2.287  0.0926 -0.2122  0.0459
 7329TIP3    H143478   6.118   1.842   2.266  2.4162 -0.5649  0.9569
 7329TIP3    H243479   6.034   1.967   2.273 -0.6829 -2.5102 -0.5102
 7330TIP3   OH243480   5.022   3.211   4.917  0.5293 -0.7634 -0.7222
 7330TIP3    H143481   4.981   3.165   4.844 -2.3528 -1.7102  1.4051
 7330TIP3    H243482   5.059   3.142   4.972 -1.1621 -0.4087  0.9245
 7331TIP3   OH243483   1.693   4.258   0.456  0.0494 -0.5778  0.3664
 7331TIP3    H143484   1.608   4.282   0.491  0.5408  0.0224  1.1709
 7331TIP3    H243485   1.684   4.268   0.361 -1.1922 -1.9198  0.3323
 7332TIP3   OH243486   0.559   2.256  14.377 -0.4241  0.0144 -0.0332
 7332TIP3    H143487   0.620   2.314  14.331 -1.7905  1.1616 -0.4509
 7332TIP3    H243488   0.475   2.270  14.332 -1.1215 -1.0843  0.9137
 7333TIP3   OH243489   0.314   0.309  16.215  0.1661  0.3028  0.0872
 7333TIP3    H143490   0.399   0.310  16.171 -0.2257 -1.0161 -0.7130
 7333TIP3    H243491   0.262   0.246  16.166  0.1584 -2.3090  3.3214
 7334TIP3   OH243492   6.593   1.315  17.033 -0.1225  0.8643  0.3711
 7334TIP3    H143493   6.522   1.279  17.086  0.6830  0.1470  0.9826
 7334TIP3    H243494   6.550   1.373  16.970 -1.5329 -1.9224 -1.2893
 7335TIP3   OH243495   4.211   0.143   3.784 -0.3290  0.8040  0.2794
 7335TIP3    H143496   4.272   0.217   3.788  1.5002 -0.4471 -3.2495
 7335TIP3    H243497   4.151   0.166   3.713  1.2216 -1.7300 -1.9302
 7336TIP3   OH243498   5.797   6.561   2.118 -0.6084 -0.0089  0.3841
 7336TIP3    H143499   5.772   6.576   2.027 -0.1041  0.9295  0.3947
 7336TIP3    H243500   5.813   6.467   2.123 -0.1044  0.0175 -0.6284
 7337TIP3   OH243501   5.453   0.437  14.114  0.4852 -0.1980 -0.3071
 7337TIP3    H143502   5.525   0.437  14.050  0.8245  3.2167  0.0201
 7337TIP3    H243503   5.376   0.412  14.063  1.3319 -0.7565 -1.3358
 7338TIP3   OH243504   2.524   1.008   2.352  0.1379 -0.4477  0.0572
 7338TIP3    H143505   2.552   1.070   2.419  0.0561 -0.8952  0.4979
 7338TIP3    H243506   2.428   1.007   2.359  0.0891 -0.0337 -0.4734
 7339TIP3   OH243507   2.098   1.318  15.442 -0.2780  0.4277  0.7072
 7339TIP3    H143508   2.120   1.399  15.396 -3.3578  0.4012 -0.9603
 7339TIP3    H243509   2.104   1.250  15.375 -0.0038 -0.3744  1.5313
 7340TIP3   OH243510   2.710   4.333  14.636  0.8232  0.3433 -0.5958
 7340TIP3    H143511   2.718   4.375  14.550  0.2071 -0.5866 -1.1209
 7340TIP3    H243512   2.650   4.388  14.685  0.3114  0.2763 -1.1498
 7341TIP3   OH243513   2.432   6.426  13.825  0.3190 -0.3647  0.7696
 7341TIP3    H143514   2.403   6.489  13.758  1.0134  1.3057  1.9955
 7341TIP3    H243515   2.353   6.382  13.853 -0.2101  0.0815  0.0106
 7342TIP3   OH243516   3.598   5.722   6.495 -0.0663  0.2661  0.3045
 7342TIP3    H143517   3.597   5.649   6.557 -0.2281  0.2162  0.2428
 7342TIP3    H243518   3.632   5.683   6.414 -1.8050 -0.1609 -0.2422
 7343TIP3   OH243519   1.058   4.373  13.584 -0.1672  0.4305  0.0250
 7343TIP3    H143520   1.076   4.282  13.560  3.4649  1.1769 -0.3228
 7343TIP3    H243521   1.006   4.407  13.511 -1.7611 -1.3708  0.2621
 7344TIP3   OH243522   3.009   4.088   3.326  0.1663  0.0965 -0.3414
 7344TIP3    H143523   3.068   4.031   3.277  0.9860  0.5926  0.0574
 7344TIP3    H243524   2.948   4.028   3.370 -1.3446 -0.3136 -2.9108
 7345TIP3   OH243525   4.376   4.799  14.392 -0.1068 -0.2648  0.9030
 7345TIP3    H143526   4.321   4.859  14.442 -1.1478  2.3834 -3.1903
 7345TIP3    H243527   4.459   4.846  14.381 -0.6594  0.1996 -1.6677
 7346TIP3   OH243528   1.232   1.959   4.750  0.6008  0.7818  0.1273
 7346TIP3    H143529   1.176   1.982   4.676 -0.0899  2.2721  1.0951
 7346TIP3    H243530   1.193   1.881   4.787  0.4191  0.5646 -0.5256
 7347TIP3   OH243531   0.703   2.868   0.677 -0.1495 -0.2185  0.3620
 7347TIP3    H143532   0.794   2.836   0.675  0.6484  2.0261 -0.3358
 7347TIP3    H243533   0.667   2.843   0.592  0.0470 -0.3842  0.3266
 7348TIP3   OH243534   3.392   5.280   5.158  0.3082  0.4090 -0.1867
 7348TIP3    H143535   3.478   5.321   5.159  0.6090 -0.2258  0.1896
 7348TIP3    H243536   3.346   5.322   5.085  0.1229  2.3965  1.0576
 7349TIP3   OH243537   2.502   4.571   5.019 -0.1296 -0.3339  0.4766
 7349TIP3    H143538   2.422   4.606   5.058 -0.7875 -0.5338 -0.6804
 7349TIP3    H243539   2.532   4.640   4.960 -0.0130 -0.6835  0.1265
 7350TIP3   OH243540   0.632   3.899   5.979 -0.3238 -0.6533 -0.5077
 7350TIP3    H143541   0.621   3.817   5.931  2.0967 -1.9597  1.0713
 7350TIP3    H243542   0.678   3.957   5.918  0.0344 -1.2746 -0.8319
 7351TIP3   OH243543   4.790   2.043   6.250 -0.9138 -0.6016  0.3005
 7351TIP3    H143544   4.722   2.018   6.312 -1.4174  0.4393  0.1778
 7351TIP3    H243545   4.779   2.138   6.240 -3.3770 -1.2105 -4.2754
 7352TIP3   OH243546   3.171   2.851  15.239 -0.6034 -0.2981  0.4542
 7352TIP3    H143547   3.192   2.939  15.208  0.5357  0.3985  3.0564
 7352TIP3    H243548   3.255   2.805  15.242 -1.0442 -1.1428  0.1187
 7353TIP3   OH243549   0.237   3.537   3.120 -0.4392  0.0513 -0.0572
 7353TIP3    H143550   0.176   3.596   3.075  0.2965  0.0308 -1.0996
 7353TIP3    H243551   0.183   3.493   3.186 -1.0798  1.6006  0.4795
 7354TIP3   OH243552   4.481   1.483   6.083  0.0094 -0.1109  0.2781
 7354TIP3    H143553   4.576   1.494   6.074  0.0128 -0.3449  0.0434
 7354TIP3    H243554   4.448   1.572   6.098 -0.0483  0.3627 -2.4237
 7355TIP3   OH243555   3.172   0.017  12.577  0.2169 -0.4256 -0.2721
 7355TIP3    H143556   3.092   0.004  12.526 -0.2583  0.0678  0.3376
 7355TIP3    H243557   3.182   0.112  12.581 -0.6465 -0.4151  1.9321
 7356TIP3   OH243558   0.784   3.952   3.734  0.2988  0.2097 -0.0798
 7356TIP3    H143559   0.746   4.037   3.709  0.9831  0.8476  0.9991
 7356TIP3    H243560   0.786   3.902   3.653  0.2379  1.3618 -0.8112
 7357TIP3   OH243561   2.104   5.437  10.831 -0.0947 -0.0955  0.2164
 7357TIP3    H143562   2.071   5.348  10.827  1.2586 -0.5409 -1.6947
 7357TIP3    H243563   2.197   5.430  10.809  0.3035  1.6396  1.2036
 7358TIP3   OH243564   0.325   1.920   0.782  0.2330 -0.0718 -0.1789
 7358TIP3    H143565   0.235   1.901   0.755  0.2266  1.4080 -1.2985
 7358TIP3    H243566   0.318   1.999   0.836  0.9690  0.7742 -1.2804
 7359TIP3   OH243567   6.536   4.613   2.463 -0.4889 -0.2667 -0.0574
 7359TIP3    H143568   6.509   4.603   2.372 -0.0183 -0.7536 -0.1470
 7359TIP3    H243569   6.603   4.546   2.476 -0.3436 -0.0097  0.5643
 7360TIP3   OH243570   1.863   5.874  12.652  0.0968  0.1825 -0.3946
 7360TIP3    H143571   1.881   5.819  12.576  0.0739 -0.2127 -0.1158
 7360TIP3    H243572   1.808   5.945  12.618 -0.8083 -0.5796 -0.5439
 7361TIP3   OH243573   2.931   5.454   0.051  0.1615 -0.0352 -0.0698
 7361TIP3    H143574   2.987   5.529   0.033 -0.0903  0.0302 -0.5807
 7361TIP3    H243575   2.892   5.472   0.137 -0.6469  0.8587 -0.6251
 7362TIP3   OH243576   1.616   5.689   2.345 -0.0880 -0.3788  0.2830
 7362TIP3    H143577   1.524   5.667   2.355  0.0521 -0.5775  1.2384
 7362TIP3    H243578   1.645   5.712   2.434  0.9352 -0.9821  0.1222
 7363TIP3   OH243579   3.474   1.657  13.634 -0.1548  0.0073  0.4391
 7363TIP3    H143580   3.553   1.603  13.627 -1.8320 -2.2682 -2.2180
 7363TIP3    H243581   3.409   1.599  13.674 -1.5213  0.6200 -0.8485
 7364TIP3   OH243582   2.929   1.596  10.539 -0.0816 -0.3742 -0.1468
 7364TIP3    H143583   2.994   1.620  10.605 -0.5646 -1.2602  0.6752
 7364TIP3    H243584   2.935   1.664  10.473  0.6443  0.3520  0.6559
 7365TIP3   OH243585   0.051   3.220   5.819  0.0226 -0.4439 -0.0322
 7365TIP3    H143586  -0.012   3.152   5.839  2.7227 -2.9621  0.2116
 7365TIP3    H243587   0.131   3.193   5.864  1.3682  2.5381 -0.4917
 7366TIP3   OH243588   5.862   3.048   1.348 -0.3424 -0.5188  0.1717
 7366TIP3    H143589   5.899   2.991   1.415 -2.6673  0.6610  2.5167
 7366TIP3    H243590   5.810   2.990   1.293  1.1713 -1.4092 -0.3694
 7367TIP3   OH243591   2.806   2.230  12.382 -0.3930  1.0950  0.2075
 7367TIP3    H143592   2.776   2.140  12.378 -1.0548  1.3314 -0.2550
 7367TIP3    H243593   2.882   2.233  12.325 -1.3842  1.2165 -1.1289
 7368TIP3   OH243594   1.116   3.817  13.582  0.1535  0.2899 -0.4455
 7368TIP3    H143595   1.133   3.833  13.489 -4.0581 -1.9046 -1.7224
 7368TIP3    H243596   1.062   3.891  13.610  0.8814  0.6192  0.0956
 7369TIP3   OH243597   3.565   6.473  16.594 -0.3185 -0.0538  0.0052
 7369TIP3    H143598   3.547   6.552  16.543  3.1500  1.6090  1.1838
 7369TIP3    H243599   3.556   6.500  16.686 -1.7944 -1.7731  0.4102
 7370TIP3   OH243600   0.714   1.913   2.614  0.1484 -0.3633  0.0139
 7370TIP3    H143601   0.624   1.904   2.646  0.5607 -2.0507  0.7906
 7370TIP3    H243602   0.717   1.999   2.574 -2.0663 -0.6535 -0.8312
 7371TIP3   OH243603   1.819   5.397  13.690 -0.1135  0.1955  0.0327
 7371TIP3    H143604   1.836   5.306  13.667 -0.1190  0.3548 -0.5922
 7371TIP3    H243605   1.895   5.423  13.743  0.3569  0.1314 -0.6137
 7372TIP3   OH243606   2.643   0.216  13.327 -0.4653 -0.2410 -0.3330
 7372TIP3    H143607   2.725   0.168  13.335 -0.9817 -0.9173  1.1235
 7372TIP3    H243608   2.669   0.308  13.333  0.0672 -0.4919  1.5097
 7373TIP3   OH243609   0.220   1.621  11.039  0.4607 -0.1172  0.3684
 7373TIP3    H143610   0.180   1.628  11.126 -0.0677 -1.8619  0.3007
 7373TIP3    H243611   0.285   1.551  11.048  1.3277  0.5905 -0.3123
 7374TIP3   OH243612   1.163   3.947   4.145  0.2477  0.1973  0.1830
 7374TIP3    H143613   1.108   3.881   4.104 -0.7692 -1.0000  3.2846
 7374TIP3    H243614   1.103   4.020   4.165  0.5565  0.4535  0.1798
 7375TIP3   OH243615   3.207   3.521  12.970  0.6733 -0.5811  0.2042
 7375TIP3    H143616   3.168   3.444  13.014 -1.8140  0.8561  0.6118
 7375TIP3    H243617   3.190   3.507  12.877 -1.1841  0.1883  0.4046
 7376TIP3   OH243618   1.373   2.537  12.361 -0.0668  0.4274 -0.3605
 7376TIP3    H143619   1.334   2.496  12.284  1.0376  0.7637 -1.1133
 7376TIP3    H243620   1.350   2.480  12.434 -1.4609  0.3154 -0.8796
 7377TIP3   OH243621   4.863   5.055   3.953 -0.5588  0.1284 -0.5905
 7377TIP3    H143622   4.897   4.973   3.915  0.4022 -1.2340  3.0242
 7377TIP3    H243623   4.920   5.123   3.916  3.8141 -1.7148  2.2926
 7378TIP3   OH243624   2.411   6.449  12.350  0.1156  0.4607  0.3282
 7378TIP3    H143625   2.420   6.360  12.315  2.1370 -0.1752  2.3358
 7378TIP3    H243626   2.500   6.485  12.346 -0.4668  1.9500  0.6969
 7379TIP3   OH243627   4.933   1.907   5.731 -0.1683 -0.0716 -0.2929
 7379TIP3    H143628   4.977   1.835   5.686 -0.1351  0.4380 -1.0946
 7379TIP3    H243629   4.957   1.985   5.680  1.0118  0.7184  1.4203
 7380TIP3   OH243630   5.138   3.467   3.673  0.2588 -0.5135 -0.1794
 7380TIP3    H143631   5.128   3.442   3.582 -2.7515 -3.3556  0.8354
 7380TIP3    H243632   5.229   3.446   3.694  0.7303 -0.6177 -2.2692
 7381TIP3   OH243633   0.108   1.300  14.449  0.5651 -0.4532 -0.2520
 7381TIP3    H143634   0.149   1.291  14.535  1.0446  0.5573 -0.3679
 7381TIP3    H243635   0.029   1.247  14.455  1.9285 -2.5367 -0.0723
 7382TIP3   OH243636   0.660   5.137   3.512 -0.2968 -0.8922 -0.6003
 7382TIP3    H143637   0.736   5.083   3.533  0.4228 -0.1404 -1.2530
 7382TIP3    H243638   0.590   5.073   3.497  0.1055 -1.5716  0.3423
 7383TIP3   OH243639   4.754   4.713  13.810 -0.3527 -0.3025  0.1125
 7383TIP3    H143640   4.663   4.711  13.839 -0.2342  0.0484  0.5098
 7383TIP3    H243641   4.785   4.623  13.821 -0.7409 -0.4920 -0.3188
 7384TIP3   OH243642   6.142   2.352   3.374  0.1362  0.1631  0.3047
 7384TIP3    H143643   6.063   2.351   3.427 -0.9576 -1.3557 -1.2897
 7384TIP3    H243644   6.164   2.260   3.362  0.8212  0.5034 -1.1925
 7385TIP3   OH243645   6.152   4.527   5.412  0.3809 -0.2385  0.5163
 7385TIP3    H143646   6.221   4.489   5.466  0.2276 -1.1891  0.0455
 7385TIP3    H243647   6.137   4.614   5.450 -0.2774 -1.1927  2.4948
 7386TIP3   OH243648   1.047   1.139  15.646  0.2716 -0.6061 -0.1828
 7386TIP3    H143649   1.008   1.131  15.733 -0.4062 -1.4007 -0.5591
 7386TIP3    H243650   1.092   1.055  15.632  0.9956 -0.2066 -0.3024
 7387TIP3   OH243651   2.749   6.620   4.278  0.2162  0.9428 -0.1894
 7387TIP3    H143652   2.840   6.596   4.260  0.8332  2.0835  1.3288
 7387TIP3    H243653   2.738   6.603   4.372 -0.9821  1.3105 -0.2576
 7388TIP3   OH243654   4.984   4.986   6.520  0.4289  0.6816  0.4930
 7388TIP3    H143655   5.036   4.943   6.452  0.6482 -0.6936  1.4955
 7388TIP3    H243656   4.910   5.025   6.474  0.9386  0.3570 -0.6110
 7389TIP3   OH243657   2.648   5.103   0.012  0.4283  0.0670 -0.4252
 7389TIP3    H143658   2.612   5.042   0.077  0.2586  1.0829  0.4528
 7389TIP3    H243659   2.588   5.098  -0.062  0.2946 -0.6673 -0.2671
 7390TIP3   OH243660   2.551   6.061   5.781 -0.3291  0.5751  0.3259
 7390TIP3    H143661   2.608   6.084   5.708 -0.6243  3.2028  0.8669
 7390TIP3    H243662   2.580   6.118   5.852 -2.7626  1.0006  1.0188
 7391TIP3   OH243663   2.967   6.005   0.555 -0.4786  0.5547  0.3884
 7391TIP3    H143664   2.946   5.976   0.466  0.7623  0.0033  0.2719
 7391TIP3    H243665   3.020   6.084   0.543 -0.7185  0.7578  0.6483
 7392TIP3   OH243666   4.122   6.163  12.768 -0.0625  0.9025  0.2711
 7392TIP3    H143667   4.045   6.143  12.714 -0.2341  1.9376  0.1298
 7392TIP3    H243668   4.170   6.080  12.772 -1.9307 -0.1333  1.5931
 7393TIP3   OH243669   1.693   0.952  15.574  0.1793 -0.0501  0.2398
 7393TIP3    H143670   1.657   0.863  15.569 -0.3547  0.2482 -1.4882
 7393TIP3    H243671   1.616   1.008  15.578  0.5028  0.4301 -0.3516
 7394TIP3   OH243672   4.723   5.671  15.132  0.2463 -0.5077 -0.1948
 7394TIP3    H143673   4.736   5.595  15.075  0.2966 -1.1210  0.6270
 7394TIP3    H243674   4.655   5.644  15.193  1.3232 -0.4430  1.0630
 7395TIP3   OH243675   0.532   0.867  17.074  0.0748  0.3433 -0.1189
 7395TIP3    H143676   0.569   0.851  16.987  0.5060 -0.7539  0.2579
 7395TIP3    H243677   0.442   0.895  17.057 -0.4887 -1.8348 -0.8314
 7396TIP3   OH243678   4.731   1.632  16.264 -0.3511 -0.2989  0.0878
 7396TIP3    H143679   4.687   1.618  16.348 -1.1845 -1.2115 -0.4852
 7396TIP3    H243680   4.805   1.572  16.265 -0.0610  0.0605  0.3786
 7397TIP3   OH243681   0.710   1.571   5.931  0.6425 -0.3323  0.3403
 7397TIP3    H143682   0.654   1.588   6.007 -0.4928 -0.9739 -0.3483
 7397TIP3    H243683   0.798   1.559   5.969  0.2362  0.1627  1.4686
 7398TIP3   OH243684   4.820   2.015  12.864 -0.2231 -0.0025 -0.1145
 7398TIP3    H143685   4.779   1.931  12.881  0.4724  0.1991  2.8706
 7398TIP3    H243686   4.760   2.079  12.902 -0.7846  0.8845 -2.4229
 7399TIP3   OH243687   0.557   1.765   4.170 -0.1845 -0.2048  0.5512
 7399TIP3    H143688   0.577   1.852   4.206  1.0163 -0.8214  1.3838
 7399TIP3    H243689   0.614   1.757   4.094  0.2939 -0.5891  0.9479
 7400TIP3   OH243690   0.307   0.146   1.142 -0.2291  0.2689  0.4778
 7400TIP3    H143691   0.310   0.057   1.175  0.0692 -0.1178 -0.5878
 7400TIP3    H243692   0.302   0.137   1.047  0.1998  1.3893  0.3390
 7401TIP3   OH243693   4.027   4.942   2.808 -0.7425  0.6640  0.2924
 7401TIP3    H143694   4.074   4.910   2.730 -0.3033  0.2453  0.7174
 7401TIP3    H243695   3.941   4.900   2.803 -0.8567  0.9522 -0.1766
 7402TIP3   OH243696   0.482   3.220   3.653  0.0464 -0.2507  0.4274
 7402TIP3    H143697   0.488   3.308   3.617 -1.7184 -0.1309  0.3932
 7402TIP3    H243698   0.518   3.229   3.742 -0.7145  0.6530  0.6569
 7403TIP3   OH243699   5.427   6.104   5.715 -0.6010 -0.2031  0.5643
 7403TIP3    H143700   5.372   6.115   5.637  2.3031 -0.2972 -1.5589
 7403TIP3    H243701   5.431   6.009   5.727  0.8459 -0.2991 -0.5898
 7404TIP3   OH243702   5.203   5.994  16.703 -0.2764  0.1553  0.5289
 7404TIP3    H143703   5.278   6.027  16.654 -0.6074 -1.0117 -0.7929
 7404TIP3    H243704   5.151   5.946  16.638 -1.0335 -0.9045  1.8890
 7405TIP3   OH243705   4.037   6.429  12.446  0.4054 -0.2569  0.1083
 7405TIP3    H143706   4.009   6.442  12.537 -0.1212 -0.2380 -0.0504
 7405TIP3    H243707   4.102   6.497  12.431  1.8447 -1.4067  1.0287
 7406TIP3   OH243708   0.223   2.635  11.223  0.3635 -0.1339  0.1175
 7406TIP3    H143709   0.273   2.633  11.305  0.9884  1.8001 -0.2007
 7406TIP3    H243710   0.149   2.692  11.241 -0.8218 -1.6160  0.0485
 7407TIP3   OH243711   4.808   3.334   1.094  0.2182 -0.4072  0.0947
 7407TIP3    H143712   4.715   3.348   1.108 -0.0665 -2.3691  0.3184
 7407TIP3    H243713   4.816   3.318   1.000  0.8903  3.5384 -0.6334
 7408TIP3   OH243714   6.032   4.377   0.096 -0.2114 -0.7389  0.0163
 7408TIP3    H143715   5.943   4.409   0.083  0.0437 -0.1141 -0.1864
 7408TIP3    H243716   6.072   4.379   0.009 -0.4680 -2.4266 -0.1450
 7409TIP3   OH243717   3.384   4.001   3.685  0.5494  0.0625 -0.3793
 7409TIP3    H143718   3.381   3.929   3.622  2.0886  1.4567 -2.0997
 7409TIP3    H243719   3.327   3.973   3.757  0.5174 -2.5147 -1.3770
 7410TIP3   OH243720   1.290   3.663   2.460 -0.2684 -0.1557  0.4238
 7410TIP3    H143721   1.289   3.570   2.440  2.2525 -0.4265  1.3789
 7410TIP3    H243722   1.249   3.669   2.547 -0.0119 -0.4246  0.5642
 7411TIP3   OH243723   0.999   0.225  12.720 -0.3831  0.1412 -0.2952
 7411TIP3    H143724   0.911   0.225  12.684 -0.3002 -0.7745 -0.4998
 7411TIP3    H243725   1.045   0.295  12.672 -0.3924 -0.7847 -1.6713
 7412TIP3   OH243726   3.576   4.590   2.774  0.6352 -0.4842 -0.4384
 7412TIP3    H143727   3.653   4.641   2.748  0.5038  0.6420  1.2542
 7412TIP3    H243728   3.568   4.522   2.707  3.2322 -0.7695 -0.5153
 7413TIP3   OH243729   2.805   5.293   4.078 -0.5548  0.1991  0.1888
 7413TIP3    H143730   2.847   5.244   4.149  0.7536 -0.1618 -0.8176
 7413TIP3    H243731   2.800   5.230   4.006 -0.4907  1.0322 -0.5395
 7414TIP3   OH243732   2.199   5.602   1.288 -0.6414 -0.9147  0.3311
 7414TIP3    H143733   2.224   5.684   1.330 -0.0751 -0.6476 -0.4937
 7414TIP3    H243734   2.278   5.574   1.241 -0.9480 -1.7253  0.2785
 7415TIP3   OH243735   5.890   4.927  13.839 -0.2931 -0.2287  0.7864
 7415TIP3    H143736   5.824   4.964  13.898  1.1641  0.0555  2.2720
 7415TIP3    H243737   5.879   4.976  13.757 -1.4700  0.2773  1.2303
 7416TIP3   OH243738   2.748   3.726   1.576  0.7986  0.2082  0.3979
 7416TIP3    H143739   2.754   3.817   1.605  0.4155  0.3229  0.1153
 7416TIP3    H243740   2.792   3.676   1.646  1.9033  0.6960  0.0663
 7417TIP3   OH243741   0.773   0.232  16.593 -0.3427 -0.4876 -0.6409
 7417TIP3    H143742   0.839   0.289  16.631  0.3934  0.3258 -3.0712
 7417TIP3    H243743   0.778   0.152  16.645  2.9988 -0.6748 -1.1680
 7418TIP3   OH243744   0.404   5.442  10.987  0.7805  0.4730 -0.6905
 7418TIP3    H143745   0.480   5.494  11.010  0.3057  0.0738  1.8552
 7418TIP3    H243746   0.331   5.482  11.033 -0.4579  0.3987 -2.5020
 7419TIP3   OH243747   3.720   6.443  14.931 -0.5996  0.0431 -0.4639
 7419TIP3    H143748   3.764   6.381  14.873  0.7615  1.0542 -0.5600
 7419TIP3    H243749   3.678   6.505  14.872 -1.4370 -0.4266 -0.3674
 7420TIP3   OH243750   4.017   1.650  11.621 -0.1540  0.2767  0.2064
 7420TIP3    H143751   3.961   1.627  11.547 -0.6960  0.2582  0.6191
 7420TIP3    H243752   4.069   1.724  11.590 -0.0906  0.0071 -0.3297
 7421TIP3   OH243753   3.744   6.526   0.228  0.4825  0.0603 -0.2326
 7421TIP3    H143754   3.736   6.457   0.162 -0.0734  0.2194 -0.3427
 7421TIP3    H243755   3.740   6.608   0.178  1.1956  0.1681 -0.1090
 7422TIP3   OH243756   0.152   4.349   3.077  0.7398 -0.0426 -0.3970
 7422TIP3    H143757   0.059   4.328   3.084  0.6803  0.1879 -0.4732
 7422TIP3    H243758   0.154   4.445   3.069  0.8099 -0.2127 -2.9869
 7423TIP3   OH243759   5.084   5.521   4.252  0.1689 -0.2571 -0.0490
 7423TIP3    H143760   5.036   5.482   4.325 -1.2617  0.5594 -0.5431
 7423TIP3    H243761   5.046   5.481   4.174  1.5130 -0.9273 -0.3750
 7424TIP3   OH243762   2.077   0.171  13.249  0.2879  0.3804 -0.0253
 7424TIP3    H143763   2.042   0.122  13.323 -0.6305  0.8590 -0.1357
 7424TIP3    H243764   2.160   0.207  13.281 -1.2432  2.5881  1.5703
 7425TIP3   OH243765   4.298   3.624   4.389 -0.1402  0.3782  0.2210
 7425TIP3    H143766   4.360   3.577   4.445  1.3449  2.2944  0.2534
 7425TIP3    H243767   4.289   3.568   4.312 -0.2959 -1.1084  1.3041
 7426TIP3   OH243768   6.049   4.068  14.805 -0.5188 -0.3219 -0.3137
 7426TIP3    H143769   6.108   4.052  14.879 -2.1344 -0.8362  0.9260
 7426TIP3    H243770   6.067   3.997  14.744 -0.3157 -0.8654  0.3622
 7427TIP3   OH243771   4.672   5.891   3.054  0.2035  0.0981 -0.4825
 7427TIP3    H143772   4.693   5.802   3.081  0.5853  0.1510 -0.6022
 7427TIP3    H243773   4.607   5.881   2.985  0.8659 -0.1182 -1.0724
 7428TIP3   OH243774   1.867   1.999  15.119 -0.1272 -0.0388 -0.1936
 7428TIP3    H143775   1.869   1.963  15.207 -0.6373  1.7136  0.5581
 7428TIP3    H243776   1.806   1.942  15.071 -2.8483  1.1938  1.6417
 7429TIP3   OH243777   3.354   5.091  14.383  0.5186  0.1717  0.0847
 7429TIP3    H143778   3.263   5.063  14.376  0.4782  0.4234 -0.4745
 7429TIP3    H243779   3.403   5.031  14.326  0.7108  0.0111  0.4143
 7430TIP3   OH243780   1.423   2.452   1.590 -0.3939 -0.2829  0.3216
 7430TIP3    H143781   1.407   2.477   1.499  3.4569 -1.5752 -0.8159
 7430TIP3    H243782   1.470   2.527   1.628  0.7484 -0.9657  0.2993
 7431TIP3   OH243783   4.887   0.092  12.044 -0.2469  0.2225  0.4008
 7431TIP3    H143784   4.891   0.040  12.124 -0.0261 -0.0108  0.2383
 7431TIP3    H243785   4.847   0.034  11.979 -0.9165  0.5918  0.4806
 7432TIP3   OH243786   3.114   5.549  13.561 -0.3093 -0.2957 -0.3211
 7432TIP3    H143787   3.117   5.590  13.647  0.2495  0.3879 -0.6549
 7432TIP3    H243788   3.073   5.615  13.505 -0.8013 -0.7941 -0.5394
 7433TIP3   OH243789   2.942   3.067  16.425  0.1387  0.6260 -0.2223
 7433TIP3    H143790   2.926   3.158  16.449  1.9210  0.7474  0.6168
 7433TIP3    H243791   3.033   3.051  16.451  0.4440 -0.8386 -2.0991
 7434TIP3   OH243792   2.007   5.417  16.636  0.0477 -0.1963  0.1014
 7434TIP3    H143793   2.022   5.424  16.730 -1.2496 -0.7940  0.3609
 7434TIP3    H243794   1.967   5.501  16.611  0.8656  0.1617 -0.0133
 7435TIP3   OH243795   2.075   2.830  14.870  0.9543 -0.1904 -0.2060
 7435TIP3    H143796   2.108   2.917  14.888 -1.0304  0.2120  1.8027
 7435TIP3    H243797   2.131   2.796  14.801  0.7919  3.2520 -2.1375
 7436TIP3   OH243798   3.118   0.634  14.024 -0.8893  0.0104  0.0364
 7436TIP3    H143799   3.106   0.715  13.975 -0.4455  0.5720  0.8488
 7436TIP3    H243800   3.213   0.621  14.028 -0.9254 -0.1077  0.6226
 7437TIP3   OH243801   5.476   3.966   4.233  0.2571 -0.2945  0.0124
 7437TIP3    H143802   5.494   4.059   4.220  0.7212 -0.1844  1.2919
 7437TIP3    H243803   5.530   3.921   4.169 -0.7014  0.3577 -1.2610
 7438TIP3   OH243804   1.693   5.467   1.120  0.2830  0.0838 -0.5625
 7438TIP3    H143805   1.601   5.493   1.116  0.4235  0.6210 -0.3683
 7438TIP3    H243806   1.710   5.456   1.214  0.4760  0.1984 -0.5841
 7439TIP3   OH243807   2.467   0.669   5.995 -0.0606 -0.2427 -0.6791
 7439TIP3    H143808   2.547   0.689   6.042 -1.8069  0.4603  2.0625
 7439TIP3    H243809   2.437   0.753   5.961 -2.2623  0.3823  2.6135
 7440TIP3   OH243810   2.215   2.029  15.198 -0.0869  0.1184  0.0071
 7440TIP3    H143811   2.248   2.008  15.285 -0.8714 -0.1108  0.2493
 7440TIP3    H243812   2.161   2.107  15.211  1.5649  1.4116 -0.6400
 7441TIP3   OH243813   0.741   5.367  12.476 -0.4408  0.0947  0.0126
 7441TIP3    H143814   0.774   5.456  12.488 -0.6524  0.1807 -0.0369
 7441TIP3    H243815   0.764   5.346  12.385 -1.2008  0.4471 -0.2742
 7442TIP3   OH243816   6.787   4.876  14.940  0.3123  0.0771  0.1179
 7442TIP3    H143817   6.807   4.905  15.030  0.1605 -1.0369  0.5183
 7442TIP3    H243818   6.870   4.882  14.894  0.6370 -0.3858  0.6279
 7443TIP3   OH243819   4.496   3.960   4.003 -0.4481 -0.4106 -0.1096
 7443TIP3    H143820   4.473   3.880   4.050  2.1346 -0.8461  0.4993
 7443TIP3    H243821   4.472   3.942   3.912 -0.8257 -1.4927  0.1962
 7444TIP3   OH243822   6.565   5.446  16.079  0.4813  0.6576 -0.2325
 7444TIP3    H143823   6.531   5.360  16.055  3.8421 -1.1426  1.0766
 7444TIP3    H243824   6.512   5.473  16.154 -0.1616 -0.6089 -0.2253
 7445TIP3   OH243825   5.694   6.423  14.811 -0.1785  0.1266 -0.1605
 7445TIP3    H143826   5.785   6.449  14.829  0.2264 -1.0205 -0.5266
 7445TIP3    H243827   5.662   6.491  14.751  0.9364 -0.2678 -1.2490
 7446TIP3   OH243828   4.231   4.155  14.890 -0.5957 -0.0623  0.6226
 7446TIP3    H143829   4.229   4.180  14.797 -0.6602 -0.8740  0.4044
 7446TIP3    H243830   4.143   4.124  14.909  0.0890 -2.3167  0.2752
 7447TIP3   OH243831   5.382   3.845  14.778 -0.5009 -0.8051  0.1303
 7447TIP3    H143832   5.343   3.759  14.794 -0.8728 -0.6515  0.0525
 7447TIP3    H243833   5.452   3.828  14.714 -0.5559 -1.0501  0.1337
 7448TIP3   OH243834   0.365   4.651  13.106  0.1091 -0.1503 -0.0650
 7448TIP3    H143835   0.285   4.632  13.057  1.2405  0.9819 -2.4443
 7448TIP3    H243836   0.420   4.700  13.045  1.6041  1.3173  2.3407
 7449TIP3   OH243837   1.765   3.147   3.462  0.1819  0.4261 -0.8786
 7449TIP3    H143838   1.842   3.104   3.424 -1.1488 -2.5705 -0.3361
 7449TIP3    H243839   1.703   3.154   3.389 -0.5632 -0.9598 -0.4012
 7450TIP3   OH243840   3.626   0.372  14.278  0.3951  0.5386  0.1102
 7450TIP3    H143841   3.557   0.356  14.214  2.2526 -1.2547 -1.5313
 7450TIP3    H243842   3.631   0.292  14.329  2.0645  0.1729 -0.5945
 7451TIP3   OH243843   2.760   1.032   5.894 -0.3082  0.0244 -0.0156
 7451TIP3    H143844   2.854   1.037   5.914 -0.8203  1.0539  2.3515
 7451TIP3    H243845   2.722   1.106   5.941 -2.2372  0.0319 -1.5197
 7452TIP3   OH243846   2.652   6.173   5.547 -0.1314 -0.7209 -0.1293
 7452TIP3    H143847   2.730   6.133   5.508  0.0168 -2.3824  1.8186
 7452TIP3    H243848   2.682   6.261   5.573  1.8766 -2.2011  2.8673
 7453TIP3   OH243849   1.373   3.810  16.162  0.0320 -0.1732 -0.4909
 7453TIP3    H143850   1.389   3.787  16.071  1.2786  0.0960 -0.3474
 7453TIP3    H243851   1.389   3.730  16.211  0.2827 -0.0739 -0.4106
 7454TIP3   OH243852   2.773   3.916   6.131 -0.2389 -0.5014 -0.3235
 7454TIP3    H143853   2.762   3.860   6.208  0.6089  0.2055  0.3165
 7454TIP3    H243854   2.850   3.969   6.151 -1.1535  1.0409 -0.8515
 7455TIP3   OH243855   5.973   2.195   1.872 -0.8274  0.7071 -0.1147
 7455TIP3    H143856   6.026   2.215   1.949 -1.7164 -0.4055  0.8141
 7455TIP3    H243857   5.883   2.207   1.902 -1.2084 -0.6096 -0.7244
 7456TIP3   OH243858   0.594   6.671   3.820 -0.1683 -0.2446  0.4235
 7456TIP3    H143859   0.637   6.707   3.898 -2.4553  3.0375  0.2908
 7456TIP3    H243860   0.642   6.710   3.747 -1.6738  1.4425  0.2788
 7457TIP3   OH243861   0.256   0.278  10.849  0.0501 -0.2284 -0.0891
 7457TIP3    H143862   0.262   0.275  10.754 -1.4426  0.5444 -0.2311
 7457TIP3    H243863   0.164   0.259  10.868  0.0196  1.0219  1.1103
 7458TIP3   OH243864   1.936   6.105   3.490 -0.1703  0.3103 -0.4170
 7458TIP3    H143865   1.995   6.030   3.499 -1.6445 -1.1651 -2.6002
 7458TIP3    H243866   1.978   6.161   3.424 -1.6888 -1.2818 -2.7942
 7459TIP3   OH243867   3.206   2.942  11.876 -0.3527 -0.7455 -0.3143
 7459TIP3    H143868   3.180   2.934  11.785 -0.4353  2.9576 -0.7036
 7459TIP3    H243869   3.302   2.950  11.873 -0.5570  2.3944 -0.4315
 7460TIP3   OH243870   2.760   6.149   2.873 -0.1186  0.1981 -0.4996
 7460TIP3    H143871   2.810   6.193   2.942  0.3949 -1.4475  0.2115
 7460TIP3    H243872   2.716   6.077   2.918 -2.7961  1.3370 -1.2195
 7461TIP3   OH243873   5.623   4.819   3.511 -0.8584  0.3623 -0.2668
 7461TIP3    H143874   5.568   4.822   3.589 -0.3468  2.9260  0.0380
 7461TIP3    H243875   5.567   4.851   3.441 -0.5885  0.3488 -0.4876
 7462TIP3   OH243876   1.923   4.819  16.250 -0.1246  0.1587  0.5349
 7462TIP3    H143877   2.003   4.870  16.238  0.7022 -1.3361 -0.5827
 7462TIP3    H243878   1.907   4.778  16.165  0.1330 -2.6473  1.7632
 7463TIP3   OH243879   4.464   2.532   5.049  0.4087 -0.3949 -0.1529
 7463TIP3    H143880   4.428   2.576   5.126  0.8214  1.1044 -0.7946
 7463TIP3    H243881   4.395   2.470   5.022 -1.1537  1.4610 -0.5632
 7464TIP3   OH243882   4.819   1.663  16.981 -0.4198  0.6694  0.8745
 7464TIP3    H143883   4.784   1.649  16.893  0.1462  0.8669  0.6088
 7464TIP3    H243884   4.771   1.739  17.014  0.1760  1.3217  0.2734
 7465TIP3   OH243885   2.564   4.597  16.314 -0.0284 -0.0114 -0.3886
 7465TIP3    H143886   2.584   4.541  16.239  1.6305  0.3100 -0.2035
 7465TIP3    H243887   2.622   4.566  16.384 -1.8498 -0.5931  0.9209
 7466TIP3   OH243888   3.035   2.758   5.993  0.4713 -0.2644  0.0363
 7466TIP3    H143889   3.039   2.852   5.975  0.3179  0.0955  1.8282
 7466TIP3    H243890   2.942   2.740   6.003  0.6317 -0.2306  1.6219
 7467TIP3   OH243891   6.501   4.697  13.088  0.0205 -0.2087 -0.1622
 7467TIP3    H143892   6.439   4.732  13.024 -0.4882 -0.9808 -0.0943
 7467TIP3    H243893   6.551   4.632  13.038  0.2483 -0.1438 -0.0157
 7468TIP3   OH243894   6.606   6.422   3.037  0.1320  0.1320 -0.0720
 7468TIP3    H143895   6.562   6.501   3.007  0.2552  0.3915  0.4229
 7468TIP3    H243896   6.693   6.451   3.063  0.9700 -0.5650 -2.0282
 7469TIP3   OH243897   1.862   3.222   1.610  0.0540  0.0365  0.6934
 7469TIP3    H143898   1.925   3.170   1.560  0.4825  0.9855  0.2288
 7469TIP3    H243899   1.810   3.266   1.544  0.2830  0.8963  1.0809
 7470TIP3   OH243900   3.965   6.040   0.453  0.3226  0.3779  0.3192
 7470TIP3    H143901   4.018   6.004   0.381 -1.0460 -0.0446 -0.4964
 7470TIP3    H243902   3.927   6.120   0.417 -1.2614 -0.4219  0.1773
 7471TIP3   OH243903   3.848   0.652  15.458 -0.2942 -0.1074  0.0098
 7471TIP3    H143904   3.886   0.583  15.403  0.1628  0.9757 -1.0542
 7471TIP3    H243905   3.757   0.626  15.469 -0.5541 -0.0419 -1.7753
 7472TIP3   OH243906   4.783   6.635   4.216 -0.3399  0.0487  0.0205
 7472TIP3    H143907   4.727   6.613   4.141 -2.6117  1.6309  1.2223
 7472TIP3    H243908   4.843   6.702   4.182  1.3674 -2.1471 -1.4579
 7473TIP3   OH243909   0.964   6.413   0.703  0.0656 -0.2296 -0.6621
 7473TIP3    H143910   0.940   6.320   0.708 -0.8938 -0.0074 -0.9977
 7473TIP3    H243911   1.039   6.421   0.762 -0.0981 -1.1412 -0.3116
 7474TIP3   OH243912   2.425   0.262   0.043 -0.3526 -0.0684  0.0573
 7474TIP3    H143913   2.429   0.282  -0.051  0.5523  0.5035  0.2153
 7474TIP3    H243914   2.393   0.343   0.083 -3.0930 -1.0599  0.0093
 7475TIP3   OH243915   3.311   4.955  13.156 -0.3071 -0.3043  0.4320
 7475TIP3    H143916   3.313   4.998  13.070 -1.8544  0.5534  0.7891
 7475TIP3    H243917   3.219   4.960  13.182  0.0486 -1.0917  1.8732
 7476TIP3   OH243918   3.670   0.185  14.523 -0.8414  0.3051 -0.4057
 7476TIP3    H143919   3.744   0.127  14.505  0.7930  2.0985  0.3764
 7476TIP3    H243920   3.608   0.130  14.570  1.2649 -0.4893  1.5609
 7477TIP3   OH243921   1.118   6.497  11.214  0.0749  0.7950 -0.0167
 7477TIP3    H143922   1.075   6.582  11.218  0.9559  1.2313  0.3127
 7477TIP3    H243923   1.114   6.473  11.121 -1.1851  0.6625  0.0667
 7478TIP3   OH243924   4.461   3.669  17.057  0.5848  0.5667  0.0977
 7478TIP3    H143925   4.365   3.670  17.055  0.5384 -0.5081  0.9467
 7478TIP3    H243926   4.487   3.760  17.043 -0.5845  1.0103  0.7288
 7479TIP3   OH243927   1.867   0.062   5.384 -0.0802 -0.3833  0.0374
 7479TIP3    H143928   1.792   0.122   5.388 -0.0125 -0.1929 -1.3807
 7479TIP3    H243929   1.861   0.012   5.465 -2.2972 -1.0094 -0.4649
 7480TIP3   OH243930   1.861   0.204   5.644 -0.4834  0.1383 -0.3766
 7480TIP3    H143931   1.904   0.271   5.590 -0.6818 -0.6951 -1.5681
 7480TIP3    H243932   1.777   0.244   5.668 -1.1908 -0.1902 -2.2060
 7481TIP3   OH243933   3.479   3.384   4.563 -0.0211 -0.5677  0.0045
 7481TIP3    H143934   3.549   3.322   4.545 -0.2951 -0.3207 -1.9466
 7481TIP3    H243935   3.523   3.460   4.602  0.4988 -1.3124  0.8984
 7482TIP3   OH243936   1.226   1.673   3.052 -0.2997  0.0369  1.0392
 7482TIP3    H143937   1.236   1.750   2.996  0.7479 -0.3876  0.6186
 7482TIP3    H243938   1.249   1.703   3.139 -0.9312  0.4506  1.0678
 7483TIP3   OH243939   5.190   1.065  14.007 -0.1243  0.0837  0.0131
 7483TIP3    H143940   5.126   1.116  14.057 -0.6069 -0.0936 -0.4211
 7483TIP3    H243941   5.139   1.025  13.937  0.2276 -1.1207  0.4380
 7484TIP3   OH243942   1.427   5.191   1.607  0.4916  0.2321 -0.1503
 7484TIP3    H143943   1.502   5.248   1.626  1.4160 -0.4396 -1.6883
 7484TIP3    H243944   1.375   5.241   1.544  0.0909  0.3340  0.2591
 7485TIP3   OH243945   4.772   6.393  15.867  0.1554 -0.1150 -0.6288
 7485TIP3    H143946   4.865   6.376  15.848  0.3434 -1.5256  1.3459
 7485TIP3    H243947   4.772   6.427  15.956 -1.2386 -0.0832 -0.6299
 7486TIP3   OH243948   2.100   3.681  12.017  0.2368 -0.4796  0.0621
 7486TIP3    H143949   2.024   3.692  11.961  0.5202 -0.0770 -0.2520
 7486TIP3    H243950   2.084   3.600  12.066 -0.9404  0.2290  0.8783
 7487TIP3   OH243951   1.352   4.409   3.014  0.1961 -0.3129 -0.8288
 7487TIP3    H143952   1.294   4.441   2.945  0.5386  0.6632 -0.6647
 7487TIP3    H243953   1.310   4.328   3.043 -0.8152  0.1082 -1.0635
 7488TIP3   OH243954   1.302   2.519  10.703 -0.3693 -0.4115 -0.2603
 7488TIP3    H143955   1.235   2.491  10.641 -1.7944  1.1672  0.5360
 7488TIP3    H243956   1.272   2.487  10.787  1.2262 -1.9708 -0.2536
 7489TIP3   OH243957   2.042   1.672  16.485  0.3639 -0.3036 -0.1156
 7489TIP3    H143958   2.110   1.739  16.495 -0.1061  0.2207 -0.3983
 7489TIP3    H243959   2.014   1.653  16.574 -0.8547  1.2891 -0.1367
 7490TIP3   OH243960   1.205   4.376   1.530  0.3220 -0.1761  0.1516
 7490TIP3    H143961   1.113   4.399   1.542  0.3260 -0.7282  1.3885
 7490TIP3    H243962   1.252   4.458   1.544  0.1431 -0.3052  1.6569
 7491TIP3   OH243963   2.563   1.875   0.545  0.1227 -0.2470  0.7758
 7491TIP3    H143964   2.470   1.887   0.525  0.0371 -2.4883 -0.2054
 7491TIP3    H243965   2.563   1.835   0.632  0.2612  1.7963  1.7447
 7492TIP3   OH243966   0.202   4.334  11.522  0.0641  0.4043 -0.1136
 7492TIP3    H143967   0.194   4.267  11.590  0.7830  0.6032  0.1686
 7492TIP3    H243968   0.293   4.328  11.493 -0.2286  0.3519 -1.0298
 7493TIP3   OH243969   1.033   6.430  12.923 -0.2065 -0.0356 -0.3504
 7493TIP3    H143970   1.026   6.468  13.011  1.0810  1.6606 -0.9550
 7493TIP3    H243971   1.103   6.365  12.931 -1.2039 -1.0526  0.2586
 7494TIP3   OH243972   2.644   5.044   1.113 -0.4688 -0.1343  0.0309
 7494TIP3    H143973   2.607   4.956   1.122 -0.7566 -0.2845 -2.2549
 7494TIP3    H243974   2.666   5.070   1.202  0.6510 -2.9630  0.6498
 7495TIP3   OH243975   3.370   1.659  11.007 -0.6113 -0.0560 -0.2174
 7495TIP3    H143976   3.356   1.662  10.913  1.2099 -2.4795 -0.6347
 7495TIP3    H243977   3.312   1.589  11.038 -1.4933  0.9875  0.5513
 7496TIP3   OH243978   6.615   1.487  12.674  0.1953  0.0312 -0.2983
 7496TIP3    H143979   6.699   1.529  12.694 -0.7557  2.0824 -0.5097
 7496TIP3    H243980   6.571   1.480  12.759 -0.2263  0.8023 -0.4404
 7497TIP3   OH243981   4.379   3.109   2.608  0.2853  0.6027  0.4396
 7497TIP3    H143982   4.397   3.195   2.571 -0.0251  0.8687  0.9046
 7497TIP3    H243983   4.287   3.093   2.588  0.1012  0.7710  1.1355
 7498TIP3   OH243984   1.422   0.265  15.689  0.3445  0.7793 -0.2664
 7498TIP3    H143985   1.348   0.223  15.646 -0.2690 -1.2209  2.5592
 7498TIP3    H243986   1.395   0.356  15.700 -0.6549  0.6372 -1.4612
 7499TIP3   OH243987   5.633   3.516   4.292  0.0208  0.0457 -0.1309
 7499TIP3    H143988   5.622   3.433   4.337 -0.7649  0.1083 -0.2016
 7499TIP3    H243989   5.604   3.499   4.202 -1.0968  0.6631  0.1137
 7500TIP3   OH243990   5.821   4.419  16.566  0.2708 -0.0826  0.5823
 7500TIP3    H143991   5.823   4.506  16.606  0.0758 -1.0418  2.7858
 7500TIP3    H243992   5.913   4.395  16.557  0.3266  0.4136 -0.1583
 7501TIP3   OH243993   5.897   2.424  11.772  0.2928 -0.1566 -0.2486
 7501TIP3    H143994   5.810   2.449  11.743  0.3164  1.0661  0.7312
 7501TIP3    H243995   5.955   2.457  11.704 -0.0444 -1.5202 -1.2163
 7502TIP3   OH243996   2.802   2.758  11.481  0.1490  0.0788 -0.1551
 7502TIP3    H143997   2.889   2.746  11.517 -0.0009 -1.8345 -0.3741
 7502TIP3    H243998   2.816   2.796  11.395  0.6870  1.1231  0.3882
 7503TIP3   OH243999   4.393   3.440   0.653  0.4856 -0.4761 -0.1609
 7503TIP3    H144000   4.488   3.445   0.644  0.5606 -2.4499 -0.7917
 7503TIP3    H244001   4.372   3.348   0.637 -1.2750 -0.6282  2.6180
 7504TIP3   OH244002   1.941   5.352  15.716  0.2214 -0.2684  0.0159
 7504TIP3    H144003   1.961   5.307  15.634 -0.2895  0.1127 -0.3264
 7504TIP3    H244004   1.847   5.371  15.711  0.6675  2.0525 -0.4940
 7505TIP3   OH244005   3.702   6.026   0.632  0.2838  0.1988  1.2855
 7505TIP3    H144006   3.709   5.931   0.617  1.8020  0.2440  1.6922
 7505TIP3    H244007   3.775   6.047   0.690  0.6323  1.8236  0.2832
 7506TIP3   OH244008   3.099   2.150  16.923  0.6566 -0.0502 -0.4510
 7506TIP3    H144009   3.171   2.115  16.977 -0.7766 -1.5750  0.5602
 7506TIP3    H244010   3.059   2.218  16.978 -0.2068 -0.9431  0.0571
 7507TIP3   OH244011   2.545   1.017  13.536  0.0105  0.3415  0.5853
 7507TIP3    H144012   2.572   1.023  13.444 -2.1199 -0.8369 -0.1627
 7507TIP3    H244013   2.561   1.104  13.572  0.0460  1.0683 -1.1391
 7508TIP3   OH244014   3.230   4.732   1.393 -0.3200  0.5974  0.9156
 7508TIP3    H144015   3.214   4.771   1.479  0.5414  0.8967  0.9417
 7508TIP3    H244016   3.170   4.657   1.389 -0.0368  0.3074  1.9627
 7509TIP3   OH244017   2.482   4.265   1.625 -0.1400 -0.0433 -0.0920
 7509TIP3    H144018   2.486   4.209   1.547  0.2048 -0.3976  0.1814
 7509TIP3    H244019   2.488   4.205   1.699  0.4933  0.3791  0.2018
 7510TIP3   OH244020   0.682   5.729   2.147 -0.2667 -0.5055  0.2217
 7510TIP3    H144021   0.679   5.656   2.085  1.6616 -1.3239  1.0565
 7510TIP3    H244022   0.768   5.769   2.132 -0.5146  0.3789  1.1474
 7511TIP3   OH244023   2.581   3.577   1.436  0.4969  0.8956 -1.0763
 7511TIP3    H144024   2.643   3.507   1.416  0.2206  0.8296 -1.7191
 7511TIP3    H244025   2.634   3.644   1.478  0.4119 -0.4791  1.2923
 7512TIP3   OH244026   0.386   3.179   3.270  0.2507 -0.2728  0.1886
 7512TIP3    H144027   0.332   3.113   3.227 -0.2833  1.5968 -2.0701
 7512TIP3    H244028   0.328   3.219   3.335 -0.0961 -0.4900  0.0119
 7513TIP3   OH244029   0.951   0.493  10.580  0.0288 -0.0149 -0.2883
 7513TIP3    H144030   1.041   0.507  10.608 -0.0354  0.8008 -0.4653
 7513TIP3    H244031   0.903   0.471  10.660 -0.2066  2.5395  0.3176
 7514TIP3   OH244032   3.655   5.213  16.785  0.2887  0.2867  0.1285
 7514TIP3    H144033   3.726   5.184  16.727 -0.1788  0.1773 -0.3887
 7514TIP3    H244034   3.602   5.272  16.731  0.0896  0.5218  0.5743
 7515TIP3   OH244035   2.395   5.109   5.735 -0.4293 -0.0228  0.2356
 7515TIP3    H144036   2.299   5.109   5.739 -0.4819  2.4677 -0.1258
 7515TIP3    H244037   2.423   5.139   5.822  0.0606 -1.1982  0.4992
 7516TIP3   OH244038   6.065   6.697   0.990 -0.4801  0.8677  0.7223
 7516TIP3    H144039   6.067   6.653   1.074  0.2163  0.0668  0.2946
 7516TIP3    H244040   5.972   6.707   0.970 -0.6590 -0.4664  0.8104
 7517TIP3   OH244041   3.113   4.898  14.034 -0.2396  0.2090 -0.0152
 7517TIP3    H144042   3.200   4.903  13.994  0.4253 -0.0414  1.3499
 7517TIP3    H244043   3.056   4.947  13.975  0.7024 -0.1837 -1.2670
 7518TIP3   OH244044   4.049   2.424   0.336  0.0714  0.6982  0.0304
 7518TIP3    H144045   4.021   2.515   0.328 -1.1100  0.3896  0.5720
 7518TIP3    H244046   4.015   2.380   0.258  1.5122  0.9276 -0.7431
 7519TIP3   OH244047   3.135   6.612  14.471  0.0710 -0.0858 -0.1956
 7519TIP3    H144048   3.068   6.544  14.468  0.2604 -0.2882  0.1165
 7519TIP3    H244049   3.096   6.682  14.523  1.0663 -1.2762  2.2421
 7520TIP3   OH244050   3.779   1.350   2.594  0.0331 -0.2202 -0.2877
 7520TIP3    H144051   3.692   1.389   2.596 -1.2572 -2.9224 -0.9670
 7520TIP3    H244052   3.773   1.274   2.652  2.5048  0.5890  1.1135
 7521TIP3   OH244053   2.653   3.858   4.284  0.4077 -0.0363 -0.2284
 7521TIP3    H144054   2.740   3.898   4.291  0.6692 -0.1467 -2.4404
 7521TIP3    H244055   2.592   3.931   4.297  0.7854 -0.0790  2.0103
 7522TIP3   OH244056   3.002   4.728  17.213  0.5849 -0.0829  0.1522
 7522TIP3    H144057   3.009   4.656  17.276  0.7175  1.2190  1.6508
 7522TIP3    H244058   3.089   4.766  17.210  0.7581 -0.5856 -1.3804
 7523TIP3   OH244059   2.473   3.904   4.018 -0.2380 -0.0315 -0.5299
 7523TIP3    H144060   2.461   3.998   4.001 -1.0959  0.4042  2.2481
 7523TIP3    H244061   2.531   3.901   4.093 -0.6968 -1.7121 -0.2341
 7524TIP3   OH244062   3.843   4.492   4.851 -0.5286  0.4875 -0.7259
 7524TIP3    H144063   3.832   4.587   4.853 -0.0225  0.5516 -1.1022
 7524TIP3    H244064   3.755   4.457   4.870 -0.7375  1.0262 -0.7085
 7525TIP3   OH244065   3.533   3.110  15.782 -0.4345  0.3856 -0.3380
 7525TIP3    H144066   3.535   3.134  15.690 -0.7963  1.6702 -0.0182
 7525TIP3    H244067   3.623   3.120  15.811 -0.6070  1.4818 -0.1773
 7526TIP3   OH244068   4.789   5.562   3.731  0.1976 -0.2478 -0.3024
 7526TIP3    H144069   4.815   5.471   3.747 -1.7656 -0.2997  3.2046
 7526TIP3    H244070   4.725   5.557   3.660 -0.0429 -1.6502 -0.0072
 7527TIP3   OH244071   0.017   0.621  16.594  0.6735 -0.0800 -0.4089
 7527TIP3    H144072   0.065   0.561  16.536  0.2241 -0.4301 -0.4183
 7527TIP3    H244073   0.056   0.707  16.576  2.6520 -0.6568  1.0268
 7528TIP3   OH244074   6.598   3.861   5.064 -0.2262 -0.1784  0.1646
 7528TIP3    H144075   6.646   3.834   4.986 -1.4070  1.4975 -1.1952
 7528TIP3    H244076   6.619   3.954   5.074  0.0822 -0.4206  1.9860
 7529TIP3   OH244077   2.185   5.261   4.980  0.3616  0.4364  0.5844
 7529TIP3    H144078   2.165   5.312   4.902  0.9989  1.4335  1.0648
 7529TIP3    H244079   2.271   5.221   4.962 -0.4256 -1.0058 -0.0527
 7530TIP3   OH244080   5.392   6.355  14.144  0.5198 -0.2519 -0.4332
 7530TIP3    H144081   5.391   6.260  14.134  0.9777 -0.1983 -0.9428
 7530TIP3    H244082   5.327   6.386  14.081 -0.0605 -0.2622  0.1465
 7531TIP3   OH244083   3.095   4.223  16.783 -0.3365 -0.0620  0.2442
 7531TIP3    H144084   3.132   4.146  16.825  0.9356  0.8248  0.7792
 7531TIP3    H244085   3.167   4.286  16.781 -1.4491  1.2235  0.0941
 7532TIP3   OH244086   6.763   0.095  11.512 -0.0358 -0.0482 -1.1607
 7532TIP3    H144087   6.713   0.017  11.538 -0.7919  0.4464 -1.1290
 7532TIP3    H244088   6.714   0.132  11.439  0.1301  0.6007 -0.9468
 7533TIP3   OH244089   2.402   3.168   1.680 -0.3734  0.2915 -0.5934
 7533TIP3    H144090   2.493   3.184   1.656 -0.4422 -0.4324 -1.3825
 7533TIP3    H244091   2.363   3.130   1.601 -1.4306  0.8707 -0.3538
 7534TIP3   OH244092   4.622   1.833   1.800  0.2181  0.1681 -0.6169
 7534TIP3    H144093   4.662   1.909   1.756  0.1795 -0.1001 -1.1215
 7534TIP3    H244094   4.530   1.836   1.773 -0.7154  2.2379  2.5565
 7535TIP3   OH244095   2.033   0.547  15.505 -0.2384 -0.2523  0.2841
 7535TIP3    H144096   2.030   0.638  15.477  0.5588 -0.0216  0.9298
 7535TIP3    H244097   1.979   0.500  15.441  0.4586  0.4635 -0.8318
 7536TIP3   OH244098   1.144   2.411  13.550 -0.0054  0.1773  0.3259
 7536TIP3    H144099   1.063   2.404  13.600 -0.6427 -1.3188 -0.8945
 7536TIP3    H244100   1.209   2.364  13.602  0.3286  2.1494  1.7540
 7537TIP3   OH244101   5.025   0.863  10.854  0.4308  0.5889  0.6818
 7537TIP3    H144102   4.950   0.918  10.876 -0.0588 -0.5353  1.8546
 7537TIP3    H244103   4.990   0.773  10.853  1.1761  0.2881 -1.3644
 7538TIP3   OH244104   4.238   1.753  13.080 -0.3648 -0.0348 -0.1488
 7538TIP3    H144105   4.302   1.705  13.134  0.3213  2.1001  0.9916
 7538TIP3    H244106   4.242   1.843  13.113 -0.2440  1.2469 -3.4950
 7539TIP3   OH244107   0.675   1.619   3.555  0.0347 -0.2495 -0.3397
 7539TIP3    H144108   0.591   1.652   3.525 -0.8898 -0.9545  1.3805
 7539TIP3    H244109   0.698   1.675   3.629 -0.5366 -2.0450  1.2671
 7540TIP3   OH244110   4.021   5.114  14.081 -0.6535 -0.0070  0.0487
 7540TIP3    H144111   4.060   5.147  14.001 -0.9581 -0.0359 -0.1128
 7540TIP3    H244112   4.086   5.053  14.116 -0.3833  0.2500 -0.0067
 7541TIP3   OH244113   2.765   5.232   3.768  0.5870 -0.0773 -0.2629
 7541TIP3    H144114   2.688   5.266   3.723  0.0181  1.0023  1.4873
 7541TIP3    H244115   2.730   5.174   3.836  1.4437 -1.8317 -1.2788
 7542TIP3   OH244116   6.050   1.467  15.000  0.3130 -0.2372  0.1894
 7542TIP3    H144117   5.981   1.488  14.937 -0.0061 -1.1212  0.2461
 7542TIP3    H244118   6.004   1.464  15.084  0.4753 -0.5373  0.2657
 7543TIP3   OH244119   4.333   6.764  14.166  0.0318  0.7811 -0.3337
 7543TIP3    H144120   4.364   6.811  14.243 -0.7441 -1.2266  1.2386
 7543TIP3    H244121   4.408   6.714  14.136 -0.4364 -0.6179  0.8077
 7544TIP3   OH244122   4.290   2.968   2.240 -0.3146 -0.1121  0.3407
 7544TIP3    H144123   4.314   3.010   2.158  0.4790 -2.4984 -0.7184
 7544TIP3    H244124   4.374   2.945   2.281 -0.6917  1.5635  2.1304
 7545TIP3   OH244125   0.429   1.278  16.347  0.1899  0.3455  0.3697
 7545TIP3    H144126   0.422   1.257  16.254 -0.4671  0.6421  0.3508
 7545TIP3    H244127   0.516   1.248  16.372 -0.0425 -0.7396 -0.0853
 7546TIP3   OH244128   5.082   1.344  16.433  0.2007  0.5553  0.5654
 7546TIP3    H144129   5.163   1.350  16.382 -0.4784  1.3506 -0.4236
 7546TIP3    H244130   5.071   1.430  16.472 -0.7072  0.7421 -0.1102
 7547TIP3   OH244131   0.304   5.019   3.052 -0.0298  0.2661  0.3820
 7547TIP3    H144132   0.234   5.049   2.995  1.7247  2.5561 -0.6710
 7547TIP3    H244133   0.342   4.944   3.007 -2.1669 -1.4113  1.2850
 7548TIP3   OH244134   0.144   1.041  15.943  0.2239  0.3913  0.1101
 7548TIP3    H144135   0.171   1.046  15.852  1.6746 -0.9217  0.4498
 7548TIP3    H244136   0.069   0.982  15.943 -0.6027  1.4236 -0.3898
 7549TIP3   OH244137   5.506   3.046  16.253  0.1910 -0.1547 -0.2188
 7549TIP3    H144138   5.437   3.089  16.201 -1.2768 -1.7709  0.3494
 7549TIP3    H244139   5.545   2.982  16.193 -1.0843 -1.5848  0.4503
 7550TIP3   OH244140   2.503   6.734   3.430 -0.1978 -0.4585  0.6822
 7550TIP3    H144141   2.465   6.659   3.474  0.8218 -0.8543  0.9096
 7550TIP3    H244142   2.506   6.708   3.338  1.1738 -1.1486  0.9088
 7551TIP3   OH244143   1.867   5.148  11.694  0.1058 -0.4979 -0.0871
 7551TIP3    H144144   1.777   5.182  11.690  0.2544 -0.3376 -2.3142
 7551TIP3    H244145   1.870   5.102  11.778 -1.9745 -0.2702  0.1565
 7552TIP3   OH244146   6.557   2.511  15.228  0.0122  0.6577  0.1693
 7552TIP3    H144147   6.479   2.474  15.270  0.1537 -1.5617 -1.4541
 7552TIP3    H244148   6.523   2.586  15.178 -0.6828  1.1830  1.3831
 7553TIP3   OH244149   1.829   4.371   1.182  0.3741 -0.1402  0.0521
 7553TIP3    H144150   1.755   4.311   1.176  0.1730  0.1220 -0.0584
 7553TIP3    H244151   1.895   4.335   1.123 -0.7794  1.2622 -2.1405
 7554TIP3   OH244152   6.688   2.327   1.358 -0.3146  1.1466  0.0053
 7554TIP3    H144153   6.708   2.234   1.345 -0.8724  1.1574 -0.9370
 7554TIP3    H244154   6.774   2.370   1.355 -0.1566  0.7924 -0.6372
 7555TIP3   OH244155   4.334   3.663  11.828  0.3071 -0.5488 -0.1668
 7555TIP3    H144156   4.408   3.636  11.884 -0.6075 -1.1253  0.7840
 7555TIP3    H244157   4.357   3.751  11.800  1.0289 -0.4439  0.7085
 7556TIP3   OH244158   1.148   2.531  17.146  0.0487  0.1119  0.3256
 7556TIP3    H144159   1.076   2.488  17.100 -0.2268 -1.0114  1.7660
 7556TIP3    H244160   1.221   2.528  17.085 -0.6046 -0.3857 -0.4381
 7557TIP3   OH244161   2.782   4.158   3.924  0.3447 -0.2340 -0.2494
 7557TIP3    H144162   2.876   4.171   3.912  0.1429  1.1180 -0.4850
 7557TIP3    H244163   2.765   4.071   3.888  1.8388 -1.3385  1.6638
 7558TIP3   OH244164   3.747   0.611   3.320 -0.2857 -0.4332  0.4627
 7558TIP3    H144165   3.666   0.581   3.361 -1.0656 -0.2897 -0.9696
 7558TIP3    H244166   3.718   0.674   3.254  1.0015 -0.3170  0.0077
 7559TIP3   OH244167   5.162   0.329   5.077 -0.1869 -0.1742  0.1176
 7559TIP3    H144168   5.194   0.383   5.004 -0.3544 -0.0473  0.1394
 7559TIP3    H244169   5.159   0.389   5.152 -1.4439  0.0572 -0.1206
 7560TIP3   OH244170   5.948   0.376  16.017 -0.2391  0.4970  0.3761
 7560TIP3    H144171   5.988   0.321  15.950  0.5327 -0.0263  1.2625
 7560TIP3    H244172   5.854   0.374  15.996 -0.2387 -1.2764  0.4798
 7561TIP3   OH244173   0.074   1.009  17.142 -0.0991 -0.0025  0.2753
 7561TIP3    H144174   0.030   0.957  17.075 -1.2093  0.4811  0.6253
 7561TIP3    H244175   0.163   1.021  17.108  0.1824 -2.1039  0.1962
 7562TIP3   OH244176   2.146   5.432  11.899  0.3083 -0.8742 -0.2953
 7562TIP3    H144177   2.199   5.352  11.892 -0.7043 -1.6639  1.0412
 7562TIP3    H244178   2.190   5.484  11.965  0.3961 -0.7737 -0.4337
 7563TIP3   OH244179   2.710   3.900   3.844  0.0552  0.1200 -0.1944
 7563TIP3    H144180   2.616   3.914   3.855 -0.4517 -1.3895 -2.2200
 7563TIP3    H244181   2.716   3.821   3.790  2.4741  0.5473 -0.6134
 7564TIP3   OH244182   3.605   0.887   4.159  0.3337 -0.6189  0.2636
 7564TIP3    H144183   3.596   0.797   4.190 -0.8854 -0.7819 -0.5494
 7564TIP3    H244184   3.606   0.939   4.239  0.6763 -1.3228  0.7246
 7565TIP3   OH244185   2.518   3.902   5.096  0.8046  0.1966 -0.6342
 7565TIP3    H144186   2.549   3.875   5.009  0.1751 -0.6037 -0.6057
 7565TIP3    H244187   2.471   3.984   5.079  2.3742  1.1033 -0.7644
 7566TIP3   OH244188   2.423   5.920  12.258 -1.2096  0.5727 -0.2708
 7566TIP3    H144189   2.354   5.984  12.276 -2.0408  0.0003 -1.3432
 7566TIP3    H244190   2.429   5.917  12.163  0.8928  1.2190 -0.1822
 7567TIP3   OH244191   2.698   6.653  14.217 -0.4692 -0.3659 -0.4965
 7567TIP3    H144192   2.743   6.729  14.181  0.6416 -0.3572  0.8439
 7567TIP3    H244193   2.615   6.649  14.170 -0.1547  1.1518 -1.1976
 7568TIP3   OH244194   5.207   5.065   1.052 -0.5526  0.0652  0.2032
 7568TIP3    H144195   5.125   5.028   1.084 -0.9469  0.6684 -0.0948
 7568TIP3    H244196   5.238   5.120   1.123  1.1549 -2.4958  1.5171
 7569TIP3   OH244197   4.146   1.576   6.165 -0.0462  0.3017 -0.6731
 7569TIP3    H144198   4.094   1.554   6.087 -0.2990 -2.0316  0.1276
 7569TIP3    H244199   4.220   1.625   6.131  0.1242 -1.1323 -2.4600
 7570TIP3   OH244200   2.625   3.476  13.575  0.2586 -0.0123  0.0620
 7570TIP3    H144201   2.690   3.499  13.641 -1.3823  0.0759  1.6984
 7570TIP3    H244202   2.593   3.561  13.543  1.6483 -0.0514 -1.4759
 7571TIP3   OH244203   6.073   2.052  10.654 -0.2799 -0.2401  0.0652
 7571TIP3    H144204   6.067   2.065  10.560 -0.3835  0.0107  0.1060
 7571TIP3    H244205   6.162   2.079  10.676 -0.2182 -0.4056  0.0250
 7572TIP3   OH244206   2.415   1.001   6.000 -0.4416  0.3702 -0.2871
 7572TIP3    H144207   2.438   1.052   6.078  0.7484  0.2711 -0.5759
 7572TIP3    H244208   2.324   0.976   6.015 -0.4297  0.9151  0.7681
 7573TIP3   OH244209   0.779   3.978  17.064  0.3871  0.1214 -0.5224
 7573TIP3    H144210   0.763   3.957  16.972 -0.8664  0.9143 -0.4962
 7573TIP3    H244211   0.727   4.057  17.080  1.3994  0.5756  0.5989
 7574TIP3   OH244212   0.810   3.559  11.155 -0.3665 -0.5034  0.1326
 7574TIP3    H144213   0.752   3.492  11.119 -1.3401 -0.2745  1.2434
 7574TIP3    H244214   0.875   3.511  11.205 -0.2455 -0.6906 -0.1995
 7575TIP3   OH244215   1.048   2.134  12.879  0.1110  0.0706 -0.9885
 7575TIP3    H144216   1.020   2.210  12.828 -0.9969  1.2301  1.2881
 7575TIP3    H244217   1.126   2.164  12.926  1.4671 -1.1721 -2.3741
 7576TIP3   OH244218   3.174   2.835  12.147  0.1436  0.1310 -0.7844
 7576TIP3    H144219   3.207   2.850  12.059  1.5447  1.7108 -0.0283
 7576TIP3    H244220   3.124   2.914  12.168 -0.4232 -0.3568 -0.2498
 7577TIP3   OH244221   4.385   1.101  13.583  0.0654  0.4335  0.2231
 7577TIP3    H144222   4.418   1.179  13.629  0.7677  0.5087 -0.4058
 7577TIP3    H244223   4.303   1.131  13.543 -1.3292 -0.0157  2.5876
 7578TIP3   OH244224   1.909   4.297  12.095  0.3442  0.0309  0.4266
 7578TIP3    H144225   1.879   4.379  12.055 -1.9508 -2.2554 -2.7643
 7578TIP3    H244226   1.832   4.240  12.095  2.4222 -2.8872  0.5786
 7579TIP3   OH244227   1.785   4.785  11.912 -0.2912  0.2278  0.2549
 7579TIP3    H144228   1.770   4.747  11.825 -0.1151  0.0515  0.3022
 7579TIP3    H244229   1.794   4.710  11.970  0.6609  0.3211  0.2470
 7580TIP3   OH244230   2.393   0.693  12.278 -0.9320 -0.3668  0.0350
 7580TIP3    H144231   2.462   0.748  12.242 -0.7125 -0.3435  0.4841
 7580TIP3    H244232   2.410   0.693  12.372 -1.6114 -0.2718  0.1545
 7581TIP3   OH244233   1.538   1.886  13.473 -0.2545 -0.6457  0.1864
 7581TIP3    H144234   1.565   1.942  13.401 -1.2248  0.4077  0.6264
 7581TIP3    H244235   1.618   1.871  13.524 -0.1087  0.9137  0.4455
 7582TIP3   OH244236   4.911   6.183   2.662  0.1802  0.1533 -0.0837
 7582TIP3    H144237   4.989   6.135   2.690 -0.1842  0.6164  1.8034
 7582TIP3    H244238   4.881   6.229   2.741 -1.8147  0.2518 -0.8584
 7583TIP3   OH244239   0.984   5.432   4.938  0.0729 -0.0836 -0.1115
 7583TIP3    H144240   0.944   5.350   4.964 -1.0402  0.4791 -0.0264
 7583TIP3    H244241   0.912   5.495   4.937  1.0673  1.1075  0.7527
 7584TIP3   OH244242   5.690   4.008  14.113  0.3082  0.0761 -0.4879
 7584TIP3    H144243   5.635   3.972  14.044  0.8516 -1.0154 -0.3548
 7584TIP3    H244244   5.666   3.958  14.191 -0.3660  1.3545  0.1513
 7585TIP3   OH244245   6.675   2.893   3.902  0.2011 -0.5253  0.3529
 7585TIP3    H144246   6.747   2.927   3.848 -0.5216  0.7134  0.1415
 7585TIP3    H244247   6.691   2.930   3.989  0.5311 -1.3035  0.6285
 7586TIP3   OH244248   3.021   3.465  10.415 -0.2084  0.0234  0.0114
 7586TIP3    H144249   2.966   3.502  10.347 -0.8017 -0.4660  0.2255
 7586TIP3    H244250   3.049   3.540  10.467  2.0494  0.6733 -2.0679
 7587TIP3   OH244251   2.427   6.227   5.157  0.4299  0.6266 -0.2544
 7587TIP3    H144252   2.332   6.240   5.156  0.3020 -0.0347  1.8840
 7587TIP3    H244253   2.439   6.133   5.171  1.4096  0.5841 -1.2806
 7588TIP3   OH244254   0.605   1.984  11.105  0.2895  0.3760 -0.0041
 7588TIP3    H144255   0.534   1.937  11.148 -0.1833  0.4195 -0.7120
 7588TIP3    H244256   0.665   2.008  11.175 -1.3126  1.9306  0.8554
 7589TIP3   OH244257   0.767   2.400   3.754  0.4125 -0.5140  0.0933
 7589TIP3    H144258   0.719   2.448   3.821  1.1806  2.4335 -1.3498
 7589TIP3    H244259   0.772   2.461   3.681  0.6997 -3.1831 -2.1883
 7590TIP3   OH244260   5.999   0.083   1.552  0.8670 -0.3074 -0.2970
 7590TIP3    H144261   5.911   0.054   1.526  0.5477  0.6486 -0.2792
 7590TIP3    H244262   6.043   0.002   1.578 -0.7577 -0.5373  1.9240
 7591TIP3   OH244263   1.895   5.781   1.433  0.3940 -0.9187  0.4872
 7591TIP3    H144264   1.860   5.846   1.373  0.8844 -0.7612  0.3751
 7591TIP3    H244265   1.898   5.826   1.518  1.2504 -0.6193  0.3001
 7592TIP3   OH244266   1.931   4.105   2.214 -0.5286 -0.3447 -0.6559
 7592TIP3    H144267   2.012   4.148   2.185 -0.1322 -1.2311 -0.8836
 7592TIP3    H244268   1.940   4.098   2.309 -0.5072 -0.0973 -0.6397
 7593TIP3   OH244269   0.182   2.256   2.227 -0.1856 -0.6106 -0.2550
 7593TIP3    H144270   0.181   2.334   2.283  0.2051 -1.9195  1.6219
 7593TIP3    H244271   0.273   2.248   2.198 -0.6680  0.8914 -2.3221
 7594TIP3   OH244272   1.400   3.393  12.619  0.3894 -0.5075  0.1095
 7594TIP3    H144273   1.467   3.421  12.556  1.6170  0.1228  1.6706
 7594TIP3    H244274   1.395   3.298  12.607  2.4252 -0.7289  0.7875
 7595TIP3   OH244275   4.087   0.027  13.110 -0.0530  0.0693 -0.5570
 7595TIP3    H144276   4.129  -0.008  13.031 -1.0877  0.4543 -1.2754
 7595TIP3    H244277   4.098  -0.043  13.175  1.7602  0.1842 -0.7003
 7596TIP3   OH244278   0.172   5.022  13.198  0.3692 -0.0668  0.3540
 7596TIP3    H144279   0.114   5.080  13.247 -1.5621  1.1236 -3.1682
 7596TIP3    H244280   0.117   4.949  13.171  1.6865 -1.2887  0.9344
 7597TIP3   OH244281   6.457   5.173   4.929  0.2897 -0.3722 -0.3264
 7597TIP3    H144282   6.550   5.173   4.909  0.3425  2.8710 -0.3659
 7597TIP3    H244283   6.415   5.206   4.850 -0.4937  1.8834  0.9740
 7598TIP3   OH244284   5.291   4.829  13.852  0.3904  0.2740  0.7814
 7598TIP3    H144285   5.379   4.810  13.885  0.3779 -0.4631  0.4095
 7598TIP3    H244286   5.297   4.814  13.758 -0.3136 -0.5166  0.8499
 7599TIP3   OH244287   2.426   3.583  16.095 -0.7693  0.1507 -0.3020
 7599TIP3    H144288   2.406   3.492  16.117 -0.7652  0.0189 -0.8533
 7599TIP3    H244289   2.451   3.581  16.003  2.0744  0.2594  0.4029
 7600TIP3   OH244290   6.642   6.316  11.448  0.5363 -0.1301  0.2050
 7600TIP3    H144291   6.558   6.335  11.407  0.3608 -0.5280  0.3771
 7600TIP3    H244292   6.703   6.377  11.406  0.0962  0.4072  0.3366
 7601TIP3   OH244293   0.527   4.017   4.460 -0.1623  0.3708  0.5019
 7601TIP3    H144294   0.517   4.068   4.541  1.4095  0.6792  0.5183
 7601TIP3    H244295   0.580   3.942   4.485 -1.6978 -0.8041  0.2687
 7602TIP3   OH244296   3.385   1.625  12.711 -0.2725  0.7251  0.5452
 7602TIP3    H144297   3.338   1.622  12.628 -0.9816  0.5352  0.9393
 7602TIP3    H244298   3.341   1.695  12.760 -0.3144  0.3688  1.0187
 7603TIP3   OH244299   2.434   4.102  12.975  0.4567  0.5255 -0.0023
 7603TIP3    H144300   2.383   4.141  12.904  0.1053 -2.3124 -1.3420
 7603TIP3    H244301   2.413   4.009  12.973  0.3228  0.3552  3.9354
 7604TIP3   OH244302   4.125   2.424   4.671  0.0582 -0.0246  0.3574
 7604TIP3    H144303   4.082   2.339   4.658 -0.1169 -0.0934  1.3595
 7604TIP3    H244304   4.065   2.472   4.729  0.9742  0.1521  1.1675
 7605TIP3   OH244305   5.782   5.102   5.099 -0.1840  0.3419 -0.0417
 7605TIP3    H144306   5.711   5.078   5.158  1.3725 -2.5017  0.7865
 7605TIP3    H244307   5.773   5.197   5.087 -4.4054 -0.0178 -0.4396
 7606TIP3   OH244308   4.802   5.757   2.598  0.4162  0.1674  0.3245
 7606TIP3    H144309   4.870   5.823   2.581  1.6773 -0.5417  2.3725
 7606TIP3    H244310   4.851   5.677   2.617 -1.0553 -0.8471 -0.0547
 7607TIP3   OH244311   1.007   6.635  15.342 -0.1359 -0.1344 -0.1751
 7607TIP3    H144312   1.050   6.713  15.376  0.3094 -0.4995  0.1100
 7607TIP3    H244313   1.079   6.578  15.314 -0.4471 -0.5450 -0.1500
 7608TIP3   OH244314   0.825   1.764  11.791 -0.1933  0.0483  0.1493
 7608TIP3    H144315   0.878   1.805  11.859  1.1018 -0.4269 -0.5573
 7608TIP3    H244316   0.798   1.836  11.735  2.1292 -0.0405 -1.1284
 7609TIP3   OH244317   3.849   4.742  15.584 -0.1528  0.4899  0.0880
 7609TIP3    H144318   3.876   4.827  15.551  0.1939  0.5554  0.5295
 7609TIP3    H244319   3.926   4.709  15.630 -0.5176  0.2492  0.5312
 7610TIP3   OH244320   0.771   0.962   5.545 -0.5168 -0.3876  0.3400
 7610TIP3    H144321   0.746   0.888   5.600  0.8138 -0.5896  0.6975
 7610TIP3    H244322   0.867   0.961   5.546 -0.4732  1.5253  0.6049
 7611TIP3   OH244323   0.699   4.553   0.815  0.0545 -0.2433 -0.7570
 7611TIP3    H144324   0.647   4.612   0.761  0.4082  0.1386 -0.6853
 7611TIP3    H244325   0.784   4.597   0.824 -0.2808  0.1164  0.8220
 7612TIP3   OH244326   3.405   0.596   1.868  0.2197 -0.2899  0.0105
 7612TIP3    H144327   3.473   0.537   1.900  0.5183 -1.4135 -2.5897
 7612TIP3    H244328   3.421   0.602   1.774 -1.5775  1.6634 -0.2043
 7613TIP3   OH244329   4.490   0.870   0.809 -0.4431 -0.4350 -0.0640
 7613TIP3    H144330   4.534   0.817   0.875 -0.5245 -0.2632  0.1302
 7613TIP3    H244331   4.456   0.946   0.857  0.8804  0.4962 -0.5764
 7614TIP3   OH244332   0.649   3.116   5.244 -0.0332 -0.1070  0.1284
 7614TIP3    H144333   0.639   3.021   5.250  1.4157 -0.2518  0.3426
 7614TIP3    H244334   0.583   3.151   5.304 -0.2548 -0.9824  0.4036
 7615TIP3   OH244335   3.291   2.844  14.725 -0.0451  0.2571  0.1185
 7615TIP3    H144336   3.303   2.798  14.808  0.1533  0.7556  0.3692
 7615TIP3    H244337   3.377   2.880  14.705  0.2180 -0.9420 -0.9603
 7616TIP3   OH244338   6.151   5.543  13.320 -0.0667  0.0600  0.1693
 7616TIP3    H144339   6.228   5.489  13.334 -0.0361  0.0495 -0.0509
 7616TIP3    H244340   6.184   5.623  13.279 -0.1120  0.2442  0.4867
 7617TIP3   OH244341   4.912   5.799  15.604 -0.4042  0.3378  0.1233
 7617TIP3    H144342   4.854   5.875  15.595 -1.7762 -0.6555  0.3552
 7617TIP3    H244343   4.936   5.776  15.515 -0.9122  0.3572 -0.0226
 7618TIP3   OH244344   2.583   5.877   0.753 -0.2796 -0.4398 -0.4755
 7618TIP3    H144345   2.592   5.877   0.657  0.4262 -1.4846 -0.4190
 7618TIP3    H244346   2.670   5.899   0.785 -0.9348  1.7000 -0.0796
 7619TIP3   OH244347   5.900   6.776   4.423 -0.4018  0.0417  0.5216
 7619TIP3    H144348   5.937   6.743   4.505  1.0476 -0.1008 -0.1701
 7619TIP3    H244349   5.958   6.847   4.398  0.4685 -1.3519 -1.5208
 7620TIP3   OH244350   1.318   1.439  10.942 -0.1281 -0.1817 -0.3895
 7620TIP3    H144351   1.301   1.356  10.987 -0.7319  0.1189 -0.0596
 7620TIP3    H244352   1.407   1.430  10.908 -0.5512 -1.3617 -1.2304
 7621TIP3   OH244353   0.548   0.040   5.085 -0.3329 -0.0621  0.2046
 7621TIP3    H144354   0.568   0.050   4.991  0.8784  0.1254  0.4653
 7621TIP3    H244355   0.634   0.029   5.126 -0.7569  1.1115  1.4421
 7622TIP3   OH244356   5.943   3.803   2.458  0.2647  0.1215  0.5705
 7622TIP3    H144357   5.980   3.847   2.534  1.5265  1.3269 -0.7272
 7622TIP3    H244358   5.915   3.873   2.400  2.1706 -0.7328 -1.4630
 7623TIP3   OH244359   5.569   2.972  16.980 -0.4031 -0.0230 -0.2071
 7623TIP3    H144360   5.479   2.998  16.960 -0.7992 -1.2703 -0.0982
 7623TIP3    H244361   5.603   2.940  16.896 -0.0381  0.5106 -0.2623
 7624TIP3   OH244362   5.717   3.772   4.229  0.9954 -0.0635 -0.1301
 7624TIP3    H144363   5.720   3.759   4.134 -1.1473 -0.1290 -0.2289
 7624TIP3    H244364   5.675   3.692   4.262  1.7225 -0.0342  0.8726
 7625TIP3   OH244365   6.729   2.596  16.006 -0.2656  0.2348 -0.1590
 7625TIP3    H144366   6.738   2.676  15.954 -0.9446  0.6479  0.3439
 7625TIP3    H244367   6.751   2.624  16.096  1.9128 -0.6947 -0.3765
 7626TIP3   OH244368   4.895   0.029  12.540  0.1473  0.0399  0.3163
 7626TIP3    H144369   4.861   0.011  12.627  0.7718 -0.5495  0.4533
 7626TIP3    H244370   4.820   0.058  12.489 -0.0736  1.1293  1.2533
 7627TIP3   OH244371   5.257   5.527  15.899 -0.2670 -0.1732 -0.3785
 7627TIP3    H144372   5.215   5.464  15.840  1.4308 -0.6973 -1.0564
 7627TIP3    H244373   5.349   5.501  15.900 -0.5616 -1.4653  4.1145
 7628TIP3   OH244374   1.622   6.379  11.014  0.1968 -0.6330  0.2985
 7628TIP3    H144375   1.590   6.380  10.924 -0.8088 -0.0257  0.6520
 7628TIP3    H244376   1.543   6.370  11.067  0.7885 -0.9855  1.1188
 7629TIP3   OH244377   3.340   2.877   4.446 -0.4150 -0.6629  0.2736
 7629TIP3    H144378   3.371   2.853   4.359 -1.9834 -1.7612 -0.0121
 7629TIP3    H244379   3.360   2.802   4.501 -0.8382 -0.6045  0.5138
 7630TIP3   OH244380   3.954   3.443   4.773  0.2507  0.1923 -0.2948
 7630TIP3    H144381   3.931   3.419   4.863 -2.0680 -0.9026 -1.1494
 7630TIP3    H244382   3.894   3.515   4.751 -0.7706 -1.0486 -1.7113
 7631TIP3   OH244383   6.443   6.460  15.121 -0.0675 -0.3598 -0.0468
 7631TIP3    H144384   6.492   6.519  15.178 -2.7121  0.5729  1.3151
 7631TIP3    H244385   6.456   6.496  15.033  0.6579  0.5762  0.4292
 7632TIP3   OH244386   2.946   4.096   0.124  0.1872 -0.3345  0.1895
 7632TIP3    H144387   2.996   4.015   0.118  1.2929  0.1551  2.1869
 7632TIP3    H244388   2.982   4.153   0.056  0.4847 -0.9446 -0.1614
 7633TIP3   OH244389   6.547   1.809   5.769  0.0911  0.2958  0.2757
 7633TIP3    H144390   6.471   1.866   5.774 -1.3455 -1.3168 -2.1768
 7633TIP3    H244391   6.596   1.841   5.693  0.3185 -0.4844  0.0916
 7634TIP3   OH244392   0.519   1.989  11.844  0.2086  0.1247  0.6266
 7634TIP3    H144393   0.516   2.066  11.903 -0.6124 -0.8058  1.8276
 7634TIP3    H244394   0.470   1.922  11.891 -1.7949 -0.1742 -1.8487
 7635TIP3   OH244395   5.787   0.795  11.398 -0.8968  0.0005  0.0682
 7635TIP3    H144396   5.797   0.890  11.398  0.8324 -0.1615 -1.2486
 7635TIP3    H244397   5.787   0.771  11.305 -1.6972 -1.2490  0.3787
 7636TIP3   OH244398   2.848   4.294  16.379 -0.1547  0.1057  0.3792
 7636TIP3    H144399   2.882   4.320  16.294 -0.0285 -1.5187 -0.0796
 7636TIP3    H244400   2.913   4.234  16.414 -1.4048 -1.1758  0.5247
 7637TIP3   OH244401   1.329   3.698  13.790  0.2573  0.0129  0.7720
 7637TIP3    H144402   1.372   3.755  13.726 -1.3490 -0.5506 -0.8741
 7637TIP3    H244403   1.237   3.724  13.788 -0.2525 -1.6785  1.0087
 7638TIP3   OH244404   6.806   3.493   4.758 -0.2875 -0.5309 -0.2153
 7638TIP3    H144405   6.809   3.588   4.771  1.2877 -0.6147  0.1720
 7638TIP3    H244406   6.716   3.468   4.779 -0.4440  0.7399  0.6651
 7639TIP3   OH244407   1.261   2.033   5.950  0.6546 -0.4681 -0.6907
 7639TIP3    H144408   1.231   2.022   6.040 -1.0329  0.3788 -1.1355
 7639TIP3    H244409   1.352   2.063   5.958 -0.2475  2.0312  0.7874
 7640TIP3   OH244410   6.451   2.652   0.762  0.6542  0.4445 -0.0377
 7640TIP3    H144411   6.443   2.614   0.850  0.6823  0.7928  0.1175
 7640TIP3    H244412   6.371   2.704   0.751 -0.2471 -1.1346 -0.9721
 7641TIP3   OH244413   2.987   4.341   3.275  0.5609  0.6891  0.2568
 7641TIP3    H144414   2.975   4.247   3.289  0.8273  0.7531  0.9887
 7641TIP3    H244415   2.915   4.382   3.323 -0.5577  0.8088 -1.4840
 7642TIP3   OH244416   3.415   0.875  13.305 -0.0380 -0.2883 -0.1076
 7642TIP3    H144417   3.479   0.927  13.256 -0.1615 -0.7023 -0.7126
 7642TIP3    H244418   3.331   0.899  13.267 -0.4128  1.4549  1.7600
 7643TIP3   OH244419   4.844   6.767   3.255  0.1598  0.2482 -0.5412
 7643TIP3    H144420   4.853   6.749   3.161 -1.7756 -3.3376 -0.1322
 7643TIP3    H244421   4.750   6.778   3.268  0.2893 -0.4645  1.1479
 7644TIP3   OH244422   1.196   4.595   3.426  0.0277 -0.0164  0.6277
 7644TIP3    H144423   1.132   4.526   3.408  1.3254 -0.7498 -1.4549
 7644TIP3    H244424   1.177   4.663   3.361 -0.2350  0.8851  1.6410
 7645TIP3   OH244425   4.677   3.404   2.243 -0.4649 -0.3921 -0.9556
 7645TIP3    H144426   4.747   3.370   2.298  0.0016  0.2335 -1.1594
 7645TIP3    H244427   4.721   3.460   2.180 -1.1331 -0.1135 -1.1777
 7646TIP3   OH244428   0.528   6.169   6.296  0.0231  0.0874  0.8194
 7646TIP3    H144429   0.442   6.141   6.327 -0.3134  1.2319  0.9359
 7646TIP3    H244430   0.568   6.089   6.262 -2.5710  0.1920 -2.7821
 7647TIP3   OH244431   3.643   5.456   4.460 -0.0508 -0.0288  0.3977
 7647TIP3    H144432   3.632   5.366   4.491 -0.9813 -0.3047 -0.7058
 7647TIP3    H244433   3.733   5.459   4.428  0.9158  0.2438  3.0229
 7648TIP3   OH244434   0.986   4.418  15.380 -0.1051  0.3316  0.2071
 7648TIP3    H144435   1.068   4.434  15.334 -0.0944  0.3901  0.2469
 7648TIP3    H244436   0.985   4.482  15.451 -0.7832  1.2231 -0.5719
 7649TIP3   OH244437   5.619   1.049   5.701 -0.1227 -0.5722  0.2074
 7649TIP3    H144438   5.567   1.105   5.759 -1.8209 -1.5617 -0.3216
 7649TIP3    H244439   5.696   1.026   5.753  0.8410  2.5598  0.3102
 7650TIP3   OH244440   1.461   2.512  16.190  0.4639 -0.0540 -0.1204
 7650TIP3    H144441   1.487   2.604  16.180 -0.9329  0.1878 -1.8267
 7650TIP3    H244442   1.502   2.468  16.115  1.5377 -0.9331  0.9625
 7651TIP3   OH244443   1.565   4.390   6.512 -0.0547 -0.3804 -0.3185
 7651TIP3    H144444   1.500   4.433   6.456  0.8418 -0.0738 -1.1285
 7651TIP3    H244445   1.512   4.344   6.578 -1.0516  1.3090  0.0928
 7652TIP3   OH244446   4.172   5.070  17.265 -0.3642 -0.2714  0.4721
 7652TIP3    H144447   4.146   5.158  17.239 -0.2561  0.0511  1.4114
 7652TIP3    H244448   4.095   5.034  17.309  0.3964  0.2824  2.2908
 7653TIP3   OH244449   2.927   6.005  16.343  0.3267 -0.4671  0.3185
 7653TIP3    H144450   2.873   6.079  16.371  2.7554  1.7693 -0.7271
 7653TIP3    H244451   2.888   5.976  16.260  0.2885  0.6574 -0.0595
 7654TIP3   OH244452   6.426   3.720  12.795  0.5947  0.0367  0.0639
 7654TIP3    H144453   6.357   3.786  12.801  0.0067 -0.5303 -0.3517
 7654TIP3    H244454   6.418   3.670  12.876  2.0261  1.4124  1.0813
 7655TIP3   OH244455   2.357   6.273  12.883  0.2592  0.6934 -1.0030
 7655TIP3    H144456   2.445   6.312  12.874  0.6754  0.0973  0.2868
 7655TIP3    H244457   2.358   6.198  12.825  1.2337 -0.3387  0.3060
 7656TIP3   OH244458   5.908   0.886  17.081 -0.0358  0.3211  0.0453
 7656TIP3    H144459   5.948   0.965  17.045  0.8349 -0.0086  0.2952
 7656TIP3    H244460   5.898   0.904  17.174  2.2435 -0.7234  0.5149
 7657TIP3   OH244461   0.224   6.482  17.170 -0.0461  0.0707  0.1108
 7657TIP3    H144462   0.263   6.519  17.091 -0.1483 -1.8294 -0.8544
 7657TIP3    H244463   0.153   6.426  17.138 -0.0395 -0.7810  1.5462
 7658TIP3   OH244464   6.320   1.083  17.117 -0.5059 -0.1086  0.3865
 7658TIP3    H144465   6.249   1.127  17.071 -0.1208  1.3839  1.1947
 7658TIP3    H244466   6.323   0.995  17.078 -1.9063  0.2531 -0.5730
 7659TIP3   OH244467   2.159   4.449  13.397  0.3379 -0.0420 -0.3135
 7659TIP3    H144468   2.090   4.515  13.406 -0.5489 -1.0344  0.2834
 7659TIP3    H244469   2.163   4.407  13.483  2.6291  0.9071  0.0801
 7660TIP3   OH244470   3.013   3.556   4.970  0.1714  0.2570 -0.0448
 7660TIP3    H144471   2.956   3.535   5.044  0.2385 -0.3167 -0.1526
 7660TIP3    H244472   3.100   3.567   5.009  0.5310 -1.7212 -0.2500
 7661TIP3   OH244473   2.325   0.027   0.031 -0.5526  0.6189 -0.0633
 7661TIP3    H144474   2.283   0.031   0.117 -2.5141 -0.8560 -0.9162
 7661TIP3    H244475   2.366   0.112   0.020 -1.8826  1.4932  1.5369
 7662TIP3   OH244476   1.161   4.229  12.549  0.2956 -0.8340  0.3357
 7662TIP3    H144477   1.238   4.204  12.497  0.9311 -0.4919  1.0989
 7662TIP3    H244478   1.111   4.147  12.557  1.0224 -1.2681  0.5638
 7663TIP3   OH244479   6.226   2.055  12.282  0.4112 -0.1372  0.0456
 7663TIP3    H144480   6.135   2.081  12.271  1.1783  2.5932 -0.2431
 7663TIP3    H244481   6.234   2.036  12.375  0.2443  2.5954  0.6527
 7664TIP3   OH244482   3.829   2.568  11.304  0.2275  0.8904 -0.6144
 7664TIP3    H144483   3.922   2.545  11.298  0.1331  0.6330 -1.1345
 7664TIP3    H244484   3.823   2.622  11.383  0.7293  0.4762 -0.2876
 7665TIP3   OH244485   3.668   0.785   3.119  0.1369 -0.5139  0.1576
 7665TIP3    H144486   3.620   0.863   3.143  0.4426 -0.7586  1.6063
 7665TIP3    H244487   3.717   0.810   3.040 -1.2576  0.1448 -0.5149
 7666TIP3   OH244488   0.954   6.780  11.191  0.0447  0.2087 -0.0702
 7666TIP3    H144489   0.895   6.742  11.255 -1.1341  1.5618 -0.3409
 7666TIP3    H244490   0.912   6.764  11.107  0.4680  0.4681 -0.3341
 7667TIP3   OH244491   4.833   6.739  13.579  0.5144 -0.7280 -0.8433
 7667TIP3    H144492   4.906   6.740  13.516  0.0354 -1.0690 -1.4035
 7667TIP3    H244493   4.810   6.647  13.587  0.4341 -0.6639 -0.3221
 7668TIP3   OH244494   3.282   1.778  16.980  0.7884 -0.7477 -0.3474
 7668TIP3    H144495   3.251   1.869  16.986  1.7226 -0.3051 -1.9540
 7668TIP3    H244496   3.242   1.734  17.055 -0.1894  0.8451  0.0892
 7669TIP3   OH244497   2.692   0.490  15.393  0.1392 -0.0920 -0.5323
 7669TIP3    H144498   2.784   0.465  15.383  0.3464 -0.5672  2.2213
 7669TIP3    H244499   2.644   0.426  15.340  1.2172 -1.6958  0.3665
 7670TIP3   OH244500   4.907   5.957  12.242 -0.3015  0.6011 -0.0996
 7670TIP3    H144501   4.947   6.042  12.226  2.7544 -0.7154  0.1293
 7670TIP3    H244502   4.872   5.930  12.157  0.3280  1.2974 -0.5844
 7671TIP3   OH244503   2.638   4.292   2.835  0.1408 -0.2883 -0.4390
 7671TIP3    H144504   2.695   4.323   2.765  0.2928 -1.4935 -0.8593
 7671TIP3    H244505   2.649   4.356   2.905  0.7507  0.3760 -1.1364
 7672TIP3   OH244506   1.707   2.442   2.839 -0.6842 -1.1011  0.0399
 7672TIP3    H144507   1.791   2.486   2.826 -0.2757 -2.4163 -1.9910
 7672TIP3    H244508   1.722   2.352   2.808 -2.4138 -1.7709  1.0624
 7673TIP3   OH244509   4.349   5.334   0.507  0.5354 -0.3968  0.0149
 7673TIP3    H144510   4.396   5.418   0.511  1.5412 -0.9797  0.6515
 7673TIP3    H244511   4.418   5.268   0.508 -0.2399 -1.2372 -0.8671
 7674TIP3   OH244512   0.437   4.063   0.350  0.4697 -0.1547  0.0311
 7674TIP3    H144513   0.482   3.984   0.321  0.8408  0.1676 -0.2735
 7674TIP3    H244514   0.396   4.039   0.433 -0.7219 -1.1316 -0.8228
 7675TIP3   OH244515   6.552   4.129   5.046 -0.4143  0.6731  0.3523
 7675TIP3    H144516   6.511   4.125   4.960 -2.0505  0.7129  1.1119
 7675TIP3    H244517   6.507   4.201   5.090  0.2420  0.4854  1.3332
 7676TIP3   OH244518   2.426   2.368  13.249 -0.3932  0.4406 -0.2654
 7676TIP3    H144519   2.516   2.343  13.273 -0.2908 -0.6726 -1.6887
 7676TIP3    H244520   2.384   2.285  13.228 -1.5517  1.0375 -0.3116
 7677TIP3   OH244521   3.909   1.042  10.943 -0.4003 -0.5408 -0.3347
 7677TIP3    H144522   3.975   1.074  10.882 -0.9145 -1.6528 -1.4827
 7677TIP3    H244523   3.830   1.033  10.891 -1.5305  0.9380  1.0625
 7678TIP3   OH244524   4.433   6.544  13.796  0.3171  0.1029  0.6305
 7678TIP3    H144525   4.497   6.546  13.867 -0.4031  2.3128  1.2350
 7678TIP3    H244526   4.475   6.593  13.725  0.2582 -0.5118  0.1562
 7679TIP3   OH244527   2.720   3.510  14.713 -0.0069 -0.1512 -0.8109
 7679TIP3    H144528   2.774   3.559  14.650 -1.4191  1.5720 -0.7246
 7679TIP3    H244529   2.636   3.556  14.713  0.3473  0.6848  3.2959
 7680TIP3   OH244530   3.629   4.889  12.851  0.2533  0.2159  0.5690
 7680TIP3    H144531   3.583   4.973  12.861  0.8307  0.4372  1.4759
 7680TIP3    H244532   3.716   4.914  12.820  0.8000  0.0496  1.9309
 7681TIP3   OH244533   1.781   2.843  15.792  0.6123  0.0513 -0.7947
 7681TIP3    H144534   1.705   2.896  15.815 -0.3139 -0.4105 -2.6861
 7681TIP3    H244535   1.817   2.885  15.715  1.5020 -0.4896 -0.6753
 7682TIP3   OH244536   6.693   5.390   3.343 -0.3832  0.5171 -0.2323
 7682TIP3    H144537   6.617   5.386   3.285 -0.5062  2.0654 -0.1906
 7682TIP3    H244538   6.768   5.387   3.284 -0.4631 -0.7377 -0.2891
 7683TIP3   OH244539   0.658   6.533   0.175 -0.1392 -0.4037 -0.9222
 7683TIP3    H144540   0.688   6.624   0.176 -2.5769  0.4629  1.5327
 7683TIP3    H244541   0.570   6.537   0.139 -0.2716 -1.8014 -0.7891
 7684TIP3   OH244542   2.071   2.127   0.580  0.2107  0.2611 -0.5811
 7684TIP3    H144543   2.066   2.160   0.491 -0.6697  0.0214 -0.6347
 7684TIP3    H244544   2.007   2.055   0.582  0.9059 -0.3533 -0.0207
 7685TIP3   OH244545   3.500   4.427   4.633  0.7059  0.0186 -0.1326
 7685TIP3    H144546   3.422   4.452   4.583  1.6670  0.1199 -1.6138
 7685TIP3    H244547   3.467   4.411   4.721 -0.9093  0.5827 -0.6023
 7686TIP3   OH244548   0.840   4.223  14.790 -0.3209 -0.3053  0.0014
 7686TIP3    H144549   0.768   4.208  14.851  0.7431 -0.7294  1.1740
 7686TIP3    H244550   0.907   4.266  14.843 -0.1571  1.1397 -1.3563
 7687TIP3   OH244551   3.746   6.101  12.233 -0.1136  0.5429  0.1982
 7687TIP3    H144552   3.688   6.175  12.217 -0.6585 -0.0922 -0.8327
 7687TIP3    H244553   3.769   6.107  12.326 -0.3528  1.8496  0.1769
 7688TIP3   OH244554   4.219   5.092   0.318  0.6832 -0.3155  0.1428
 7688TIP3    H144555   4.274   5.074   0.242  1.7686 -0.7872  1.0423
 7688TIP3    H244556   4.263   5.163   0.364 -0.1795  0.2352  0.1370
 7689TIP3   OH244557   2.811   4.345  11.173  0.3795 -0.2068 -0.9341
 7689TIP3    H144558   2.780   4.264  11.211  1.2868 -0.5221 -0.8544
 7689TIP3    H244559   2.748   4.411  11.202  0.2834 -0.6808 -0.0418
 7690TIP3   OH244560   5.888   4.052   5.327 -0.1850  0.8531  0.1464
 7690TIP3    H144561   5.874   3.984   5.393  1.0697 -1.1732 -1.5821
 7690TIP3    H244562   5.823   4.034   5.259  1.0186  0.5313 -0.9438
 7691TIP3   OH244563   5.017   0.236   2.700  0.0184 -0.3354 -0.3596
 7691TIP3    H144564   5.037   0.280   2.617  0.7299 -0.4943 -0.2710
 7691TIP3    H244565   4.972   0.303   2.752  0.5009  0.0911 -0.4795
 7692TIP3   OH244566   0.486   4.395   5.351 -0.1441 -0.1670  0.1734
 7692TIP3    H144567   0.440   4.476   5.326 -0.5379 -0.7807 -1.1347
 7692TIP3    H244568   0.417   4.329   5.357  0.2989 -0.6165  0.3457
 7693TIP3   OH244569   6.696   0.014  16.526  0.1724 -0.3488 -0.3530
 7693TIP3    H144570   6.755   0.080  16.563  0.3287 -0.9688  0.5140
 7693TIP3    H244571   6.611   0.033  16.566 -0.0304  0.0139 -0.9517
 7694TIP3   OH244572   3.127   2.054  14.451  0.1159 -0.0747 -0.3176
 7694TIP3    H144573   3.182   1.992  14.499  0.5034  1.0580  0.7196
 7694TIP3    H244574   3.065   1.998  14.403  1.7992 -1.3517 -1.0858
 7695TIP3   OH244575   2.841   2.596   2.169  0.2636  0.4196  0.0130
 7695TIP3    H144576   2.920   2.622   2.217 -1.0210  2.0283  1.3312
 7695TIP3    H244577   2.831   2.503   2.189  0.1449  0.9044  2.3252
 7696TIP3   OH244578   4.187   2.372  16.248 -0.0262 -0.2566 -0.1055
 7696TIP3    H144579   4.261   2.370  16.187  0.7738 -0.7460  0.8578
 7696TIP3    H244580   4.115   2.333  16.199  0.3701  0.1582 -1.0410
 7697TIP3   OH244581   0.793   4.275   5.632 -0.4545  0.2034 -0.4113
 7697TIP3    H144582   0.752   4.260   5.717  0.0617  0.5179 -0.1023
 7697TIP3    H244583   0.737   4.341   5.590 -0.8019 -0.0735 -0.3811
 7698TIP3   OH244584   0.928   2.210  11.768 -0.3891  0.0965  0.6558
 7698TIP3    H144585   0.935   2.120  11.737  0.4047 -0.2278  1.7534
 7698TIP3    H244586   0.880   2.203  11.851  0.5666  0.5618  1.2579
 7699TIP3   OH244587   0.555   1.589   2.567 -0.8886  0.4528  0.1268
 7699TIP3    H144588   0.477   1.591   2.621 -0.7685 -1.0129  0.4032
 7699TIP3    H244589   0.531   1.533   2.492 -0.2033  0.1973  0.0908
 7700TIP3   OH244590   6.481   3.105  12.518 -0.1442  0.4421 -0.2849
 7700TIP3    H144591   6.413   3.045  12.486  1.3576 -1.4813  0.0400
 7700TIP3    H244592   6.432   3.177  12.559 -1.9951 -0.1891 -1.3282
 7701TIP3   OH244593   0.291   5.948  12.636  0.3249 -0.4602  0.3200
 7701TIP3    H144594   0.244   6.022  12.596 -0.9330 -1.8636 -0.8733
 7701TIP3    H244595   0.222   5.894  12.674  1.3109 -0.6064  1.9298
 7702TIP3   OH244596   2.190   0.152   3.576 -0.3271 -0.3180 -0.0646
 7702TIP3    H144597   2.122   0.218   3.586  0.5658  0.4554  1.0379
 7702TIP3    H244598   2.161   0.098   3.503 -1.9826  0.1684  0.2277
 7703TIP3   OH244599   5.334   6.041   5.004  0.2006 -0.1610 -0.3004
 7703TIP3    H144600   5.379   6.049   4.920  1.0348 -2.2080 -0.0502
 7703TIP3    H244601   5.320   6.132   5.031  2.7923  0.5226 -1.1025
 7704TIP3   OH244602   0.484   6.590  12.781  0.1941 -0.3122  0.6428
 7704TIP3    H144603   0.512   6.614  12.869 -0.2347  0.6783  0.5083
 7704TIP3    H244604   0.483   6.672  12.733 -0.3582 -0.7366 -0.0748
 7705TIP3   OH244605   0.592   5.908   1.032 -0.2099  0.1146 -0.4757
 7705TIP3    H144606   0.592   5.824   0.987  2.1692 -0.7674  1.0576
 7705TIP3    H244607   0.607   5.973   0.964  2.3813 -1.1050 -1.1176
 7706TIP3   OH244608   4.334   5.266   4.540 -0.1779  0.5456 -0.1036
 7706TIP3    H144609   4.357   5.173   4.538 -2.2832 -0.0112  0.6455
 7706TIP3    H244610   4.373   5.298   4.622  0.0042  0.1750 -0.0420
 7707TIP3   OH244611   3.739   3.447   0.295  0.0595 -0.3000 -0.3309
 7707TIP3    H144612   3.817   3.493   0.325 -0.2713 -0.2855  0.5221
 7707TIP3    H244613   3.739   3.459   0.200 -0.0720  1.5367 -0.1191
 7708TIP3   OH244614   3.262   6.480  16.755 -0.2213 -0.2499  0.4763
 7708TIP3    H144615   3.239   6.423  16.828  0.3422 -1.2831 -0.1469
 7708TIP3    H244616   3.347   6.517  16.779  1.4724 -2.9854 -1.0049
 7709TIP3   OH244617   2.735   1.011   3.229 -0.0367  0.0926  0.2633
 7709TIP3    H144618   2.647   1.007   3.269 -0.9167 -2.6716 -1.7712
 7709TIP3    H244619   2.760   0.919   3.220  2.6061  0.8484 -0.2660
 7710TIP3   OH244620   0.211   4.881  16.835  0.3688 -0.4547 -0.3596
 7710TIP3    H144621   0.152   4.845  16.767  0.4055  0.4643 -0.8856
 7710TIP3    H244622   0.155   4.937  16.887 -0.2010 -2.9630  1.8415
 7711TIP3   OH244623   2.368   1.442  14.904 -0.2602 -0.0918  0.0356
 7711TIP3    H144624   2.387   1.421  14.995  1.1387  0.8908 -0.0169
 7711TIP3    H244625   2.321   1.365  14.871  1.2509 -1.4466  0.9553
 7712TIP3   OH244626   3.152   0.855   2.293  0.6984 -0.2504 -0.5617
 7712TIP3    H144627   3.127   0.923   2.231 -1.7629 -0.2591  0.3454
 7712TIP3    H244628   3.213   0.799   2.245  0.8318  1.1994 -2.1120
 7713TIP3   OH244629   1.488   3.761   1.253  0.3339  0.3392 -0.1610
 7713TIP3    H144630   1.528   3.693   1.198  0.7440  1.8358 -1.7604
 7713TIP3    H244631   1.406   3.723   1.282 -0.3681 -0.1471 -2.6430
 7714TIP3   OH244632   5.890   4.133   1.756  0.0266  0.2969  0.2627
 7714TIP3    H144633   5.910   4.058   1.813 -2.7128 -0.5671  0.1334
 7714TIP3    H244634   5.795   4.132   1.748  0.0759  2.9363 -0.9522
 7715TIP3   OH244635   6.679   5.520   0.661 -0.1096 -0.4912  0.8385
 7715TIP3    H144636   6.684   5.467   0.741  0.4280 -2.9842 -0.7768
 7715TIP3    H244637   6.715   5.463   0.592 -2.4472  0.8266 -1.5576
 7716TIP3   OH244638   2.314   0.554  15.252  0.5971  0.0989  0.5414
 7716TIP3    H144639   2.314   0.479  15.312  0.6495 -0.5321 -0.2496
 7716TIP3    H244640   2.221   0.573  15.238  0.5876  0.6410  1.3096
 7717TIP3   OH244641   6.364   5.650   5.858  0.3040 -1.1779 -0.0784
 7717TIP3    H144642   6.381   5.667   5.950  0.1829 -1.8387  0.0670
 7717TIP3    H244643   6.344   5.557   5.854  0.5514 -1.2050 -0.8059
 7718TIP3   OH244644   1.309   4.682   4.956  0.0601  0.3972  0.2537
 7718TIP3    H144645   1.310   4.704   5.049 -0.5231  1.1539  0.0861
 7718TIP3    H244646   1.400   4.687   4.928  0.3250 -0.5127  0.9420
 7719TIP3   OH244647   2.794   1.017  12.776  0.1994  0.0167  0.3978
 7719TIP3    H144648   2.865   1.070  12.741 -0.0272  0.4203  0.5501
 7719TIP3    H244649   2.831   0.976  12.855 -0.0115  0.9044  0.9562
 7720TIP3   OH244650   1.280   2.694  14.787 -0.8154 -0.0700 -0.3921
 7720TIP3    H144651   1.295   2.615  14.838  1.5217 -0.3624 -1.4882
 7720TIP3    H244652   1.213   2.669  14.723  0.6369 -1.4681 -1.3924
 7721TIP3   OH244653   4.912   6.748   5.929 -0.0767 -0.1342 -0.3816
 7721TIP3    H144654   4.834   6.803   5.927 -0.2505 -0.3547  0.3856
 7721TIP3    H244655   4.887   6.673   5.983  0.6396 -0.2532 -0.2155
 7722TIP3   OH244656   5.461   1.085  16.421  0.4490 -0.5338  0.5680
 7722TIP3    H144657   5.528   1.020  16.438  3.2644  1.9919 -0.4106
 7722TIP3    H244658   5.489   1.162  16.470  0.6208  1.9436 -3.1679
 7723TIP3   OH244659   0.757   6.007  17.045 -0.2280  0.3850 -0.2147
 7723TIP3    H144660   0.735   5.942  17.112  0.2620  0.4033 -0.0328
 7723TIP3    H244661   0.847   6.033  17.065  0.6231 -1.0430 -2.0696
 7724TIP3   OH244662   6.621   0.168   3.075 -0.2971 -0.2215  0.0052
 7724TIP3    H144663   6.696   0.111   3.060  0.7742  0.8043  1.2832
 7724TIP3    H244664   6.625   0.232   3.004  0.3670  0.1499  0.3709
 7725TIP3   OH244665   1.406   3.985  14.301 -0.3042 -0.7642 -0.0684
 7725TIP3    H144666   1.347   3.987  14.226 -0.5320 -0.7901  0.1111
 7725TIP3    H244667   1.363   3.928  14.365 -0.5389 -0.0511  0.4326
 7726TIP3   OH244668   5.372   3.383   5.718 -0.2130  0.4210  0.1003
 7726TIP3    H144669   5.310   3.377   5.646 -2.1463  0.2224  1.7339
 7726TIP3    H244670   5.429   3.456   5.695 -2.6214  2.2480 -0.2819
 7727TIP3   OH244671   5.697   1.887   5.780 -0.0473  0.2010 -0.1760
 7727TIP3    H144672   5.753   1.952   5.739 -1.2649  1.1193 -0.3944
 7727TIP3    H244673   5.749   1.806   5.778  0.6362  0.6670 -1.7947
 7728TIP3   OH244674   0.068   3.315  11.972  0.2836 -0.0879  0.2489
 7728TIP3    H144675   0.147   3.357  12.005  1.2472 -0.8347 -1.0706
 7728TIP3    H244676  -0.001   3.344  12.032  1.7653 -0.5014  2.2269
 7729TIP3   OH244677   5.389   3.490   5.348  0.4580  0.2469 -0.3008
 7729TIP3    H144678   5.409   3.397   5.344 -0.1683  0.0089  1.3723
 7729TIP3    H244679   5.334   3.507   5.272  1.9722 -0.3779 -1.5510
 7730TIP3   OH244680   6.516   1.052  16.886  0.2463 -0.3698 -0.1243
 7730TIP3    H144681   6.468   1.008  16.815  1.1294  0.1590 -1.0497
 7730TIP3    H244682   6.481   1.141  16.886  0.9379 -0.0969 -0.5371
 7731TIP3   OH244683   1.214   6.124  11.314  0.3253  0.0157 -0.2757
 7731TIP3    H144684   1.134   6.122  11.367  1.4318 -1.2067  1.3779
 7731TIP3    H244685   1.226   6.033  11.286  0.9583  0.2685 -0.8324
 7732TIP3   OH244686   4.929   0.576  11.263  0.3966  0.5083 -0.1079
 7732TIP3    H144687   4.967   0.659  11.231  2.1270 -0.0109  0.5315
 7732TIP3    H244688   4.940   0.515  11.190  1.1743  0.2508  0.2191
 7733TIP3   OH244689   0.154   2.050  12.823 -0.8296 -0.4843  0.1772
 7733TIP3    H144690   0.075   2.096  12.850 -0.0113  0.3569  1.2464
 7733TIP3    H244691   0.169   2.078  12.733 -0.3770  1.3825  0.7890
 7734TIP3   OH244692   1.100   6.349   7.074  0.1901 -0.1762 -0.3889
 7734TIP3    H144693   1.030   6.414   7.078 -0.2764 -0.6020 -1.3778
 7734TIP3    H244694   1.140   6.362   6.988 -0.5263 -1.8110 -0.9923
 7735TIP3   OH244695   5.971   4.201   3.312  0.1788 -0.6155  0.2842
 7735TIP3    H144696   5.956   4.198   3.407 -2.5347  1.0583 -0.0307
 7735TIP3    H244697   6.039   4.267   3.300 -1.1487  0.9173  0.9437
 7736TIP3   OH244698   2.250   1.031   5.224  0.3441  0.4505 -0.3765
 7736TIP3    H144699   2.165   0.990   5.243 -0.0635  2.1903  1.6587
 7736TIP3    H244700   2.310   0.957   5.215 -1.0250 -0.7299 -0.0424
 7737TIP3   OH244701   4.798   6.508   5.473 -0.0630 -0.0578 -0.7089
 7737TIP3    H144702   4.822   6.566   5.401 -0.1418  1.5521  0.5235
 7737TIP3    H244703   4.714   6.471   5.448 -0.5508  1.2436 -0.9937
 7738TIP3   OH244704   5.095   3.317  13.571 -0.0950 -0.0522  0.0357
 7738TIP3    H144705   5.109   3.348  13.660  1.4504  0.3774 -0.3311
 7738TIP3    H244706   5.051   3.390  13.527 -2.5570 -0.9655  0.9013
 7739TIP3   OH244707   1.753   3.026   4.425 -0.3960  1.1722 -0.2469
 7739TIP3    H144708   1.703   3.098   4.463  0.9254  0.8764  2.1363
 7739TIP3    H244709   1.745   2.955   4.489  0.3147 -0.0009 -1.4282
 7740TIP3   OH244710   2.636   2.367   3.783 -0.0106 -0.0503  0.3048
 7740TIP3    H144711   2.709   2.308   3.769 -0.2012 -0.5330  1.2874
 7740TIP3    H244712   2.572   2.316   3.832  1.1283  1.8642  3.9656
 7741TIP3   OH244713   0.740   1.074  15.185 -0.2373  0.3157 -0.1242
 7741TIP3    H144714   0.814   1.025  15.221 -0.9946 -1.8466 -1.4607
 7741TIP3    H244715   0.706   1.123  15.259  1.7674  0.3804  0.7912
 7742TIP3   OH244716   0.317   4.623   6.490 -0.6469 -0.1932  0.4098
 7742TIP3    H144717   0.401   4.667   6.474 -0.8368 -0.5021 -1.4570
 7742TIP3    H244718   0.281   4.669   6.566  0.0101  1.6605 -0.3676
 7743TIP3   OH244719   6.368   5.666   5.112 -0.0788 -0.0177 -0.0480
 7743TIP3    H144720   6.390   5.688   5.021 -0.8209 -0.5550 -0.3690
 7743TIP3    H244721   6.371   5.571   5.115 -0.5281 -0.0220  0.3654
 7744TIP3   OH244722   4.589   3.964   2.820 -0.2385  0.1187 -0.2151
 7744TIP3    H144723   4.549   3.997   2.900  0.2670  3.0656 -1.1486
 7744TIP3    H244724   4.562   4.024   2.751  0.7552 -1.3625 -1.9836
 7745TIP3   OH244725   6.192   6.277   2.557 -0.1983 -0.1773 -0.3293
 7745TIP3    H144726   6.118   6.266   2.498  0.2684 -1.1497 -0.7535
 7745TIP3    H244727   6.191   6.198   2.611  0.1090  0.1358  0.1365
 7746TIP3   OH244728   5.813   3.571  14.904  0.4209  0.4170 -0.2637
 7746TIP3    H144729   5.842   3.625  14.977  0.0737  0.6930 -0.3298
 7746TIP3    H244730   5.819   3.481  14.937 -1.4032  0.6284  0.7029
 7747TIP3   OH244731   5.331   0.595   5.628  0.0687 -0.1597 -0.1108
 7747TIP3    H144732   5.300   0.572   5.716 -1.7431  0.9615 -0.4347
 7747TIP3    H244733   5.279   0.671   5.603  2.5645  1.2923 -1.0409
 7748TIP3   OH244734   4.492   5.020   3.532  0.3585 -0.1747 -0.1228
 7748TIP3    H144735   4.565   5.070   3.567 -0.8330  0.5948  1.3532
 7748TIP3    H244736   4.531   4.939   3.498  1.8070 -0.0747  1.2527
 7749TIP3   OH244737   6.117   1.686  16.776  0.1044 -0.1057  0.1217
 7749TIP3    H144738   6.045   1.635  16.813  0.5973 -1.7476 -1.1344
 7749TIP3    H244739   6.097   1.690  16.682  1.2673  0.0446 -0.1267
 7750TIP3   OH244740   3.142   4.903   1.944  0.5306 -0.6005  0.2282
 7750TIP3    H144741   3.174   4.813   1.950  1.0595 -0.4506 -0.2706
 7750TIP3    H244742   3.143   4.935   2.034  1.1928 -0.8070  0.2955
 7751TIP3   OH244743   1.435   0.868  14.878  0.1818  0.0471  0.4162
 7751TIP3    H144744   1.371   0.907  14.938 -0.0336 -2.9259  2.2030
 7751TIP3    H244745   1.382   0.813  14.820  0.9430 -1.1724  0.8743
 7752TIP3   OH244746   0.459   3.905   2.715 -0.2984  0.5084  0.2375
 7752TIP3    H144747   0.461   3.845   2.640 -2.2757 -0.3881  0.8727
 7752TIP3    H244748   0.433   3.850   2.788 -1.5144  2.0409  0.9700
 7753TIP3   OH244749   4.729   6.721   4.552 -0.1949  0.0250 -0.3669
 7753TIP3    H144750   4.745   6.643   4.498  1.5731  0.8053 -1.0046
 7753TIP3    H244751   4.642   6.707   4.588  0.0727 -2.2351 -0.5179
 7754TIP3   OH244752   0.637   4.253   6.242 -0.3022 -0.2180 -0.4552
 7754TIP3    H144753   0.726   4.235   6.211  0.2016  0.3747  0.6242
 7754TIP3    H244754   0.594   4.167   6.243  0.1676 -0.4663 -1.2366
 7755TIP3   OH244755   4.988   5.848   2.068 -0.0340  0.2126 -0.0750
 7755TIP3    H144756   5.042   5.840   2.147 -0.9449  0.0440  0.5399
 7755TIP3    H244757   4.989   5.941   2.048 -0.1414  0.3163  0.3878
 7756TIP3   OH244758   4.505   4.217  11.014 -0.3395  0.7735 -0.3181
 7756TIP3    H144759   4.587   4.168  11.008  1.3703  3.3320  1.3577
 7756TIP3    H244760   4.460   4.197  10.932  2.4979  0.2736 -1.8278
 7757TIP3   OH244761   2.738   6.420  16.951  0.1355  0.0037 -0.0597
 7757TIP3    H144762   2.743   6.343  17.007  1.8358 -0.6861 -1.1332
 7757TIP3    H244763   2.681   6.393  16.879 -1.8437  0.8074  1.1648
 7758TIP3   OH244764   2.309   0.854   6.368 -0.5918  0.1063  1.1230
 7758TIP3    H144765   2.249   0.793   6.326  1.9640 -1.0102 -1.0566
 7758TIP3    H244766   2.355   0.802   6.434  1.8070 -0.5122 -0.9438
 7759TIP3   OH244767   6.565   2.532  13.228  0.0539  0.4446  0.1473
 7759TIP3    H144768   6.563   2.543  13.323  1.9766  1.3535  0.1211
 7759TIP3    H244769   6.561   2.622  13.194 -0.0251  0.1552 -0.6055
 7760TIP3   OH244770   4.364   6.503  17.201 -0.4248  0.4012  0.1206
 7760TIP3    H144771   4.333   6.442  17.134 -2.7813  1.1590  0.4650
 7760TIP3    H244772   4.348   6.458  17.283  2.1885 -0.4030  0.2079
 7761TIP3   OH244773   6.531   4.547   3.902 -0.0037  0.6857  0.3821
 7761TIP3    H144774   6.541   4.634   3.940  0.9437  0.7800 -0.0872
 7761TIP3    H244775   6.594   4.544   3.830  0.2377 -0.5214  0.6265
 7762TIP3   OH244776   6.091   4.679   3.181 -0.3126  0.0010 -0.1209
 7762TIP3    H144777   6.094   4.741   3.108 -1.3542  1.6383  1.1617
 7762TIP3    H244778   6.161   4.708   3.239 -1.6350  0.8400  1.1078
 7763TIP3   OH244779   1.289   6.475   0.321 -0.6286  0.4065 -0.4541
 7763TIP3    H144780   1.209   6.424   0.331 -0.0566  0.1210  4.0178
 7763TIP3    H244781   1.297   6.522   0.404  2.0937  3.0276 -2.1108
 7764TIP3   OH244782   0.508   5.347   5.537 -0.2389  0.1601  0.2996
 7764TIP3    H144783   0.556   5.410   5.482 -0.6853 -0.2780 -0.5938
 7764TIP3    H244784   0.419   5.382   5.541 -0.0024  0.6704  1.4979
 7765TIP3   OH244785   5.352   3.707  17.273 -0.4766  0.6301  0.1559
 7765TIP3    H144786   5.265   3.714  17.234 -0.1365  1.4395 -0.4666
 7765TIP3    H244787   5.344   3.636  17.336 -1.8080  1.2396  0.6889
 7766TIP3   OH244788   1.077   3.267  15.720 -0.1230 -0.2863  0.1513
 7766TIP3    H144789   1.095   3.297  15.809 -2.9921  0.7843  0.4258
 7766TIP3    H244790   1.034   3.342  15.678  0.5488 -1.0321 -1.9237
 7767TIP3   OH244791   4.894   0.455  12.116  0.3363 -0.3101  0.1924
 7767TIP3    H144792   4.845   0.458  12.034  0.7050 -1.2426 -0.0669
 7767TIP3    H244793   4.846   0.392  12.170 -1.2950  2.0766  1.6141
 7768TIP3   OH244794   1.033   6.062   5.193  0.3904  0.1338  0.2451
 7768TIP3    H144795   0.960   6.079   5.133  1.1529  1.2012 -0.3932
 7768TIP3    H244796   1.027   5.968   5.212 -0.1748 -0.1151 -1.0909
 7769TIP3   OH244797   5.394   3.421   3.808 -0.0723  0.0337 -0.0206
 7769TIP3    H144798   5.365   3.331   3.798  0.3106  0.2036 -3.2891
 7769TIP3    H244799   5.474   3.427   3.756  0.1032  2.1645  0.4307
 7770TIP3   OH244800   1.666   0.255   2.644  0.2922 -0.4531 -0.0137
 7770TIP3    H144801   1.699   0.259   2.734 -0.2421 -1.3874  0.2346
 7770TIP3    H244802   1.665   0.346   2.614  0.0958 -0.0929  1.0643
 7771TIP3   OH244803   5.829   5.009   0.514 -0.0015 -0.0610  0.8197
 7771TIP3    H144804   5.923   5.018   0.497 -0.3808  1.1643 -0.8374
 7771TIP3    H244805   5.805   5.089   0.562 -0.4630  0.3727 -0.1097
 7772TIP3   OH244806   2.796   3.566  15.186  0.0940  0.4226 -0.2637
 7772TIP3    H144807   2.715   3.569  15.135  1.6770  2.8074 -2.7101
 7772TIP3    H244808   2.849   3.499  15.143 -0.1410 -0.4520  0.7647
 7773TIP3   OH244809   6.539   3.458   4.788 -0.6338 -0.5350  0.1313
 7773TIP3    H144810   6.470   3.483   4.849 -2.6092  0.5803 -2.4420
 7773TIP3    H244811   6.518   3.368   4.764  0.5917 -1.2419  1.6483
 7774TIP3   OH244812   1.380   4.395  15.417  0.0136 -0.1165  0.2667
 7774TIP3    H144813   1.371   4.306  15.453  0.5127  0.1969  1.1699
 7774TIP3    H244814   1.374   4.382  15.323 -0.6467 -1.0310  0.4139
 7775TIP3   OH244815   6.004   0.768  16.721 -0.0570 -0.5486 -0.2295
 7775TIP3    H144816   5.910   0.773  16.737  0.2556 -1.2947  1.9259
 7775TIP3    H244817   6.035   0.859  16.728 -0.5041 -0.3994 -0.2064
 7776TIP3   OH244818   0.945   6.462  14.311 -0.1736  0.0688 -0.0089
 7776TIP3    H144819   0.944   6.529  14.242 -0.4461  0.6866  0.5910
 7776TIP3    H244820   0.944   6.512  14.393  0.3626 -0.6594  0.4446
 7777TIP3   OH244821   0.712   5.720   5.104 -0.0075  0.0479 -0.4320
 7777TIP3    H144822   0.625   5.700   5.069  0.8682 -1.2397 -1.9779
 7777TIP3    H244823   0.738   5.800   5.058 -0.2529  0.2746 -0.1794
 7778TIP3   OH244824   0.129   6.685   0.099 -0.2145 -0.5765  0.4618
 7778TIP3    H144825   0.104   6.659   0.188  1.3906 -2.2503  0.4426
 7778TIP3    H244826   0.095   6.616   0.043 -1.3488  0.5505 -0.2613
 7779TIP3   OH244827   3.500   0.970   0.409  0.1813  0.2469 -0.3664
 7779TIP3    H144828   3.552   0.948   0.486  0.6941  1.9767 -0.2146
 7779TIP3    H244829   3.528   1.058   0.385 -0.9960  0.2766 -1.6871
 7780TIP3   OH244830   6.385   0.437   0.809 -0.4217 -0.1247  0.1430
 7780TIP3    H144831   6.409   0.402   0.723  0.9813  0.8512  0.1284
 7780TIP3    H244832   6.339   0.519   0.789 -1.6121 -0.7562  0.2648
 7781TIP3   OH244833   5.453   2.585   4.276  0.0593  0.3076 -0.2706
 7781TIP3    H144834   5.533   2.592   4.329  1.7136  0.6290 -2.7198
 7781TIP3    H244835   5.463   2.502   4.229 -0.8448  0.5556 -0.9133
 7782TIP3   OH244836   6.639   0.030  12.449  0.3487 -0.3326 -0.7100
 7782TIP3    H144837   6.609   0.100  12.391 -0.7268  0.7564  1.1162
 7782TIP3    H244838   6.702  -0.019  12.396  0.7960  1.7365 -2.1830
 7783TIP3   OH244839   6.238   6.520   4.657 -0.0813 -0.7850 -0.0747
 7783TIP3    H144840   6.230   6.480   4.570  1.5685 -0.2896 -0.4611
 7783TIP3    H244841   6.330   6.542   4.665  0.0130 -1.8765  2.2795
 7784TIP3   OH244842   5.190   2.060   2.704  0.3679 -0.0123  0.2520
 7784TIP3    H144843   5.232   2.078   2.620 -0.5778  1.0638 -0.0007
 7784TIP3    H244844   5.102   2.098   2.696  0.0566 -0.4240  1.5096
 7785TIP3   OH244845   5.373   2.945  15.758  0.0633 -0.6386  0.3756
 7785TIP3    H144846   5.429   2.897  15.698  0.1079 -0.2920  0.1368
 7785TIP3    H244847   5.331   2.878  15.811 -0.3623 -0.9794 -0.3869
 7786TIP3   OH244848   1.886   1.462  15.140 -0.5658  0.0032 -0.2948
 7786TIP3    H144849   1.832   1.493  15.212  2.0942  0.8081  1.4206
 7786TIP3    H244850   1.958   1.525  15.135 -0.2388 -0.5327 -3.0948
 7787TIP3   OH244851   4.946   0.349  13.485 -0.0841 -0.2980  0.3637
 7787TIP3    H144852   5.004   0.413  13.444 -0.0426 -0.8358 -0.4188
 7787TIP3    H244853   4.981   0.339  13.574  0.2391  0.3488  0.3144
 7788TIP3   OH244854   6.363   0.710  14.174 -0.1796  0.6168  0.1715
 7788TIP3    H144855   6.454   0.726  14.150 -0.0136 -1.0541 -0.3611
 7788TIP3    H244856   6.350   0.617  14.157 -1.7042  0.6342  1.2064
 7789TIP3   OH244857   5.277   3.980   0.120  0.2413 -0.2514  0.0702
 7789TIP3    H144858   5.318   3.928   0.189  0.2019 -0.1607  0.1623
 7789TIP3    H244859   5.272   3.921   0.045 -1.8792 -1.1025  0.8531
 7790TIP3   OH244860   1.333   0.710  13.347 -0.2769 -0.3520 -0.0536
 7790TIP3    H144861   1.381   0.786  13.378 -0.4749 -0.6835  1.1140
 7790TIP3    H244862   1.241   0.733  13.358 -0.3806  0.0967 -1.8269
 7791TIP3   OH244863   4.387   1.520  17.209 -0.2718 -0.4450 -0.2374
 7791TIP3    H144864   4.345   1.599  17.242  2.5628  1.1558 -0.3269
 7791TIP3    H244865   4.380   1.457  17.281 -2.3494 -0.0983 -0.0892
 7792TIP3   OH244866   6.439   5.669   5.548 -0.0572 -0.1927  0.0246
 7792TIP3    H144867   6.444   5.756   5.508 -2.7009  0.8935  1.9688
 7792TIP3    H244868   6.405   5.684   5.636  0.3180 -3.1298  0.7336
 7793TIP3   OH244869   6.021   0.253  11.768 -0.4394 -0.0964  0.2438
 7793TIP3    H144870   6.093   0.314  11.752  0.4445 -1.5412 -1.4249
 7793TIP3    H244871   5.949   0.286  11.716  0.2244 -0.7949 -1.1349
 7794TIP3   OH244872   4.615   5.748   0.524 -0.0776 -0.1001  0.0576
 7794TIP3    H144873   4.598   5.678   0.461  0.2062  1.1244 -1.4005
 7794TIP3    H244874   4.534   5.754   0.575 -1.3975  0.7966 -2.0676
 7795TIP3   OH244875   3.557   1.451   4.900 -0.8334 -0.9074  0.3346
 7795TIP3    H144876   3.466   1.470   4.879 -0.5317 -0.1869 -0.3596
 7795TIP3    H244877   3.586   1.525   4.953 -0.6403 -1.1029  0.5019
 7796TIP3   OH244878   2.537   1.767   0.790 -0.0776  0.1355 -0.1131
 7796TIP3    H144879   2.464   1.741   0.846  2.3050 -3.3181  1.5452
 7796TIP3    H244880   2.603   1.800   0.850  1.5057 -1.1402 -1.0979
 7797TIP3   OH244881   5.178   3.142  15.104 -0.0248 -0.0151  0.2298
 7797TIP3    H144882   5.166   3.208  15.173  0.0235 -1.0684  1.2491
 7797TIP3    H244883   5.259   3.097  15.128 -0.5960 -1.1299  0.0957
 7798TIP3   OH244884   2.098   4.800   3.393 -0.2650 -0.7011  0.3671
 7798TIP3    H144885   2.035   4.743   3.349 -1.7181  0.5326  0.8324
 7798TIP3    H244886   2.110   4.761   3.479 -3.0140  0.9218  1.5396
 7799TIP3   OH244887   0.361   5.598   5.978 -0.1500  0.4511  0.3649
 7799TIP3    H144888   0.274   5.637   5.980 -0.1719  0.6299 -2.3385
 7799TIP3    H244889   0.346   5.506   5.999 -0.7493  0.7970  1.5378
 7800TIP3   OH244890   4.807   1.751   5.165  0.0864  0.6216 -0.3129
 7800TIP3    H144891   4.832   1.695   5.091  0.9805  1.9148 -1.0042
 7800TIP3    H244892   4.714   1.768   5.153  0.1582  0.5490 -0.9574
 7801TIP3   OH244893   4.999   0.411   6.487  0.2040 -0.6558  0.1396
 7801TIP3    H144894   4.904   0.400   6.485 -0.0784  1.7717 -1.3391
 7801TIP3    H244895   5.012   0.492   6.535  1.4323  0.0328 -1.3302
 7802TIP3   OH244896   1.771   6.731   3.323  0.2821 -0.2533 -0.5358
 7802TIP3    H144897   1.750   6.690   3.240  0.3397  0.7332 -1.0425
 7802TIP3    H244898   1.848   6.786   3.305  1.0887 -1.0291  0.4637
 7803TIP3   OH244899   4.085   1.485   4.725  0.0456 -0.6064 -0.3544
 7803TIP3    H144900   4.052   1.536   4.799  0.3161 -0.1822 -0.5194
 7803TIP3    H244901   4.018   1.418   4.710  1.1102 -2.2081  1.7892
 7804TIP3   OH244902   4.987   2.950   2.625 -0.1295  0.4829  0.1007
 7804TIP3    H144903   4.944   2.923   2.707 -0.0199 -0.9668 -0.2975
 7804TIP3    H244904   5.033   2.871   2.596 -0.6281  0.8229 -1.6611
 7805TIP3   OH244905   1.070   0.904   5.460  0.1238  0.1220  0.3008
 7805TIP3    H144906   1.080   0.955   5.379 -1.6727  1.6728  0.9959
 7805TIP3    H244907   1.159   0.891   5.491  0.6475  2.9183  0.1055
 7806TIP3   OH244908   4.945   3.709   4.759 -0.2177  0.7013 -1.3284
 7806TIP3    H144909   4.879   3.641   4.772  0.9976  0.0104  2.0236
 7806TIP3    H244910   4.895   3.788   4.740 -1.9997 -0.0050  0.2003
 7807TIP3   OH244911   2.889   1.100   1.445 -0.7004 -0.2949 -0.2685
 7807TIP3    H144912   2.893   1.155   1.524 -0.0373 -1.6986  0.7024
 7807TIP3    H244913   2.911   1.012   1.476 -1.3514 -1.0411 -1.8708
 7808TIP3   OH244914   4.210   0.216   1.406  0.4326 -0.1352  0.2887
 7808TIP3    H144915   4.153   0.190   1.478  0.2061 -1.4928 -0.3636
 7808TIP3    H244916   4.163   0.288   1.363 -0.4945 -0.8314  0.1331
 7809TIP3   OH244917   0.753   1.599   1.856 -0.5591 -0.5211  0.0821
 7809TIP3    H144918   0.805   1.530   1.816 -0.5406 -1.1601  1.1895
 7809TIP3    H244919   0.673   1.555   1.886  0.9746 -0.8075  3.9635
 7810TIP3   OH244920   1.630   2.445  14.491 -0.3459  0.1487 -0.1336
 7810TIP3    H144921   1.661   2.412  14.407 -2.3541 -0.9873 -0.4723
 7810TIP3    H244922   1.638   2.370  14.550  0.6610  0.8173  0.5910
 7811TIP3   OH244923   1.557   1.807   4.807 -0.1865  0.6552 -0.1896
 7811TIP3    H144924   1.581   1.892   4.769 -0.3748  0.0875 -1.6144
 7811TIP3    H244925   1.547   1.749   4.732 -1.9492 -0.1630  0.6562
 7812TIP3   OH244926   1.123   0.004   0.809  0.1056  0.4546  0.0614
 7812TIP3    H144927   1.171  -0.044   0.877  1.9676  0.4395 -1.2267
 7812TIP3    H244928   1.058   0.056   0.857  0.8403 -0.1869  1.7755
 7813TIP3   OH244929   4.808   1.462   6.021 -0.1691 -0.2640  0.2863
 7813TIP3    H144930   4.872   1.396   6.050  2.2790  1.5707 -0.8064
 7813TIP3    H244931   4.794   1.516   6.098 -0.9821 -1.1113  0.7407
 7814TIP3   OH244932   3.052   1.539  15.310  0.4442 -0.1460 -0.1026
 7814TIP3    H144933   3.054   1.585  15.226  0.3983 -1.3066 -0.7531
 7814TIP3    H244934   2.983   1.583  15.360  1.7361  1.7640  0.0496
 7815TIP3   OH244935   3.819   2.162   6.628  0.1742  0.1966 -0.4069
 7815TIP3    H144936   3.734   2.157   6.585 -0.7798  0.3152  1.4042
 7815TIP3    H244937   3.833   2.074   6.664  0.0019  0.6547  0.7948
 7816TIP3   OH244938   5.109   5.425   6.693 -0.2270  0.0940  0.2042
 7816TIP3    H144939   5.123   5.338   6.730  2.5763 -0.5206 -2.0711
 7816TIP3    H244940   5.028   5.416   6.642  0.9024 -1.7306 -1.3742
 7817TIP3   OH244941   6.717   6.144   6.054 -0.3217 -0.4266 -0.0577
 7817TIP3    H144942   6.642   6.096   6.021  0.2305 -1.3376  0.0100
 7817TIP3    H244943   6.769   6.165   5.977 -0.8371  0.5394 -0.1466
 7818TIP3   OH244944   0.442   3.328  14.420  0.5947  0.2334  0.2938
 7818TIP3    H144945   0.488   3.403  14.457 -0.5069 -0.1792  2.5728
 7818TIP3    H244946   0.497   3.253  14.440  0.6607  0.1639 -0.1302
 7819TIP3   OH244947   4.241   1.742  17.044 -0.0024  0.7786 -0.2976
 7819TIP3    H144948   4.253   1.648  17.057  0.8953  0.8926 -0.2613
 7819TIP3    H244949   4.146   1.754  17.042 -0.1252 -0.0575  0.2274
 7820TIP3   OH244950   6.093   0.801  14.201 -1.3383 -0.2644  0.4755
 7820TIP3    H144951   6.179   0.817  14.239 -0.6557 -0.8448 -0.7866
 7820TIP3    H244952   6.074   0.709  14.221 -1.5553 -0.2037  0.5507
 7821TIP3   OH244953   2.362   1.240  13.300  0.2715 -0.6359  0.0950
 7821TIP3    H144954   2.425   1.170  13.320  1.7493  0.0743 -1.8731
 7821TIP3    H244955   2.318   1.210  13.220  2.1983  1.4612 -1.8063
 7822TIP3   OH244956   6.208   0.853  10.785 -0.1325 -0.3922 -0.9393
 7822TIP3    H144957   6.228   0.774  10.736 -0.9168 -0.3127 -1.3989
 7822TIP3    H244958   6.174   0.914  10.719  1.1827  0.5960 -0.7258
 7823TIP3   OH244959   4.558   0.771  15.494 -0.0549  0.5486  0.3207
 7823TIP3    H144960   4.645   0.736  15.511 -0.1213  0.6721  0.9345
 7823TIP3    H244961   4.563   0.805  15.405  0.0980 -0.7358 -0.1695
 7824TIP3   OH244962   5.239   6.226  16.094  0.7736 -0.1079  0.0946
 7824TIP3    H144963   5.241   6.215  16.189 -0.4502  0.9574  0.2545
 7824TIP3    H244964   5.328   6.253  16.071  0.4266  2.1594  1.2672
 7825TIP3   OH244965   1.672   0.848  13.112 -0.7907  0.5782  0.3652
 7825TIP3    H144966   1.617   0.790  13.059 -1.4165  1.7291 -0.2383
 7825TIP3    H244967   1.611   0.887  13.175  0.0471 -1.3209  2.4566
 7826TIP3   OH244968   3.176   5.564   0.025 -0.3451  0.1915 -0.3099
 7826TIP3    H144969   3.179   5.472   0.049  0.0509 -0.2301 -1.9102
 7826TIP3    H244970   3.235   5.607   0.087 -0.2302 -0.6916  0.1938
 7827TIP3   OH244971   1.470   4.197   4.258  0.1825 -0.1214 -0.5709
 7827TIP3    H144972   1.502   4.188   4.169 -0.3147  0.6744 -0.8301
 7827TIP3    H244973   1.382   4.158   4.257 -0.6581  1.7116 -0.9285
 7828TIP3   OH244974   6.584   3.804   0.921 -0.0454  0.0756  0.3970
 7828TIP3    H144975   6.590   3.895   0.949 -1.2753  0.2597  0.0915
 7828TIP3    H244976   6.656   3.793   0.858  0.2435  0.7605  0.6061
 7829TIP3   OH244977   6.034   6.159  10.619 -0.0106 -0.1168 -0.6477
 7829TIP3    H144978   5.958   6.149  10.561 -2.3132  0.4962  2.1415
 7829TIP3    H244979   6.017   6.098  10.691  0.1635  2.7915  1.9656
 7830TIP3   OH244980   5.845   1.496   3.672 -0.3853  0.2831  0.1841
 7830TIP3    H144981   5.918   1.553   3.695 -2.0139  2.3198  0.4359
 7830TIP3    H244982   5.835   1.439   3.748  0.7018  0.2291  0.2991
 7831TIP3   OH244983   0.899   3.033  15.689 -0.0526  0.9032  0.2822
 7831TIP3    H144984   0.844   3.012  15.765 -0.6011 -0.4180 -0.4576
 7831TIP3    H244985   0.955   3.105  15.718  0.2363 -0.0715  2.1465
 7832TIP3   OH244986   2.274   3.590  16.518 -0.5367  0.2613 -0.2552
 7832TIP3    H144987   2.264   3.652  16.446  0.3215 -1.0387 -1.5249
 7832TIP3    H244988   2.187   3.553  16.530 -0.2263 -1.1257 -2.1272
 7833TIP3   OH244989   5.226   4.410   4.368 -0.1552 -0.2666  0.0564
 7833TIP3    H144990   5.251   4.466   4.295 -0.9069  0.4642  0.3487
 7833TIP3    H244991   5.276   4.329   4.355  2.0634  1.0201  0.4469
 7834TIP3   OH244992   1.803   1.365   3.934  0.2715 -0.1497 -0.2388
 7834TIP3    H144993   1.862   1.434   3.965  0.6668 -0.7581  0.4013
 7834TIP3    H244994   1.860   1.308   3.881  0.5693 -1.4342  1.4136
 7835TIP3   OH244995   0.525   0.350   2.282  0.1655 -0.1327  0.4947
 7835TIP3    H144996   0.613   0.380   2.305  0.3016 -0.0537 -0.1077
 7835TIP3    H244997   0.474   0.431   2.273  0.2265 -0.1352  0.0891
 7836TIP3   OH244998   5.445   0.091  11.793  1.2506 -0.1733  0.0318
 7836TIP3    H144999   5.363   0.042  11.806 -0.3041  1.5903 -2.5985
 7836TIP3    H245000   5.430   0.175  11.837  1.4218  0.3353 -0.8486
 7837TIP3   OH245001   0.045   0.324  15.120  0.0138  0.3850  0.1383
 7837TIP3    H145002   0.022   0.412  15.089 -0.9530 -0.1269 -0.6030
 7837TIP3    H245003  -0.001   0.315  15.203  0.7591  0.8831  0.6084
 7838TIP3   OH245004   3.292   0.506  14.311  0.0233 -0.2531  0.3596
 7838TIP3    H145005   3.199   0.517  14.291  0.3551  0.5602 -0.7567
 7838TIP3    H245006   3.325   0.451  14.240  1.2823  2.9185 -1.6179
 7839TIP3   OH245007   4.622   5.507  13.213  0.2029 -0.6119  0.2481
 7839TIP3    H145008   4.648   5.599  13.214  0.2427 -0.5600 -2.0601
 7839TIP3    H245009   4.547   5.503  13.272 -0.2851  1.0823 -0.2154
 7840TIP3   OH245010   5.761   3.449   3.963 -0.4640  0.6060  0.4860
 7840TIP3    H145011   5.778   3.540   3.937 -0.0000  0.4907  0.3712
 7840TIP3    H245012   5.670   3.449   3.992 -0.8292  0.8651 -0.6222
 7841TIP3   OH245013   3.213   4.789  16.373 -0.2768  0.2830  0.4381
 7841TIP3    H145014   3.134   4.816  16.326  0.8247 -0.0979 -1.7222
 7841TIP3    H245015   3.202   4.695  16.387  0.8652 -0.2861 -2.1424
 7842TIP3   OH245016   6.447   3.191   5.316  0.1424 -0.0210  0.0583
 7842TIP3    H145017   6.417   3.193   5.225 -0.0788 -0.5736  0.1167
 7842TIP3    H245018   6.409   3.111   5.352 -1.6719  1.3714  1.3210
 7843TIP3   OH245019   5.761   0.603   0.118 -0.0857  0.1086 -0.2075
 7843TIP3    H145020   5.812   0.522   0.114 -1.7841 -0.9781 -1.0284
 7843TIP3    H245021   5.739   0.613   0.210 -1.7797 -1.6609 -0.3703
 7844TIP3   OH245022   0.255   0.374  14.941 -0.0768 -0.4282 -0.4883
 7844TIP3    H145023   0.206   0.335  15.013  1.5066 -0.2649  0.7084
 7844TIP3    H245024   0.262   0.467  14.964  0.5265 -0.3934 -0.8082
 7845TIP3   OH245025   2.640   5.623   0.938  0.5190 -0.1622  0.0699
 7845TIP3    H145026   2.643   5.639   0.843  0.5573  0.8751  0.2378
 7845TIP3    H245027   2.669   5.706   0.977  0.8353 -0.6938  0.9842
 7846TIP3   OH245028   0.764   0.170  16.031 -0.2173  0.1620  0.3181
 7846TIP3    H145029   0.683   0.122  16.049 -0.3950  0.2850 -0.1511
 7846TIP3    H245030   0.807   0.177  16.116  0.8263 -2.6468  0.0620
 7847TIP3   OH245031   2.204   6.414  15.510  0.2282  0.2451  0.1974
 7847TIP3    H145032   2.185   6.446  15.598 -0.5165  0.5377 -0.0703
 7847TIP3    H245033   2.121   6.420  15.464  0.7363  0.5701 -0.6787
 7848TIP3   OH245034   0.836   5.091  11.906 -0.0125 -0.2538 -0.0928
 7848TIP3    H145035   0.921   5.094  11.951  0.7909 -0.7158 -1.5701
 7848TIP3    H245036   0.777   5.138  11.965  1.2071 -0.1463  1.0744
 7849TIP3   OH245037   5.980   5.900  14.889  0.3073  0.2012  0.1096
 7849TIP3    H145038   5.944   5.840  14.954  0.3698 -0.8287 -0.7984
 7849TIP3    H245039   5.906   5.919  14.831  0.6362 -0.0600 -0.3933
 7850TIP3   OH245040   1.577   1.670  15.996  0.4243 -0.5923 -0.8764
 7850TIP3    H145041   1.482   1.674  16.008  0.4570 -0.6711 -0.5773
 7850TIP3    H245042   1.589   1.644  15.905  0.1819  1.5345 -1.5390
 7851TIP3   OH245043   3.746   0.997  16.996  0.3084 -0.2336  0.2665
 7851TIP3    H145044   3.805   0.921  16.989 -0.7089 -1.0196  0.1969
 7851TIP3    H245045   3.802   1.067  17.031  0.8678 -1.4624  1.8862
 7852TIP3   OH245046   3.901   5.405  12.940 -0.3088 -0.4555 -0.1360
 7852TIP3    H145047   3.868   5.473  12.881 -3.5198 -0.4758  1.5219
 7852TIP3    H245048   3.907   5.448  13.025  0.0140 -1.6052  0.4360
 7853TIP3   OH245049   1.559   4.365   3.667  0.1489 -0.2228 -0.2175
 7853TIP3    H145050   1.471   4.386   3.635 -0.6904 -2.4825  0.5321
 7853TIP3    H245051   1.547   4.341   3.759  1.4382 -1.1647 -0.2691
 7854TIP3   OH245052   0.659   4.971   3.175 -0.4743  0.8556 -0.1764
 7854TIP3    H145053   0.662   4.905   3.107  0.7498  1.0836 -0.3535
 7854TIP3    H245054   0.626   5.050   3.131 -0.9938  0.6301 -0.1894
 7855TIP3   OH245055   5.298   3.637  11.440  0.6909 -0.2874  0.1397
 7855TIP3    H145056   5.374   3.671  11.487  1.6858  0.3892 -1.8977
 7855TIP3    H245057   5.254   3.714  11.404  0.7521 -0.8546 -1.2041
 7856TIP3   OH245058   0.198   2.822   5.893 -0.2166 -0.0291 -0.2110
 7856TIP3    H145059   0.273   2.880   5.905  0.5395 -1.0153 -0.0617
 7856TIP3    H245060   0.235   2.741   5.858 -1.0457 -0.9471  0.9639
 7857TIP3   OH245061   4.570   6.603  13.065  0.1177  0.5413 -0.4226
 7857TIP3    H145062   4.650   6.569  13.103 -1.2303  0.8532  2.8111
 7857TIP3    H245063   4.533   6.529  13.017  0.9719 -0.3710  0.3067
 7858TIP3   OH245064   2.648   5.851  12.089  0.1863 -0.4916 -0.6109
 7858TIP3    H145065   2.671   5.791  12.160 -3.0642 -0.3306  0.6352
 7858TIP3    H245066   2.570   5.814  12.049 -0.2241  1.4254 -1.6830
 7859TIP3   OH245067   5.575   3.206   6.052  0.8214  0.1197  0.1449
 7859TIP3    H145068   5.595   3.259   5.975  2.3113 -0.3360  0.2104
 7859TIP3    H245069   5.552   3.120   6.016  0.2866  0.2538  0.1524
 7860TIP3   OH245070   0.454   0.211   5.721  0.1597  0.5925 -0.1774
 7860TIP3    H145071   0.499   0.294   5.705 -1.8056  1.7091 -0.0073
 7860TIP3    H245072   0.379   0.212   5.662  0.0324 -1.0032 -0.0675
 7861TIP3   OH245073   6.027   2.216  14.340 -0.6551  0.2647  0.3413
 7861TIP3    H145074   5.932   2.222  14.326 -0.9259 -1.0250  1.5085
 7861TIP3    H245075   6.036   2.175  14.426  0.9703  0.1039  0.1109
 7862TIP3   OH245076   0.045   3.303  11.420 -0.2774  0.3156  0.0270
 7862TIP3    H145077   0.009   3.338  11.501  1.0351  1.3171  0.1953
 7862TIP3    H245078   0.093   3.225  11.446  0.7889  1.0649  0.3356
 7863TIP3   OH245079   2.336   3.461  14.693  0.0061 -0.5020  0.1656
 7863TIP3    H145080   2.281   3.512  14.634 -0.7375 -1.1634  0.2746
 7863TIP3    H245081   2.393   3.410  14.636 -3.3893 -4.1228 -0.1345
 7864TIP3   OH245082   4.546   3.343   4.193  0.0186  0.3590 -0.2360
 7864TIP3    H145083   4.531   3.314   4.283 -0.0570  0.8992 -0.0714
 7864TIP3    H245084   4.531   3.265   4.139  0.3399 -0.0356  0.2409
 7865TIP3   OH245085   3.719   6.397  15.394 -0.1461  0.1858 -0.1453
 7865TIP3    H145086   3.781   6.470  15.393 -0.6554  0.6138 -1.4130
 7865TIP3    H245087   3.752   6.338  15.461  1.0560  0.9040 -0.0994
 7866TIP3   OH245088   0.177   0.815  12.787  0.1288  0.2813  0.2763
 7866TIP3    H145089   0.182   0.886  12.724  1.4514 -0.1817 -0.1541
 7866TIP3    H245090   0.090   0.777  12.774  0.7187 -0.3962 -1.9014
 7867TIP3   OH245091   3.496   3.428   5.309 -0.0779  0.5578 -0.2166
 7867TIP3    H145092   3.503   3.485   5.232 -2.1966 -0.1304 -0.9717
 7867TIP3    H245093   3.408   3.391   5.302  0.8183 -1.8456  0.9304
 7868TIP3   OH245094   3.600   2.271  11.795 -0.1095 -0.2758 -0.2891
 7868TIP3    H145095   3.630   2.319  11.872  0.9605 -0.5170 -0.5463
 7868TIP3    H245096   3.656   2.194  11.791 -0.5003 -0.5278 -1.0172
 7869TIP3   OH245097   3.005   0.793  13.246  0.2832 -0.3459 -0.3829
 7869TIP3    H145098   2.914   0.791  13.276  0.2610  1.6057 -0.2732
 7869TIP3    H245099   3.026   0.701  13.227 -0.7292 -1.2306  2.5437
 7870TIP3   OH245100   2.593   2.031   4.159  0.0373  0.0785  0.2839
 7870TIP3    H145101   2.583   2.060   4.250  1.6299  3.3427 -0.5183
 7870TIP3    H245102   2.516   2.067   4.114 -0.1137 -0.4853  0.0894
 7871TIP3   OH245103   1.275   2.164  13.744  0.2981  0.0434  0.3819
 7871TIP3    H145104   1.189   2.144  13.708  0.4218 -0.7470  0.5229
 7871TIP3    H245105   1.336   2.111  13.691  0.6426  0.1980  0.6232
 7872TIP3   OH245106   1.694   3.704   5.659 -0.1467 -0.4441  0.6254
 7872TIP3    H145107   1.748   3.654   5.721 -0.6179 -1.6023  0.1138
 7872TIP3    H245108   1.693   3.651   5.580 -0.6655  0.3844  0.0722
 7873TIP3   OH245109   6.645   4.940  15.225 -0.0457 -0.2583 -0.3366
 7873TIP3    H145110   6.559   4.904  15.201  0.0348 -0.2912 -0.5759
 7873TIP3    H245111   6.666   4.899  15.309 -0.0019 -0.6911 -0.5580
 7874TIP3   OH245112   0.540   4.563   4.800  0.7399 -0.1764  0.1725
 7874TIP3    H145113   0.513   4.611   4.878  0.1381  0.7007 -0.5648
 7874TIP3    H245114   0.550   4.630   4.732  1.9768 -0.8404 -0.3182
 7875TIP3   OH245115   3.208   2.267   6.357  0.4637 -0.6804  0.2519
 7875TIP3    H145116   3.143   2.203   6.325  0.4166 -0.7183  0.4221
 7875TIP3    H245117   3.214   2.249   6.451 -0.5226  0.4346  0.5364
 7876TIP3   OH245118   4.902   6.126   2.391 -0.3003 -0.2791  0.2687
 7876TIP3    H145119   4.897   6.147   2.484  0.4334 -0.4893  0.3593
 7876TIP3    H245120   4.811   6.131   2.361 -0.4501  0.5631  0.8207
 7877TIP3   OH245121   3.970   2.839  16.670 -0.1823  0.2775  0.1441
 7877TIP3    H145122   3.909   2.891  16.723  0.4203  2.0536 -0.8368
 7877TIP3    H245123   4.033   2.805  16.733 -0.5684  0.7891  0.8219
 7878TIP3   OH245124   5.255   2.823   4.175 -0.0358  1.0240 -0.1500
 7878TIP3    H145125   5.346   2.825   4.144  0.0361  1.3903  0.0753
 7878TIP3    H245126   5.255   2.759   4.246  0.6828  3.0631  1.7643
 7879TIP3   OH245127   6.688   4.000  12.606  0.5444  0.0265 -0.2332
 7879TIP3    H145128   6.594   4.018  12.614  0.7583  0.8252  0.5870
 7879TIP3    H245129   6.720   4.001  12.697  1.6191  1.2834 -0.6134
 7880TIP3   OH245130   0.707   1.860   1.680 -0.1835  0.3419  0.0931
 7880TIP3    H145131   0.699   1.804   1.757 -0.7325  0.2637 -0.0153
 7880TIP3    H245132   0.710   1.799   1.606  0.2877  0.4186  0.0472
 7881TIP3   OH245133   1.525   2.868  15.542  0.1386  0.2577  0.3887
 7881TIP3    H145134   1.480   2.915  15.471  1.1458  1.4939  0.5458
 7881TIP3    H245135   1.571   2.937  15.590  0.2371 -0.6938  1.6762
 7882TIP3   OH245136   0.341   3.671  14.696 -0.0015  0.0550 -0.1855
 7882TIP3    H145137   0.357   3.593  14.749 -0.9079 -0.5206 -0.7454
 7882TIP3    H245138   0.250   3.693  14.712  0.3844  1.3018  0.3565
 7883TIP3   OH245139   3.035   5.931   3.096  0.0589 -0.0701  0.1184
 7883TIP3    H145140   3.112   5.964   3.141  0.0282  0.4077 -0.1778
 7883TIP3    H245141   2.961   5.974   3.140 -0.1674 -1.9360  1.6364
 7884TIP3   OH245142   0.739   3.082  13.550 -0.0031 -0.2399 -0.2971
 7884TIP3    H145143   0.714   3.128  13.469  0.1776 -1.7463 -1.2249
 7884TIP3    H245144   0.834   3.069  13.541  0.1033  0.0515  0.4067
 7885TIP3   OH245145   4.386   5.733   0.152 -0.0801 -0.1750 -0.1563
 7885TIP3    H145146   4.409   5.659   0.096 -0.0030 -0.2077 -0.0796
 7885TIP3    H245147   4.463   5.790   0.149  0.1300 -0.4333  0.3515
 7886TIP3   OH245148   0.988   0.803  12.280  0.0137 -0.4935 -0.2063
 7886TIP3    H145149   1.043   0.880  12.293 -1.1962 -0.0066  2.2161
 7886TIP3    H245150   0.907   0.838  12.243  0.2684 -0.8858 -1.1534
 7887TIP3   OH245151   6.271   4.334   5.785  0.0486  0.5195 -0.4352
 7887TIP3    H145152   6.323   4.348   5.705 -1.0284 -0.3348 -1.2844
 7887TIP3    H245153   6.261   4.422   5.822  4.1241  0.4901  1.0540
 7888TIP3   OH245154   3.027   3.633   3.813  0.5107  0.2962 -0.3139
 7888TIP3    H145155   2.938   3.633   3.848  0.3062 -0.5577 -0.8088
 7888TIP3    H245156   3.044   3.541   3.792  2.0747  0.2090  1.1804
 7889TIP3   OH245157   1.321   4.244  14.183 -0.7919  0.0201  0.0066
 7889TIP3    H145158   1.281   4.188  14.250  0.9993 -1.0787  0.1996
 7889TIP3    H245159   1.262   4.319  14.175 -1.8388 -0.6107  1.6791
 7890TIP3   OH245160   1.681   3.070  16.362 -0.1125  0.5922 -0.2633
 7890TIP3    H145161   1.734   3.006  16.316 -0.9596 -0.8975  0.8116
 7890TIP3    H245162   1.745   3.129  16.403  0.6889 -0.3361 -0.1635
 7891TIP3   OH245163   0.295   0.114   6.061 -0.6531  0.1267 -0.1001
 7891TIP3    H145164   0.207   0.151   6.067 -0.3000  0.8981  0.5831
 7891TIP3    H245165   0.320   0.097   6.152  0.3711  1.0701 -0.1918
 7892TIP3   OH245166   6.575   5.619   6.062  0.8455 -0.4685  0.1310
 7892TIP3    H145167   6.555   5.665   6.144  2.2225 -0.4359  0.4649
 7892TIP3    H245168   6.562   5.527   6.082 -0.4139 -0.3432 -0.0899
 7893TIP3   OH245169   1.734   5.995  11.932  0.1612  0.2222 -0.1974
 7893TIP3    H145170   1.820   6.021  11.899 -0.3928  0.5861 -1.3822
 7893TIP3    H245171   1.677   5.997  11.855 -0.9903  0.3425  0.6415
 7894TIP3   OH245172   1.981   3.286   5.633 -0.3384 -0.2765 -0.0675
 7894TIP3    H145173   1.975   3.320   5.722  2.4862  1.0275 -0.3145
 7894TIP3    H245174   2.033   3.206   5.641 -2.2048 -1.5393 -0.2443
 7895TIP3   OH245175   6.369   6.188  16.534  0.0139  0.2614  0.1671
 7895TIP3    H145176   6.417   6.258  16.580 -1.0979  1.1065  0.0585
 7895TIP3    H245177   6.281   6.192  16.570 -0.0708 -1.0923  0.1474
 7896TIP3   OH245178   4.649   5.619   3.081  0.2875  0.2992 -0.0572
 7896TIP3    H145179   4.554   5.618   3.079  0.2757  1.0619 -3.7414
 7896TIP3    H245180   4.675   5.528   3.092 -0.8734 -0.0471 -0.1931
 7897TIP3   OH245181   5.603   1.314   0.684 -0.2758 -0.2437  0.4806
 7897TIP3    H145182   5.558   1.233   0.707 -0.8166 -0.0094  0.2481
 7897TIP3    H245183   5.583   1.374   0.756  0.8732 -0.5935  1.1133
 7898TIP3   OH245184   5.648   4.154  12.014 -0.2074 -0.0620  0.0817
 7898TIP3    H145185   5.691   4.167  11.929  0.8445  0.3584  0.6752
 7898TIP3    H245186   5.696   4.211  12.074 -1.0323 -0.2649  0.9389
 7899TIP3   OH245187   4.184   4.230  11.476 -0.1977 -0.1151  0.1375
 7899TIP3    H145188   4.177   4.267  11.388 -1.9729  2.4012  1.2888
 7899TIP3    H245189   4.266   4.266  11.511  1.1795 -2.1286 -0.8761
 7900TIP3   OH245190   0.599   6.525  17.096 -0.0962 -0.0450  0.1538
 7900TIP3    H145191   0.584   6.430  17.103  1.9265 -0.3713  0.3990
 7900TIP3    H245192   0.519   6.559  17.055 -0.2509 -2.0561 -1.2975
 7901TIP3   OH245193   2.609   0.623  14.883 -0.4040  0.0202 -0.0815
 7901TIP3    H145194   2.683   0.611  14.941 -0.9579 -1.4528  0.3284
 7901TIP3    H245195   2.646   0.664  14.804  0.5025  1.0681  0.8786
 7902TIP3   OH245196   1.639   2.915   4.876  0.3268 -0.9533 -0.2709
 7902TIP3    H145197   1.687   2.949   4.952  0.6328 -1.2576 -0.3277
 7902TIP3    H245198   1.578   2.850   4.913  1.0546 -1.7074 -0.3760
 7903TIP3   OH245199   5.418   5.095  14.764  0.6966  0.2494 -0.3830
 7903TIP3    H145200   5.478   5.057  14.829 -1.6463 -1.7394  0.6707
 7903TIP3    H245201   5.369   5.020  14.730 -0.3677  1.7001 -2.0943
 7904TIP3   OH245202   3.622   4.477  10.572 -0.7653  0.1425 -0.2297
 7904TIP3    H145203   3.554   4.526  10.618  0.1436  0.5405  0.6974
 7904TIP3    H245204   3.574   4.412  10.521 -1.8590  0.6079  0.1958
 7905TIP3   OH245205   5.894   3.398  13.661  0.0212  0.1124  0.4366
 7905TIP3    H145206   5.951   3.423  13.734  1.6795 -3.5276  0.5041
 7905TIP3    H245207   5.835   3.333  13.699 -0.9331  0.2305 -0.8311
 7906TIP3   OH245208   1.302   5.651  16.073  0.0818  0.4663 -0.0049
 7906TIP3    H145209   1.213   5.645  16.107 -1.2676 -1.9241 -3.6374
 7906TIP3    H245210   1.356   5.603  16.136 -1.5686 -0.0046  1.0788
 7907TIP3   OH245211   5.006   6.627  17.030 -0.1641  0.3361 -0.2195
 7907TIP3    H145212   5.080   6.576  17.064 -0.0314  0.4064 -0.4043
 7907TIP3    H245213   4.931   6.595  17.080  0.0127  0.3649  0.0727
 7908TIP3   OH245214   2.588   5.673   2.875 -0.0631 -0.5543 -0.1434
 7908TIP3    H145215   2.679   5.643   2.879 -0.1116 -0.8482 -1.1470
 7908TIP3    H245216   2.594   5.767   2.860  0.0679 -0.8046 -1.6543
 7909TIP3   OH245217   3.959   4.074  13.258  0.4798  0.1539 -1.0110
 7909TIP3    H145218   3.918   4.051  13.175 -0.3108  0.2842 -0.6609
 7909TIP3    H245219   3.985   3.990  13.296  0.1721  0.0379 -1.0525
 7910TIP3   OH245220   2.706   0.239  15.947 -0.2879  0.0287 -0.4138
 7910TIP3    H145221   2.783   0.263  15.894  1.1840 -0.6876  1.3569
 7910TIP3    H245222   2.675   0.157  15.909  1.6132 -1.2192  0.6782
 7911TIP3   OH245223   3.078   0.613   1.134  0.2552 -0.1537 -0.0613
 7911TIP3    H145224   3.021   0.537   1.135 -0.8659  0.6789  1.1144
 7911TIP3    H245225   3.158   0.583   1.178 -0.3295 -0.5569  0.7514
 7912TIP3   OH245226   0.661   5.228  16.475 -0.3191 -0.7156 -0.0302
 7912TIP3    H145227   0.598   5.236  16.403 -1.1900 -0.1184  0.7844
 7912TIP3    H245228   0.668   5.317  16.510  0.0639 -1.0113  0.6512
 7913TIP3   OH245229   6.756   0.771  12.583  0.0013 -0.2625 -0.3416
 7913TIP3    H145230   6.784   0.852  12.541  1.4315 -1.0570 -0.9795
 7913TIP3    H245231   6.759   0.706  12.512 -0.4535 -1.0019  0.3162
 7914TIP3   OH245232   3.582   0.349   1.680 -0.0721  0.8408 -0.4093
 7914TIP3    H145233   3.578   0.429   1.628 -0.0577 -0.4214 -2.3865
 7914TIP3    H245234   3.658   0.362   1.738 -0.7725  2.7178  0.1075
 7915TIP3   OH245235   5.360   4.811   2.306  0.7298 -0.3867 -0.3360
 7915TIP3    H145236   5.272   4.774   2.303  1.3431 -1.8821 -0.6420
 7915TIP3    H245237   5.380   4.833   2.215  0.0542  1.4900 -0.0430
 7916TIP3   OH245238   3.183   2.524   1.982 -0.1771  0.4589  0.3910
 7916TIP3    H145239   3.207   2.515   2.074  0.5435 -0.3105  0.1338
 7916TIP3    H245240   3.179   2.619   1.968 -0.0755  0.5790  1.1623
 7917TIP3   OH245241   5.049   2.903   0.444 -0.1754  0.5161 -0.0875
 7917TIP3    H145242   5.112   2.839   0.478  0.3997  0.9100 -0.3858
 7917TIP3    H245243   4.982   2.850   0.401 -0.6162  0.0453  1.1595
 7918TIP3   OH245244   0.213   1.380   4.166  0.2656  0.7736  0.0533
 7918TIP3    H145245   0.158   1.363   4.242 -0.8705  0.2525 -0.8653
 7918TIP3    H245246   0.244   1.470   4.178 -2.1656  1.6882 -0.2483
 7919TIP3   OH245247   4.037   2.285  16.973 -0.0068 -0.0683  0.7631
 7919TIP3    H145248   3.944   2.307  16.967 -0.5533 -2.4794 -0.4071
 7919TIP3    H245249   4.039   2.189  16.983  2.3774 -0.4622 -2.4396
 7920TIP3   OH245250   6.103   0.945  15.960  0.0432  0.4165  0.3857
 7920TIP3    H145251   6.020   0.944  15.912  0.4423  1.6711 -0.3514
 7920TIP3    H245252   6.083   0.991  16.041 -0.2566 -0.3355  0.7468
 7921TIP3   OH245253   0.559   5.589  11.808  0.6503  0.2147  0.1499
 7921TIP3    H145254   0.569   5.572  11.714 -1.6334  0.7174 -0.2142
 7921TIP3    H245255   0.646   5.572  11.844  1.7386  0.6352 -2.1366
 7922TIP3   OH245256   2.427   4.859   0.798 -0.2335  0.3389  0.2930
 7922TIP3    H145257   2.409   4.778   0.750 -0.6027 -0.1680  1.2861
 7922TIP3    H245258   2.392   4.928   0.741  1.1392 -0.0980 -1.1046
 7923TIP3   OH245259   3.723   2.316  16.363  0.0078  0.1018  0.1710
 7923TIP3    H145260   3.677   2.238  16.395  0.2594  0.1903  0.7625
 7923TIP3    H245261   3.653   2.377  16.340 -0.1805  0.3807  1.4234
 7924TIP3   OH245262   6.265   5.044   1.427 -0.2788  0.4084 -0.0023
 7924TIP3    H145263   6.228   5.107   1.366 -0.9660  0.4151  0.4221
 7924TIP3    H245264   6.354   5.029   1.394 -0.9117 -0.2155 -1.4929
 7925TIP3   OH245265   1.869   4.696  17.195 -0.4483 -0.4606  0.2945
 7925TIP3    H145266   1.811   4.768  17.221  0.7068 -0.0125  1.6571
 7925TIP3    H245267   1.896   4.719  17.106 -0.6583  0.4273  0.4508
 7926TIP3   OH245268   0.256   1.850  11.608  0.2655  0.1500 -0.1441
 7926TIP3    H145269   0.171   1.884  11.581 -0.8983 -1.9736  0.7207
 7926TIP3    H245270   0.250   1.756  11.591  2.1758 -0.1279  0.6200
 7927TIP3   OH245271   3.029   2.932  12.451  0.0122  0.1610  0.7428
 7927TIP3    H145272   3.085   2.856  12.468  0.2690 -0.4444 -2.4318
 7927TIP3    H245273   2.947   2.912  12.495  0.0132 -2.1042 -0.1968
 7928TIP3   OH245274   1.635   3.530  15.635 -0.5961 -0.4035  0.0149
 7928TIP3    H145275   1.678   3.564  15.713 -1.1854  1.0964 -0.2904
 7928TIP3    H245276   1.691   3.558  15.563  0.1183 -2.0600 -0.0920
 7929TIP3   OH245277   1.320   6.722  12.057  0.5013 -0.4164  0.3153
 7929TIP3    H145278   1.394   6.782  12.062  0.1611  0.2563 -2.2648
 7929TIP3    H245279   1.244   6.777  12.074  0.4024 -0.6648  0.6835
 7930TIP3   OH245280   1.176   0.204  16.083  0.0541  0.0000 -0.0486
 7930TIP3    H145281   1.162   0.191  15.989 -3.3827  0.1857  0.3618
 7930TIP3    H245282   1.132   0.287  16.103 -0.2551 -0.5998  1.9062
 7931TIP3   OH245283   2.202   6.007   3.385  0.1458 -0.0208 -0.8974
 7931TIP3    H145284   2.202   5.972   3.474  1.2200  0.8583 -0.5375
 7931TIP3    H245285   2.279   5.968   3.344  1.2309  1.6937 -0.5590
 7932TIP3   OH245286   0.300   5.176  10.998  0.2285  0.0718  0.2226
 7932TIP3    H145287   0.344   5.255  10.966 -0.9382  0.3149 -0.8118
 7932TIP3    H245288   0.245   5.207  11.069 -0.3662  0.2292 -0.3012
 7933TIP3   OH245289   4.958   1.070  15.029  0.2671 -0.2986 -0.1417
 7933TIP3    H145290   4.870   1.097  15.002  0.9283  1.4785 -0.5757
 7933TIP3    H245291   4.977   1.123  15.106  0.7156 -1.1676  0.3616
 7934TIP3   OH245292   3.410   2.748  12.369 -0.0921 -0.0288 -0.0647
 7934TIP3    H145293   3.328   2.724  12.411 -0.2421 -0.0483 -0.3658
 7934TIP3    H245294   3.393   2.833  12.328  0.8437  1.2898  2.1698
 7935TIP3   OH245295   1.755   3.835   4.088 -0.2312 -0.3333  0.1132
 7935TIP3    H145296   1.755   3.759   4.147  0.6179 -0.3437  0.1102
 7935TIP3    H245297   1.677   3.884   4.113  2.3903  2.0187  4.3843
 7936TIP3   OH245298   0.112   1.846   1.404 -0.4711 -0.4423  0.3798
 7936TIP3    H145299   0.175   1.774   1.400 -0.2714 -0.2684  0.3430
 7936TIP3    H245300   0.165   1.925   1.388 -0.8876 -0.4030 -0.8872
 7937TIP3   OH245301   2.717   1.942   4.686 -0.3035  0.5303  0.1420
 7937TIP3    H145302   2.720   1.897   4.770 -2.0011 -1.0777 -0.6094
 7937TIP3    H245303   2.723   2.035   4.707  1.2236  0.0573  1.8819
 7938TIP3   OH245304   3.591   6.633  15.224 -0.6347 -0.3753  0.0379
 7938TIP3    H145305   3.637   6.651  15.307 -1.8477 -0.3576  0.7124
 7938TIP3    H245306   3.606   6.540  15.209  0.3415 -0.1938 -0.2002
 7939TIP3   OH245307   1.518   0.416   2.981 -0.2335  0.1824  0.3131
 7939TIP3    H145308   1.586   0.364   2.939 -0.6869 -0.5016  0.4163
 7939TIP3    H245309   1.440   0.402   2.928 -0.2277  1.1989  0.0263
 7940TIP3   OH245310   2.467   1.490   3.126  0.4863 -0.0710 -0.1003
 7940TIP3    H145311   2.538   1.549   3.151  0.2522  0.5030 -0.7798
 7940TIP3    H245312   2.417   1.539   3.061 -1.8643  0.4494  1.9970
 7941TIP3   OH245313   2.279   6.079   2.577  0.4384  0.1433  0.6862
 7941TIP3    H145314   2.311   6.133   2.648 -0.9360  0.1379  1.3341
 7941TIP3    H245315   2.239   6.141   2.516  3.1565  0.3372 -0.9780
 7942TIP3   OH245316   3.137   5.831   5.607  0.4058 -0.2610  0.0493
 7942TIP3    H145317   3.076   5.893   5.647  0.7538  0.6808 -0.8304
 7942TIP3    H245318   3.214   5.834   5.663 -0.1068 -0.9419  0.7846
 7943TIP3   OH245319   2.760   2.401  15.597  0.1470  0.4700  0.3355
 7943TIP3    H145320   2.716   2.414  15.513  0.4350  0.0058  0.1096
 7943TIP3    H245321   2.770   2.489  15.633  1.4840  0.8229 -0.8657
 7944TIP3   OH245322   5.102   2.073   2.991 -0.4159  0.1537 -0.5301
 7944TIP3    H145323   5.014   2.109   2.976 -0.3912  0.6435  0.4693
 7944TIP3    H245324   5.141   2.070   2.903 -1.1757  0.5929 -0.8937
 7945TIP3   OH245325   2.346   1.326  15.919 -0.5772 -0.3809  0.1236
 7945TIP3    H145326   2.295   1.253  15.882 -0.2390  0.2128 -1.5784
 7945TIP3    H245327   2.393   1.363  15.844  1.4440 -0.1592  1.4474
 7946TIP3   OH245328   3.406   2.321   1.640 -0.3253 -0.6191 -0.2054
 7946TIP3    H145329   3.331   2.380   1.649  1.1595  1.2258  0.5131
 7946TIP3    H245330   3.413   2.306   1.546  0.0013  1.3757 -0.5310
 7947TIP3   OH245331   6.430   4.466  12.135 -0.3006 -0.3602 -0.6643
 7947TIP3    H145332   6.513   4.493  12.097 -0.0773 -0.7535 -0.4549
 7947TIP3    H245333   6.429   4.371  12.127 -1.3062 -0.2571 -1.8471
 7948TIP3   OH245334   6.805   2.354   3.601  0.2975  0.3056 -0.3069
 7948TIP3    H145335   6.769   2.266   3.608  0.7196  0.1736  0.3026
 7948TIP3    H245336   6.754   2.405   3.664 -0.4086  0.6596 -1.1516
 7949TIP3   OH245337   5.758   0.605  12.336 -0.6236  0.3155 -0.1358
 7949TIP3    H145338   5.793   0.536  12.279 -1.1115  1.2741 -1.6174
 7949TIP3    H245339   5.798   0.686  12.304 -2.0840  1.0651 -0.0968
 7950TIP3   OH245340   0.915   6.452   6.402  0.3056  0.0022 -0.4991
 7950TIP3    H145341   0.931   6.383   6.466 -1.8803 -0.7872 -0.7703
 7950TIP3    H245342   0.926   6.534   6.452 -0.2751 -0.5846  0.6060
 7951TIP3   OH245343   4.190   0.078  11.834  0.1457  0.5227 -0.3491
 7951TIP3    H145344   4.208   0.036  11.918  0.0270  0.0538 -0.5567
 7951TIP3    H245345   4.162   0.167  11.857 -2.7206 -0.4678  0.2968
 7952TIP3   OH245346   5.088   6.680  15.953  0.2777 -0.0047 -0.2050
 7952TIP3    H145347   5.125   6.637  15.875 -0.4562  1.2572 -1.2687
 7952TIP3    H245348   5.066   6.607  16.011  1.1086 -0.9563 -1.0447
 7953TIP3   OH245349   0.830   1.431   2.896  0.6285 -0.4580  0.0503
 7953TIP3    H145350   0.867   1.467   2.977 -0.0309  0.1199  0.1023
 7953TIP3    H245351   0.835   1.504   2.834 -0.0670 -0.4926 -0.0510
 7954TIP3   OH245352   2.563   3.756   2.990 -0.4754 -0.1961 -0.4247
 7954TIP3    H145353   2.484   3.811   2.994 -0.9454 -0.8539 -0.5717
 7954TIP3    H245354   2.606   3.782   2.909 -0.1472  0.6980  0.0348
 7955TIP3   OH245355   6.220   3.087   5.666  0.0608  0.2094 -0.2176
 7955TIP3    H145356   6.205   3.165   5.612  2.2566  0.4582 -0.5094
 7955TIP3    H245357   6.136   3.072   5.709 -0.9864  1.5361 -1.7175
 7956TIP3   OH245358   2.609   2.738   0.210  0.1052 -0.4755  0.0101
 7956TIP3    H145359   2.692   2.785   0.200  1.5169 -3.1000 -1.0406
 7956TIP3    H245360   2.630   2.664   0.266 -1.8854 -0.3356  0.9564
 7957TIP3   OH245361   3.813   4.434   0.404 -0.2697  0.2473  0.5507
 7957TIP3    H145362   3.810   4.429   0.309 -2.0212  1.0474  0.5410
 7957TIP3    H245363   3.748   4.370   0.434 -2.2851  2.4498  1.0878
 7958TIP3   OH245364   4.863   2.794   0.260  0.2874  0.2006 -0.0855
 7958TIP3    H145365   4.790   2.856   0.271 -0.5378 -0.2978 -2.4080
 7958TIP3    H245366   4.825   2.709   0.280  0.8419  0.1753  0.8968
 7959TIP3   OH245367   3.351   0.393   0.171  0.2129  0.0075 -0.0779
 7959TIP3    H145368   3.447   0.386   0.165  0.1611 -0.1723 -0.8661
 7959TIP3    H245369   3.328   0.461   0.107 -0.1285  0.5612  0.6266
 7960TIP3   OH245370   1.499   4.266  15.821  0.0191 -0.2280  0.3660
 7960TIP3    H145371   1.549   4.186  15.837 -0.3429 -0.4350  0.4576
 7960TIP3    H245372   1.449   4.280  15.901  1.4329  1.0734  1.0525
 7961TIP3   OH245373   2.056   4.961  14.069 -0.4980  0.2604  0.6262
 7961TIP3    H145374   2.014   4.885  14.030 -0.4004  0.6805 -0.3008
 7961TIP3    H245375   2.147   4.956  14.040 -0.9072  1.7447 -0.9992
 7962TIP3   OH245376   3.080   6.033  14.746  0.2503  0.2833 -0.9394
 7962TIP3    H145377   3.068   5.943  14.775  0.8819  0.0601 -1.3716
 7962TIP3    H245378   3.059   6.086  14.823  0.3111 -0.2438 -0.5598
 7963TIP3   OH245379   4.107   3.465   3.422  0.5391 -0.0044  0.2809
 7963TIP3    H145380   4.192   3.422   3.427  0.5770  0.1645  1.0962
 7963TIP3    H245381   4.127   3.558   3.411  0.4598  0.0901  0.9463
 7964TIP3   OH245382   2.494   4.544  12.268  0.5700 -0.4480  0.3549
 7964TIP3    H145383   2.454   4.630  12.260  0.6621 -0.4547 -0.2063
 7964TIP3    H245384   2.518   4.537  12.361  1.6877  0.6439  0.1683
 7965TIP3   OH245385   0.154   2.621  16.269 -0.6065 -0.3201  0.1056
 7965TIP3    H145386   0.131   2.664  16.352 -1.4520 -0.7250  0.0818
 7965TIP3    H245387   0.113   2.535  16.274  1.3119 -1.2683  0.2796
 7966TIP3   OH245388   4.523   0.175  11.823  0.0531 -0.1773 -0.5273
 7966TIP3    H145389   4.557   0.123  11.896 -2.9822  0.3594  1.3506
 7966TIP3    H245390   4.453   0.122  11.786 -0.1260  0.6741 -1.4197
 7967TIP3   OH245391   0.962   2.724   1.406  0.5054  0.7596  0.6131
 7967TIP3    H145392   0.921   2.765   1.331  2.5847 -0.2754 -1.1414
 7967TIP3    H245393   0.893   2.670   1.445 -0.5821  1.3123 -0.5169
 7968TIP3   OH245394   0.854   6.777  16.719 -0.0784  0.1639 -0.0063
 7968TIP3    H145395   0.828   6.730  16.640  0.3052  0.2749 -0.1949
 7968TIP3    H245396   0.843   6.712  16.789  2.1295 -0.7758 -0.4835
 7969TIP3   OH245397   0.328   6.076  16.964 -0.1269 -0.6671 -0.3112
 7969TIP3    H145398   0.345   6.038  16.878 -0.7375 -0.9702 -0.2924
 7969TIP3    H245399   0.357   6.009  17.026  2.7154  0.5344 -0.2431
 7970TIP3   OH245400   4.649   1.652   4.503 -0.4174 -0.2175 -0.8597
 7970TIP3    H145401   4.726   1.678   4.451 -0.7128  1.2576 -0.5907
 7970TIP3    H245402   4.582   1.632   4.437 -0.8698  1.8926 -1.0818
 7971TIP3   OH245403   5.080   0.161  14.169  0.9252  0.0533  0.6013
 7971TIP3    H145404   5.035   0.237  14.132  2.7531  0.6213 -0.5426
 7971TIP3    H245405   5.070   0.093  14.102 -1.8207 -1.1614  2.1802
 7972TIP3   OH245406   1.102   5.872   6.483 -0.3403 -0.4453  0.2775
 7972TIP3    H145407   1.130   5.960   6.509  1.3735 -0.6162 -0.9023
 7972TIP3    H245408   1.053   5.885   6.402  0.5264 -0.6275 -0.2878
 7973TIP3   OH245409   3.039   5.662   4.011 -0.7920  0.4944 -0.2311
 7973TIP3    H145410   2.976   5.658   3.939 -0.5711 -0.7447 -0.3629
 7973TIP3    H245411   3.124   5.653   3.968 -0.6158  0.5350  0.1132
 7974TIP3   OH245412   5.880   4.959   2.285  0.0848  0.3560 -0.0241
 7974TIP3    H145413   5.834   4.878   2.307  1.4632 -0.3142  0.4028
 7974TIP3    H245414   5.932   4.979   2.362  1.0649  0.7240 -0.7791
 7975TIP3   OH245415   3.269   2.015   5.101 -0.1014 -0.1439 -0.1532
 7975TIP3    H145416   3.292   2.098   5.143 -2.1572  0.8550 -0.9186
 7975TIP3    H245417   3.340   2.000   5.038 -0.3931  1.7790 -0.9863
 7976TIP3   OH245418   1.802   1.245   4.261 -0.2336  0.0833 -0.2602
 7976TIP3    H145419   1.710   1.240   4.288  0.0279  0.2436  0.6659
 7976TIP3    H245420   1.804   1.315   4.196 -0.9743 -0.7018 -1.1333
 7977TIP3   OH245421   2.057   0.726  12.892  0.0120  1.0619  0.0687
 7977TIP3    H145422   2.091   0.815  12.899  0.0388  0.9973  0.8918
 7977TIP3    H245423   2.048   0.711  12.798  0.6938  1.6718 -0.1032
 7978TIP3   OH245424   6.066   3.253   0.885  0.3046 -0.3889 -0.3823
 7978TIP3    H145425   6.128   3.218   0.949  2.1141 -2.0053 -2.9090
 7978TIP3    H245426   5.992   3.193   0.888 -0.1174  0.1762  0.9456
 7979TIP3   OH245427   0.361   3.270  14.914 -0.1098 -0.3550  0.1309
 7979TIP3    H145428   0.331   3.244  14.827  0.7132  0.2032 -0.3220
 7979TIP3    H245429   0.347   3.192  14.968 -1.5979 -0.3690 -0.2492
 7980TIP3   OH245430   2.327   1.941   6.068  0.2528 -0.2331 -0.2969
 7980TIP3    H145431   2.371   1.866   6.028  3.5561  2.3144 -1.6143
 7980TIP3    H245432   2.386   1.969   6.138 -0.7614  1.4136 -0.0820
 7981TIP3   OH245433   3.042   0.284   4.984 -0.5078  0.2732  0.1691
 7981TIP3    H145434   3.076   0.267   5.072 -0.2858  1.1571  0.2634
 7981TIP3    H245435   3.103   0.347   4.947 -0.9373  0.3574 -0.3967
 7982TIP3   OH245436   2.270   3.817  14.453 -0.3421  0.1203  0.4705
 7982TIP3    H145437   2.361   3.799  14.428 -1.1952 -0.7003 -2.1529
 7982TIP3    H245438   2.266   3.912  14.460 -0.2383  0.5214 -3.5898
 7983TIP3   OH245439   6.265   2.419  11.773 -0.3089  0.1271  0.1527
 7983TIP3    H145440   6.215   2.381  11.701  0.4718  0.5300 -0.6052
 7983TIP3    H245441   6.349   2.444  11.734  0.4094 -0.3558  1.3684
 7984TIP3   OH245442   5.063   2.103   0.298  0.3057 -0.3307  0.2347
 7984TIP3    H145443   5.157   2.094   0.283  0.2827 -0.5632  0.2242
 7984TIP3    H245444   5.024   2.090   0.212  0.3531  1.1870 -0.0248
 7985TIP3   OH245445   5.217   4.116   4.339  1.0138 -0.8713 -0.7632
 7985TIP3    H145446   5.242   4.061   4.265 -1.4445 -1.9510 -0.8456
 7985TIP3    H245447   5.122   4.105   4.346  1.0608  0.0301  1.9008
 7986TIP3   OH245448   4.719   3.588  16.348 -0.2691  0.5769 -0.2162
 7986TIP3    H145449   4.745   3.499  16.324 -1.3585  0.1806  0.0632
 7986TIP3    H245450   4.716   3.587  16.443 -0.0024  1.0004 -0.2004
 7987TIP3   OH245451   0.943   4.249   6.852 -0.0275 -0.2305 -0.4936
 7987TIP3    H145452   0.853   4.228   6.874 -0.4840  2.2583  0.1482
 7987TIP3    H245453   0.948   4.241   6.757 -0.7140 -1.1044 -0.4571
 7988TIP3   OH245454   3.584   5.046  14.038 -0.7207  0.1020 -0.4165
 7988TIP3    H145455   3.553   5.122  14.087  0.0684  1.3933 -1.8755
 7988TIP3    H245456   3.662   5.016  14.085 -0.3037  0.9714 -0.5560
 7989TIP3   OH245457   1.764   4.225   4.530 -0.1326 -0.1114  0.1605
 7989TIP3    H145458   1.806   4.276   4.599  0.3114  2.1103 -1.6960
 7989TIP3    H245459   1.836   4.192   4.478 -0.4281 -2.4991  1.1889
 7990TIP3   OH245460   6.463   3.626  13.056 -0.0113  0.0664 -0.0849
 7990TIP3    H145461   6.408   3.563  13.102 -1.6539  1.3037 -0.2912
 7990TIP3    H245462   6.457   3.706  13.109  0.9805  0.4373 -0.5270
 7991TIP3   OH245463   1.433   1.812  12.680  0.4094  0.1301 -0.1318
 7991TIP3    H145464   1.514   1.791  12.634  1.1132  1.2990  0.5086
 7991TIP3    H245465   1.461   1.875  12.748 -1.3206  2.0061 -1.1046
 7992TIP3   OH245466   2.337   2.102  11.799  0.2140 -0.5114  0.0290
 7992TIP3    H145467   2.249   2.086  11.764  0.0221 -4.2780  1.9586
 7992TIP3    H245468   2.394   2.103  11.722 -1.1403 -1.0862 -0.9992
 7993TIP3   OH245469   5.004   0.728  17.281  0.4731  0.3699  0.1545
 7993TIP3    H145470   5.022   0.819  17.305  0.9793  0.3261 -0.0554
 7993TIP3    H245471   4.952   0.694  17.354 -1.2624  1.3504 -0.5876
 7994TIP3   OH245472   6.715   2.987   1.501 -0.1965  0.6134 -0.5364
 7994TIP3    H145473   6.731   2.893   1.495  2.7365  1.1081 -0.9307
 7994TIP3    H245474   6.732   3.009   1.593 -0.5765  0.8300 -0.5145
 7995TIP3   OH245475   3.522   5.792  13.028 -0.5171 -0.1401 -0.2944
 7995TIP3    H145476   3.521   5.697  13.021 -0.3046 -0.0371 -2.1419
 7995TIP3    H245477   3.445   5.820  12.978  0.4516  0.7219 -1.3507
 7996TIP3   OH245478   6.736   0.741  13.756  0.8152  0.0442  0.0408
 7996TIP3    H145479   6.777   0.656  13.740  0.5921 -0.0553 -0.0059
 7996TIP3    H245480   6.796   0.804  13.717  0.0598 -0.2266 -1.5903
 7997TIP3   OH245481   5.286   5.050   6.421  0.2583 -0.1161  0.2513
 7997TIP3    H145482   5.306   4.992   6.348  0.8963 -1.6969  1.6308
 7997TIP3    H245483   5.320   5.004   6.498  0.8510  2.1253  1.3990
 7998TIP3   OH245484   6.117   2.861   0.051  0.5883 -0.6813 -0.0566
 7998TIP3    H145485   6.044   2.811   0.014  0.1708  0.6113 -1.0013
 7998TIP3    H245486   6.165   2.797   0.104 -0.4877 -1.8512 -0.4633
 7999TIP3   OH245487   1.995   2.404  16.650 -0.0864 -0.0234  0.2931
 7999TIP3    H145488   2.066   2.358  16.604  0.7707 -1.0863  2.6128
 7999TIP3    H245489   1.933   2.335  16.675 -0.2653  0.4565  1.2068
 8000TIP3   OH245490   4.476   5.431  13.870 -0.4435  0.0145 -0.4888
 8000TIP3    H145491   4.451   5.485  13.795 -0.4285  0.5208 -0.1283
 8000TIP3    H245492   4.436   5.345  13.852 -0.0794  0.0076 -1.2852
 8001TIP3   OH245493   5.685   5.391  14.018 -0.1413  0.8784  0.1342
 8001TIP3    H145494   5.778   5.414  14.016  0.0002  0.6208  2.6697
 8001TIP3    H245495   5.639   5.475  14.010  0.3266  1.2118  0.9034
 8002TIP3   OH245496   1.336   6.684  13.730  0.4369 -0.0024  0.5426
 8002TIP3    H145497   1.349   6.638  13.813 -0.1581  0.9929  1.1879
 8002TIP3    H245498   1.258   6.737  13.743 -0.6530 -1.1035 -1.2057
 8003TIP3   OH245499   0.445   2.066  12.837 -0.2315  0.0739 -0.0207
 8003TIP3    H145500   0.481   2.129  12.775  1.0599  0.5029  1.1588
 8003TIP3    H245501   0.352   2.059  12.812 -0.0097  1.1753 -1.2014
 8004TIP3   OH245502   3.148   0.959   2.695 -0.1231  0.0883  0.6535
 8004TIP3    H145503   3.108   1.041   2.726 -0.1497 -0.0818  1.0618
 8004TIP3    H245504   3.146   0.901   2.770 -0.3485 -0.3828  0.2861
 8005TIP3   OH245505   0.037   6.686  14.387  0.0313 -0.1354 -0.3322
 8005TIP3    H145506   0.085   6.768  14.374  0.1927 -0.5683 -2.7009
 8005TIP3    H245507  -0.054   6.709  14.372 -0.6626  0.7721  4.5535
 8006TIP3   OH245508   5.441   1.076  14.912  0.2543  0.3826  0.3190
 8006TIP3    H145509   5.422   0.990  14.874  0.6228  0.4110  0.0693
 8006TIP3    H245510   5.375   1.134  14.875 -1.7834 -0.3616  2.6920
 8007TIP3   OH245511   6.223   0.870   2.621  0.0094  0.0294  0.5215
 8007TIP3    H145512   6.141   0.908   2.652 -1.2704 -2.0056 -0.2459
 8007TIP3    H245513   6.212   0.865   2.526  1.3831  0.5565  0.3344
 8008TIP3   OH245514   4.939   0.484  11.642 -0.1034 -0.5018  0.0341
 8008TIP3    H145515   4.903   0.570  11.660 -1.5886 -0.9550 -0.6480
 8008TIP3    H245516   4.873   0.423  11.676  0.8570 -1.3574  0.3668
 8009TIP3   OH245517   4.108   1.601  16.785  0.4680  0.0776  0.3628
 8009TIP3    H145518   4.094   1.692  16.759  0.2352  0.1190  0.6385
 8009TIP3    H245519   4.147   1.560  16.707  1.8060  0.7263  0.6995
 8010TIP3   OH245520   0.434   6.258  11.731  0.0204  1.1283 -0.3207
 8010TIP3    H145521   0.500   6.310  11.776 -0.9354  1.9412  0.1532
 8010TIP3    H245522   0.358   6.259  11.789 -0.1879 -0.3923 -0.5301
 8011TIP3   OH245523   3.296   3.717   5.768 -0.4224  0.0393 -0.6320
 8011TIP3    H145524   3.363   3.761   5.821 -0.3212 -2.0030  0.9805
 8011TIP3    H245525   3.332   3.716   5.679  1.2503 -0.1539  0.0351
 8012TIP3   OH245526   2.272   1.885   0.543 -0.1810  0.2437 -0.6166
 8012TIP3    H145527   2.228   1.940   0.479  0.8008  0.4783 -1.0915
 8012TIP3    H245528   2.293   1.943   0.616 -0.6323  0.1387 -0.4034
 8013TIP3   OH245529   6.595   4.068   1.290 -0.3662 -0.1219  0.3176
 8013TIP3    H145530   6.521   4.106   1.243  0.8150  2.0170  0.1537
 8013TIP3    H245531   6.669   4.127   1.272  1.0004 -1.3321  1.7797
 8014TIP3   OH245532   6.590   0.319   5.519  0.2634  0.4874 -0.2948
 8014TIP3    H145533   6.560   0.384   5.583  0.3173 -0.8309  1.1249
 8014TIP3    H245534   6.515   0.261   5.507  1.0185 -0.6666  0.4285
 8015TIP3   OH245535   0.431   5.290   2.392 -0.2937  0.0481  0.3340
 8015TIP3    H145536   0.452   5.310   2.483 -0.6609  0.5200  0.3177
 8015TIP3    H245537   0.446   5.195   2.384 -0.1289  0.0297  0.8442
 8016TIP3   OH245538   2.042   5.811  12.048 -0.1133 -0.3653 -0.8518
 8016TIP3    H145539   2.112   5.877  12.049 -1.0460  0.6478 -0.7689
 8016TIP3    H245540   2.029   5.791  11.955  0.1903 -0.4557 -0.8747
 8017TIP3   OH245541   5.870   2.432   2.905  0.6430 -0.0268 -0.0100
 8017TIP3    H145542   5.858   2.476   2.989  1.3141 -0.6410  0.4156
 8017TIP3    H245543   5.792   2.456   2.854 -0.1293 -0.2488  1.0536
 8018TIP3   OH245544   2.179   6.278   3.613 -0.0290  0.1216 -0.6446
 8018TIP3    H145545   2.251   6.225   3.581 -1.0433 -1.0211 -1.0732
 8018TIP3    H245546   2.178   6.263   3.708  1.4321  1.5824 -0.3801
 8019TIP3   OH245547   3.311   1.147  17.120 -0.2398 -0.3662  0.4027
 8019TIP3    H145548   3.369   1.072  17.133 -0.9205 -0.7271  1.4113
 8019TIP3    H245549   3.336   1.182  17.035  2.6347  0.5246  1.5334
 8020TIP3   OH245550   3.614   6.628  13.775  0.3828 -0.1606 -0.0695
 8020TIP3    H145551   3.654   6.594  13.855 -0.3795  0.2365  0.4857
 8020TIP3    H245552   3.662   6.585  13.704  0.9795 -0.6099  0.5996
 8021TIP3   OH245553   3.234   0.730  14.495 -0.3527 -0.1042  0.6857
 8021TIP3    H145554   3.310   0.783  14.471 -0.1293  0.0861  1.8275
 8021TIP3    H245555   3.234   0.659  14.431  0.2463  0.3971  0.1120
 8022TIP3   OH245556   5.499   4.375   1.506  0.3282  0.2539 -0.3190
 8022TIP3    H145557   5.530   4.286   1.492  2.6177  1.0293 -0.3685
 8022TIP3    H245558   5.423   4.383   1.448  0.9776 -1.1943 -1.4107
 8023TIP3   OH245559   3.272   2.346   0.623 -0.0722  0.4817  0.1505
 8023TIP3    H145560   3.340   2.351   0.557  1.9648  0.3777  2.1814
 8023TIP3    H245561   3.193   2.323   0.575  1.6803 -1.1799 -2.0148
 8024TIP3   OH245562   3.618   6.043   4.047 -0.2753 -0.3373 -0.3718
 8024TIP3    H145563   3.558   5.991   3.992 -0.0250  0.7599 -1.6835
 8024TIP3    H245564   3.702   6.038   4.002 -0.0935  0.6542 -0.1376
 8025TIP3   OH245565   1.562   3.020   0.141  0.4469  0.8328  0.0883
 8025TIP3    H145566   1.540   3.045   0.231  2.4204  0.3718  0.7107
 8025TIP3    H245567   1.478   3.023   0.094 -0.5940  1.0741  1.9352
 8026TIP3   OH245568   2.216   2.651  11.928  0.4887  0.5601 -0.4344
 8026TIP3    H145569   2.223   2.566  11.972  1.7377  1.1396  0.5437
 8026TIP3    H245570   2.307   2.677  11.913  0.0934  1.2620 -1.6400
 8027TIP3   OH245571   1.348   0.852  16.935 -0.1906  0.7613  0.0611
 8027TIP3    H145572   1.421   0.893  16.981 -0.3145  0.4861  0.4937
 8027TIP3    H245573   1.306   0.925  16.889  0.4211  0.9035 -0.2830
 8028TIP3   OH245574   3.683   3.782   0.353 -0.0511  0.0393 -0.3058
 8028TIP3    H145575   3.656   3.812   0.266 -2.1701 -1.0615 -0.0466
 8028TIP3    H245576   3.718   3.694   0.338  0.9130  0.3920 -0.2206
 8029TIP3   OH245577   6.558   2.032  16.387  0.0303 -0.1578 -0.4048
 8029TIP3    H145578   6.474   2.019  16.343  0.2740  2.0106 -1.5474
 8029TIP3    H245579   6.537   2.086  16.464  0.3904  0.5328 -0.7868
 8030TIP3   OH245580   5.575   3.779  15.833  1.0324  0.2974 -0.3759
 8030TIP3    H145581   5.653   3.734  15.801  0.1888 -1.0989 -0.5311
 8030TIP3    H245582   5.536   3.718  15.896 -0.2346  0.7274 -0.7194
 8031TIP3   OH245583   4.894   1.900  16.182 -0.7243  0.5412 -0.0044
 8031TIP3    H145584   4.898   1.834  16.251 -0.5755  2.4443  1.8525
 8031TIP3    H245585   4.986   1.914  16.157 -0.4463  2.3538  1.8939
 8032TIP3   OH245586   6.719   1.584  14.530  0.1815  0.1821 -0.1159
 8032TIP3    H145587   6.750   1.496  14.509  3.1361  0.8201  1.3275
 8032TIP3    H245588   6.691   1.620  14.446  1.8345 -1.0521 -1.2321
 8033TIP3   OH245589   0.802   1.026  13.040 -1.1640 -0.6454 -0.3430
 8033TIP3    H145590   0.748   1.071  12.975 -0.2091  0.6112 -0.2647
 8033TIP3    H245591   0.853   0.962  12.989 -0.6179  0.1475 -0.7906
 8034TIP3   OH245592   6.559   6.150   4.966 -0.1448 -0.4382  0.1702
 8034TIP3    H145593   6.621   6.080   4.948 -0.2690 -1.2690  2.8244
 8034TIP3    H245594   6.495   6.111   5.026 -1.9211  1.0824 -0.6582
 8035TIP3   OH245595   5.452   1.142  11.598 -0.3369 -0.3330  0.5593
 8035TIP3    H145596   5.470   1.049  11.610  0.0871 -0.3165  0.0423
 8035TIP3    H245597   5.383   1.161  11.663  0.2412 -0.7899  1.3158
 8036TIP3   OH245598   3.009   3.176   4.951  0.3795  0.7643  0.1040
 8036TIP3    H145599   3.086   3.215   4.993  0.5851  1.5783 -1.0012
 8036TIP3    H245600   3.036   3.086   4.930  0.3375  0.4121  1.5059
 8037TIP3   OH245601   2.063   1.339   3.550 -0.2952 -0.2608  0.0938
 8037TIP3    H145602   2.081   1.423   3.592  1.2760  0.1749 -1.3867
 8037TIP3    H245603   1.976   1.349   3.512 -0.3803  0.4577  0.4673
 8038TIP3   OH245604   6.750   5.620  16.711  0.5469  0.2790 -0.3501
 8038TIP3    H145605   6.673   5.674  16.731 -0.0868 -1.0151  0.8313
 8038TIP3    H245606   6.741   5.598  16.618 -0.5760  0.0491 -0.1949
 8039TIP3   OH245607   4.529   4.153  15.446  0.5650  0.1346 -0.3352
 8039TIP3    H145608   4.532   4.207  15.368  0.7479 -0.0427 -0.4516
 8039TIP3    H245609   4.483   4.073  15.419  1.4353 -0.3143 -0.5031
 8040TIP3   OH245610   3.757   2.601  15.629  0.1574 -0.3594 -0.1748
 8040TIP3    H145611   3.668   2.566  15.622  0.9839 -2.7295  0.7071
 8040TIP3    H245612   3.746   2.689  15.665 -1.8332 -0.5905 -0.1894
 8041TIP3   OH245613   3.275   3.736  14.580 -0.7766 -0.1743 -0.2860
 8041TIP3    H145614   3.232   3.758  14.497  0.4090 -0.9291 -1.1092
 8041TIP3    H245615   3.262   3.814  14.634 -1.8888  0.1800 -1.0380
 8042TIP3   OH245616   0.393   3.660   2.157  0.4841  0.1735  0.9285
 8042TIP3    H145617   0.388   3.740   2.105  0.6050  0.6497  1.6413
 8042TIP3    H245618   0.304   3.646   2.189  0.2224 -0.5981 -0.1037
 8043TIP3   OH245619   6.074   4.458   1.454 -0.7685  0.3004  0.7327
 8043TIP3    H145620   5.990   4.487   1.490  0.3258  2.8429  1.3897
 8043TIP3    H245621   6.055   4.436   1.363 -2.8754 -2.8183  1.8617
 8044TIP3   OH245622   0.533   4.148   4.911 -0.4023 -0.1012  0.0525
 8044TIP3    H145623   0.589   4.165   4.835  1.3868 -0.4240  1.2582
 8044TIP3    H245624   0.506   4.056   4.901  0.0641 -0.2301 -0.0498
 8045TIP3   OH245625   5.771   3.527   5.648  0.0429 -0.0831 -0.3793
 8045TIP3    H145626   5.699   3.557   5.592 -1.5937 -1.6193  0.8748
 8045TIP3    H245627   5.792   3.603   5.702  0.2850  0.7849 -1.6686
 8046TIP3   OH245628   0.550   3.020  17.013  0.9183  0.3614  0.2393
 8046TIP3    H145629   0.528   3.041  17.104  2.2291  1.1487  0.3906
 8046TIP3    H245630   0.579   3.103  16.976  1.0131 -0.0939 -0.7152
 8047TIP3   OH245631   4.567   0.595   2.439  0.2634 -0.3989 -0.3540
 8047TIP3    H145632   4.621   0.516   2.441  1.0366  0.1564  0.8405
 8047TIP3    H245633   4.586   0.640   2.521 -2.2766 -0.3484  0.2305
 8048TIP3   OH245634   6.013   3.306   6.682  0.4663  0.5348  0.1252
 8048TIP3    H145635   5.966   3.306   6.599 -1.3963 -0.0920  1.1653
 8048TIP3    H245636   5.945   3.301   6.749  1.9281  1.2399  1.7162
 8049TIP3   OH245637   0.059   1.403  15.263 -0.1001  0.5477 -0.3463
 8049TIP3    H145638   0.013   1.452  15.332  0.6503 -1.8985  1.9734
 8049TIP3    H245639   0.151   1.424  15.277  0.1918 -1.1967  0.4119
 8050TIP3   OH245640   3.809   0.406  13.907 -0.2587  0.0894 -0.1473
 8050TIP3    H145641   3.891   0.384  13.865 -1.3732 -0.4498 -2.0954
 8050TIP3    H245642   3.771   0.475  13.852 -0.8870  0.6912  0.9995
 8051TIP3   OH245643   1.766   1.538  16.599  0.8597 -0.1277  0.1385
 8051TIP3    H145644   1.821   1.562  16.674  1.1370 -0.5537  0.0721
 8051TIP3    H245645   1.686   1.589  16.612  1.8997  1.7797 -0.6519
 8052TIP3   OH245646   6.028   0.965   0.774  0.1745 -0.0094 -0.0769
 8052TIP3    H145647   5.936   0.940   0.787 -0.2641  2.0862  0.9859
 8052TIP3    H245648   6.048   0.935   0.685 -2.1139  1.1590 -1.0440
 8053TIP3   OH245649   4.827   3.848  16.242  0.7970 -0.2153  0.1598
 8053TIP3    H145650   4.897   3.825  16.180  1.0039 -0.5192  0.5009
 8053TIP3    H245651   4.812   3.768  16.291  0.0429 -0.2115 -0.0686
 8054TIP3   OH245652   5.459   5.712  11.857 -0.0209 -0.2579 -1.2642
 8054TIP3    H145653   5.364   5.718  11.853  0.0667  0.5128 -2.0601
 8054TIP3    H245654   5.476   5.619  11.877 -1.0450  0.3063  2.6244
 8055TIP3   OH245655   0.936   4.717   4.735  0.0153 -0.4339  0.4418
 8055TIP3    H145656   0.905   4.783   4.672  1.3108 -2.6589 -2.6748
 8055TIP3    H245657   1.031   4.719   4.726  0.1058 -2.1542  0.8978
 8056TIP3   OH245658   3.789   4.241  16.992 -0.3818  0.5916 -0.1340
 8056TIP3    H145659   3.777   4.328  17.031 -0.9546  0.0413  0.9110
 8056TIP3    H245660   3.705   4.220  16.952 -0.3125  0.4084 -0.1844
 8057TIP3   OH245661   1.932   3.109  10.379 -0.2541 -0.5169  0.2040
 8057TIP3    H145662   1.874   3.177  10.345 -0.9001 -1.3804 -0.4462
 8057TIP3    H245663   2.019   3.148  10.377 -0.5451  0.0984 -0.6832
 8058TIP3   OH245664   6.155   2.858  16.031 -0.1024  0.8468  0.0770
 8058TIP3    H145665   6.185   2.775  15.994  0.4035  0.4653  1.3239
 8058TIP3    H245666   6.210   2.872  16.108 -1.2984  1.5166  0.8231
 8059TIP3   OH245667   2.812   5.533  15.261  0.2016  0.1561 -0.1670
 8059TIP3    H145668   2.806   5.610  15.318  2.8108  0.3936 -0.1251
 8059TIP3    H245669   2.768   5.560  15.181 -1.4576  0.6490  0.8714
 8060TIP3   OH245670   0.037   2.719  17.150  0.6024  0.1911 -0.4263
 8060TIP3    H145671   0.048   2.814  17.145  1.5793  0.0388 -1.6545
 8060TIP3    H245672  -0.049   2.707  17.189  0.7028  1.5781  0.2822
 8061TIP3   OH245673   1.279   1.059  16.791 -0.1859  0.2081 -0.9303
 8061TIP3    H145674   1.324   1.081  16.709  2.5665 -0.9070  0.2179
 8061TIP3    H245675   1.285   1.138  16.844  0.4312  0.0650 -0.7839
 8062TIP3   OH245676   4.599   0.940   3.687  0.1846 -0.1214  0.0545
 8062TIP3    H145677   4.597   0.874   3.756 -0.2151  0.0802  0.2393
 8062TIP3    H245678   4.681   0.924   3.640  0.1365 -0.6826  0.1608
 8063TIP3   OH245679   5.576   3.892   3.983 -0.0238 -0.0475 -0.2008
 8063TIP3    H145680   5.646   3.886   3.918  0.0935  2.1808 -0.3148
 8063TIP3    H245681   5.522   3.964   3.953 -0.8651 -0.0175  1.3419
 8064TIP3   OH245682   4.116   5.133  16.103  0.3551  0.2502  0.2060
 8064TIP3    H145683   4.196   5.124  16.155 -0.0521  0.9433  0.9603
 8064TIP3    H245684   4.046   5.107  16.162 -0.2173  2.0852  0.3550
 8065TIP3   OH245685   2.637   6.527   1.198  0.0976 -0.4473  0.2268
 8065TIP3    H145686   2.731   6.526   1.181  0.1245  1.9764  0.0497
 8065TIP3    H245687   2.628   6.574   1.281 -0.9574 -0.7893  0.3155
 8066TIP3   OH245688   5.002   5.863   2.460 -0.3835 -0.1105 -0.1916
 8066TIP3    H145689   4.986   5.954   2.435 -1.6657 -0.5310 -0.9677
 8066TIP3    H245690   5.059   5.828   2.392 -1.5408 -0.4423 -1.0138
 8067TIP3   OH245691   5.104   5.965  17.003 -0.3367  0.3966 -0.6467
 8067TIP3    H145692   5.196   5.939  17.003 -0.7079 -0.9456 -1.4221
 8067TIP3    H245693   5.062   5.906  16.941 -1.8958  0.4317  0.3510
 8068TIP3   OH245694   0.919   5.672  11.837 -0.3141 -0.6569 -0.6311
 8068TIP3    H145695   0.850   5.729  11.802 -0.1164 -0.7915 -1.2532
 8068TIP3    H245696   0.990   5.679  11.774 -0.1127 -1.2329 -0.4766
 8069TIP3   OH245697   4.616   5.729   5.422 -0.0058  0.0035  0.3191
 8069TIP3    H145698   4.673   5.719   5.498  1.1594  1.5948 -0.3355
 8069TIP3    H245699   4.539   5.776   5.456 -0.1868 -0.6711  0.8443
 8070TIP3   OH245700   0.146   4.323  14.105  0.5209 -0.2923  0.2992
 8070TIP3    H145701   0.197   4.254  14.145 -0.7920 -0.9971  0.8009
 8070TIP3    H245702   0.060   4.317  14.146  0.2692  1.4052  0.0883
 8071TIP3   OH245703   0.090   0.446   0.909 -0.2993 -0.0325 -0.1873
 8071TIP3    H145704   0.178   0.475   0.932 -0.3902 -0.2058  0.3806
 8071TIP3    H245705   0.072   0.488   0.825  1.2257 -1.8015 -1.4620
 8072TIP3   OH245706   0.262   3.190   6.021  0.2144 -0.1933  0.1076
 8072TIP3    H145707   0.314   3.179   6.101 -1.4553 -3.1934  0.8408
 8072TIP3    H245708   0.303   3.132   5.958 -0.2282 -0.0110 -0.3475
 8073TIP3   OH245709   5.221   5.834  16.125  0.1817 -0.3193 -0.1926
 8073TIP3    H145710   5.251   5.812  16.037  0.5018  0.6416 -0.3264
 8073TIP3    H245711   5.150   5.897  16.112  0.0466 -0.3789  0.2255
 8074TIP3   OH245712   0.018   4.036  14.315 -0.2609  0.2058 -0.2793
 8074TIP3    H145713   0.064   4.103  14.264 -0.2215 -0.1539 -0.7134
 8074TIP3    H245714   0.014   3.960  14.257 -2.5135  0.6191 -0.7224
 8075TIP3   OH245715   3.075   5.304  16.980 -0.3325  0.3717 -0.3573
 8075TIP3    H145716   3.134   5.229  16.980 -0.7422  0.0409  0.5757
 8075TIP3    H245717   3.061   5.323  17.073 -0.7498  1.1889 -0.5859
 8076TIP3   OH245718   2.362   1.648  15.437 -0.5808  0.1939  0.5625
 8076TIP3    H145719   2.349   1.705  15.513 -0.7159  0.9892 -0.0598
 8076TIP3    H245720   2.274   1.627  15.407 -0.5294 -0.2208  0.6963
 8077TIP3   OH245721   2.344   6.291  12.578 -0.7844 -0.3523 -0.5819
 8077TIP3    H145722   2.360   6.360  12.514 -1.3825  0.3150 -0.0147
 8077TIP3    H245723   2.325   6.338  12.660  0.1482 -1.1942  0.1311
 8078TIP3   OH245724   6.578   4.401   5.301  0.2287 -0.2222 -0.6173
 8078TIP3    H145725   6.667   4.403   5.265  0.7309  0.2184  0.6281
 8078TIP3    H245726   6.581   4.332   5.367 -0.0153  0.6185  0.2768
 8079TIP3   OH245727   0.431   5.397  12.977  0.8333  0.0041  0.3177
 8079TIP3    H145728   0.398   5.485  12.959  1.4158  0.1985  0.1992
 8079TIP3    H245729   0.446   5.396  13.071  1.4466  0.2458  0.2238
 8080TIP3   OH245730   1.336   4.123  11.148  0.8638 -0.2162 -0.4225
 8080TIP3    H145731   1.298   4.040  11.117 -0.7162  0.2132  0.3189
 8080TIP3    H245732   1.372   4.164  11.069  2.1967 -1.8590 -0.7086
 8081TIP3   OH245733   3.950   4.629   5.682 -0.0015 -0.0662 -0.0247
 8081TIP3    H145734   4.025   4.607   5.737  0.0572 -0.0809 -0.1108
 8081TIP3    H245735   3.967   4.718   5.652  0.8553 -0.6999 -1.4757
 8082TIP3   OH245736   6.618   3.403   3.066 -0.3510 -0.6347  0.6965
 8082TIP3    H145737   6.633   3.477   3.008  0.6155 -0.3290  1.3332
 8082TIP3    H245738   6.562   3.439   3.136 -1.4865 -0.9940 -0.0160
 8083TIP3   OH245739   6.170   3.533   5.837  0.6628 -0.4644  0.4578
 8083TIP3    H145740   6.221   3.525   5.918  0.5486 -1.0731  0.4705
 8083TIP3    H245741   6.186   3.622   5.807  1.3793 -0.5103  0.7017
 8084TIP3   OH245742   0.236   5.460  14.249 -0.0804  0.2317  0.0251
 8084TIP3    H145743   0.191   5.544  14.260 -1.4394 -0.4022 -0.5571
 8084TIP3    H245744   0.274   5.464  14.161 -0.2413  0.1963 -0.0467
 8085TIP3   OH245745   6.025   6.784   6.375  0.4075  0.6094  0.0908
 8085TIP3    H145746   6.064   6.727   6.440 -1.2703  0.4145  0.9667
 8085TIP3    H245747   6.099   6.828   6.333  1.6241 -1.0703  0.4393
 8086TIP3   OH245748   5.350   6.398   0.535 -0.3058  0.0986 -0.3961
 8086TIP3    H145749   5.304   6.469   0.491 -0.0330 -0.2921 -1.3307
 8086TIP3    H245750   5.435   6.436   0.559 -0.4863  0.3360 -0.1235
 8087TIP3   OH245751   0.799   6.538   3.314 -0.3836  0.1810  0.2554
 8087TIP3    H145752   0.850   6.564   3.238 -1.1168  0.4174 -0.1577
 8087TIP3    H245753   0.820   6.445   3.327 -1.3519 -0.2379 -1.1037
 8088TIP3   OH245754   0.601   3.407  16.696 -0.2293 -0.6555 -0.3010
 8088TIP3    H145755   0.643   3.379  16.615  0.6742 -1.2821  0.3669
 8088TIP3    H245756   0.658   3.475  16.730  1.4037 -2.8984  1.6434
 8089TIP3   OH245757   0.618   2.967   3.203  0.6310 -0.4279  0.0782
 8089TIP3    H145758   0.532   2.972   3.244 -0.4166 -0.9457 -1.9822
 8089TIP3    H245759   0.677   2.943   3.274 -0.6956  1.2168  1.7964
 8090TIP3   OH245760   4.056   3.653   6.132 -0.4088  0.1488 -0.6366
 8090TIP3    H145761   4.022   3.743   6.135 -1.6883 -0.3802  1.9994
 8090TIP3    H245762   3.980   3.598   6.149  0.8887 -1.3139  0.4976
 8091TIP3   OH245763   4.895   4.501  14.101  0.1591  0.8368  0.0323
 8091TIP3    H145764   4.845   4.499  14.183 -2.3403  0.0634 -1.4603
 8091TIP3    H245765   4.981   4.467  14.125 -0.7002  0.1471  2.2479
 8092TIP3   OH245766   0.442   3.923  14.659  0.2547 -0.2845 -0.0792
 8092TIP3    H145767   0.436   3.830  14.681 -0.4332 -0.9783 -3.0235
 8092TIP3    H245768   0.414   3.928  14.568 -0.8826  2.9927  0.3931
 8093TIP3   OH245769   2.399   0.224  17.044  0.6034  0.2257 -0.5915
 8093TIP3    H145770   2.305   0.207  17.050  0.7190  0.4093  2.1697
 8093TIP3    H245771   2.414   0.243  16.951 -2.7557  4.0542 -0.4518
 8094TIP3   OH245772   2.419   1.721  11.505 -0.6393  0.1267 -0.1604
 8094TIP3    H145773   2.329   1.739  11.478 -0.6196 -0.4323 -0.6006
 8094TIP3    H245774   2.461   1.685  11.427 -0.3656 -0.7345  0.3787
 8095TIP3   OH245775   2.996   5.465   5.135 -0.0268 -0.3034  0.1219
 8095TIP3    H145776   2.939   5.532   5.173  1.3936  0.0686  1.6512
 8095TIP3    H245777   3.067   5.455   5.199 -0.1254 -3.1493 -0.1498
 8096TIP3   OH245778   3.010   2.659  11.691 -0.2589 -0.1364  0.2113
 8096TIP3    H145779   3.076   2.723  11.665  0.7026 -1.5746 -0.8954
 8096TIP3    H245780   3.025   2.647  11.785 -0.4617  1.2608  0.4390
 8097TIP3   OH245781   1.104   2.258   2.323 -0.6258  0.0308 -0.2569
 8097TIP3    H145782   1.118   2.308   2.404 -2.6885  1.7982 -0.9177
 8097TIP3    H245783   1.020   2.290   2.291  0.7384  0.3191 -3.7675
 8098TIP3   OH245784   0.841   3.330  15.913  0.6673  0.2226  0.1314
 8098TIP3    H145785   0.774   3.317  15.979  0.2671 -0.8602 -0.4853
 8098TIP3    H245786   0.799   3.385  15.847  0.1232 -1.1342 -0.6542
 8099TIP3   OH245787   5.512   4.961  10.558  0.0466 -0.0086  0.0692
 8099TIP3    H145788   5.519   4.898  10.486 -1.2212  0.5212 -0.5263
 8099TIP3    H245789   5.562   5.037  10.528  0.9541 -0.4323  0.4786
 8100TIP3   OH245790   0.328   2.619  15.216 -0.5822 -0.4207  0.5295
 8100TIP3    H145791   0.364   2.694  15.169  0.2264 -0.6192  0.8138
 8100TIP3    H245792   0.234   2.621  15.197 -0.4830  0.3423  0.0973
 8101TIP3   OH245793   2.341   2.636  17.139  0.1720 -0.7469 -0.0660
 8101TIP3    H145794   2.259   2.652  17.092  1.3360 -0.8606 -2.1801
 8101TIP3    H245795   2.385   2.568  17.088  1.6734 -0.5624  0.9526
 8102TIP3   OH245796   0.551   0.230   6.242  0.4567  0.0518  0.2516
 8102TIP3    H145797   0.497   0.152   6.256  0.2879  0.2144  0.4985
 8102TIP3    H245798   0.492   0.294   6.204  0.3219  0.4427  1.1111
 8103TIP3   OH245799   3.373   5.525  12.304 -0.1395  0.1247  0.0018
 8103TIP3    H145800   3.309   5.577  12.352 -0.7712 -0.6713  0.0372
 8103TIP3    H245801   3.405   5.584  12.236 -1.0464  0.4737 -0.1358
 8104TIP3   OH245802   3.439   0.377  14.031  0.0679  0.2284  0.3430
 8104TIP3    H145803   3.382   0.344  13.962 -1.3765  0.8696  1.2045
 8104TIP3    H245804   3.474   0.459  13.995  0.4883 -0.1799 -0.1963
 8105TIP3   OH245805   3.382   3.135   5.175 -0.3081  0.5744 -0.1758
 8105TIP3    H145806   3.443   3.066   5.148 -0.6458 -0.4703  1.6547
 8105TIP3    H245807   3.359   3.179   5.093  1.1780 -0.4263 -1.1794
 8106TIP3   OH245808   0.177   1.604   5.923 -0.1680  0.3698 -0.6532
 8106TIP3    H145809   0.206   1.542   5.856  0.4878  2.0233 -1.9244
 8106TIP3    H245810   0.230   1.583   5.999  0.3861 -0.3272 -1.2266
 8107TIP3   OH245811   2.459   6.057  12.746 -0.1061 -0.0625  0.2166
 8107TIP3    H145812   2.395   5.988  12.725 -1.8313  0.9648  1.9975
 8107TIP3    H245813   2.469   6.105  12.663 -1.6685 -0.2220 -0.0882
 8108TIP3   OH245814   0.330   3.797  13.011 -0.0152  0.2862 -0.1068
 8108TIP3    H145815   0.352   3.890  13.003  0.3670  0.1448 -0.7712
 8108TIP3    H245816   0.391   3.753  12.952  0.4990 -0.4930  0.9885
 8109TIP3   OH245817   3.493   2.366   0.159  0.2688  0.3284  0.7485
 8109TIP3    H145818   3.445   2.448   0.166 -1.5232 -0.6776  0.6392
 8109TIP3    H245819   3.499   2.349   0.065  0.7731  0.4151  0.7647
 8110TIP3   OH245820   0.488   3.508  14.854  1.0652 -0.6201  0.0927
 8110TIP3    H145821   0.434   3.437  14.889  0.0306  0.1271  0.0421
 8110TIP3    H245822   0.566   3.464  14.819 -1.4401 -2.2146 -3.8083
 8111TIP3   OH245823   1.819   5.206   2.557 -0.3190  0.1829 -0.0052
 8111TIP3    H145824   1.782   5.169   2.637  2.0126 -2.6571 -0.1493
 8111TIP3    H245825   1.905   5.240   2.583  0.0601  0.1147 -1.1160
 8112TIP3   OH245826   5.529   0.990   5.203  0.2667  0.6329  0.1307
 8112TIP3    H145827   5.576   0.967   5.284  2.7744  0.5555 -1.2941
 8112TIP3    H245828   5.515   0.906   5.159 -0.5679  0.7359  0.1830
 8113TIP3   OH245829   5.372   3.609   3.527  0.0136  0.1009 -0.1509
 8113TIP3    H145830   5.442   3.551   3.557  0.1932 -0.0343 -0.8108
 8113TIP3    H245831   5.321   3.555   3.465  0.3701  0.7420 -1.0149
 8114TIP3   OH245832   1.312   5.061   2.336 -0.3195  0.0623  0.1439
 8114TIP3    H145833   1.383   5.051   2.398 -0.6117  2.6157  0.9412
 8114TIP3    H245834   1.245   5.110   2.384 -2.5049 -2.0287 -0.6835
 8115TIP3   OH245835   4.358   3.105  16.693 -0.3817  0.0599  0.1609
 8115TIP3    H145836   4.284   3.071  16.643 -1.1896  0.6014  0.9763
 8115TIP3    H245837   4.357   3.199  16.677  1.6894 -0.2388 -1.8653
 8116TIP3   OH245838   1.662   2.151   1.492  0.4817  0.0535 -0.4149
 8116TIP3    H145839   1.680   2.236   1.532  0.6515  1.2436 -2.9108
 8116TIP3    H245840   1.642   2.172   1.401 -1.4570 -2.4055 -0.5968
 8117TIP3   OH245841   4.048   3.593   2.401 -0.2628 -0.1747  0.1700
 8117TIP3    H145842   4.002   3.649   2.338  0.3046  0.1988  0.0785
 8117TIP3    H245843   4.140   3.603   2.378 -0.0372  0.0872  1.1738
 8118TIP3   OH245844   1.480   3.755   3.199  0.3933  0.6212 -0.0366
 8118TIP3    H145845   1.514   3.667   3.214 -1.1121 -0.2720 -1.7210
 8118TIP3    H245846   1.423   3.772   3.275  2.1678  0.9200  1.2456
 8119TIP3   OH245847   1.283   6.251  12.543  0.5305 -0.8792 -0.0425
 8119TIP3    H145848   1.347   6.233  12.475  0.2347 -0.3587 -0.4596
 8119TIP3    H245849   1.336   6.271  12.621  0.8861  0.5202 -0.6359
 8120TIP3   OH245850   2.212   1.710  11.709 -0.1517  0.3643  0.1289
 8120TIP3    H145851   2.284   1.735  11.652 -0.0883  0.5027  0.2715
 8120TIP3    H245852   2.206   1.614  11.700 -0.8871  0.5058 -0.9991
 8121TIP3   OH245853   4.379   0.047   3.023 -0.2808  0.3829 -0.1301
 8121TIP3    H145854   4.376   0.094   3.106  1.2832 -2.0375  1.3736
 8121TIP3    H245855   4.298  -0.003   3.021  1.4559 -2.6840  1.9504
 8122TIP3   OH245856   5.944   3.768   0.181  0.1022 -0.8732 -0.0653
 8122TIP3    H145857   5.912   3.766   0.271  0.3955 -0.2406  0.0573
 8122TIP3    H245858   5.868   3.798   0.130  0.3447  0.1926  0.1686
 8123TIP3   OH245859   2.851   5.247  15.454  0.5997 -0.1068  0.1999
 8123TIP3    H145860   2.782   5.196  15.412 -1.3395  2.4341  0.2104
 8123TIP3    H245861   2.905   5.279  15.381  0.2307  0.0543 -0.0018
 8124TIP3   OH245862   3.661   2.414   5.731  0.1318 -0.9490  0.0100
 8124TIP3    H145863   3.573   2.444   5.752 -0.0411 -0.2462 -1.6727
 8124TIP3    H245864   3.709   2.421   5.814 -1.2569 -0.9069  0.8251
 8125TIP3   OH245865   2.007   6.222  12.514  0.1206  0.4959 -0.1001
 8125TIP3    H145866   1.993   6.316  12.520 -1.6543  0.1893  0.8641
 8125TIP3    H245867   2.041   6.197  12.599 -1.1524  0.0013  0.2804
 8126TIP3   OH245868   3.731   1.815  16.363 -0.7739  0.1696  0.3462
 8126TIP3    H145869   3.795   1.837  16.295  0.8005 -2.0571  1.0542
 8126TIP3    H245870   3.761   1.862  16.441 -0.4445 -0.2514  0.4744
 8127TIP3   OH245871   4.790   3.461   3.272  0.0421  0.8382  0.3016
 8127TIP3    H145872   4.839   3.496   3.346 -1.8128  0.2675  1.8546
 8127TIP3    H245873   4.704   3.439   3.309 -1.0002  0.7598 -2.0728
 8128TIP3   OH245874   3.524   4.778  16.300  0.4802 -0.0018 -0.0828
 8128TIP3    H145875   3.515   4.873  16.286  1.7579  0.3521  1.3265
 8128TIP3    H245876   3.434   4.747  16.311  0.1250  1.2896  0.8684
 8129TIP3   OH245877   5.901   5.126  14.153 -0.4030 -0.2756 -0.5153
 8129TIP3    H145878   5.851   5.191  14.204 -1.6285 -0.0276 -2.0021
 8129TIP3    H245879   5.991   5.160  14.153 -0.7915  0.7880 -0.2362
 8130TIP3   OH245880   3.376   4.008  14.068 -0.0946  0.4716  0.1093
 8130TIP3    H145881   3.395   3.953  14.144 -2.1329  0.9260  0.9923
 8130TIP3    H245882   3.345   3.947  14.001  2.3871 -0.0145 -0.6190
 8131TIP3   OH245883   4.304   5.381  16.935  0.6605 -0.2791 -0.1284
 8131TIP3    H145884   4.368   5.328  16.981 -0.4639 -1.0352  0.5893
 8131TIP3    H245885   4.302   5.464  16.983  0.7619 -0.4265  0.1259
 8132TIP3   OH245886   0.046   1.720   0.921 -0.0936 -0.2857  0.2914
 8132TIP3    H145887   0.075   1.718   0.830 -1.8451 -0.6992 -0.2710
 8132TIP3    H245888  -0.012   1.795   0.926  0.4601  0.0908  1.2264
 8133TIP3   OH245889   2.616   4.430  13.731 -0.1343  0.1199 -0.7306
 8133TIP3    H145890   2.583   4.381  13.655 -0.1714  0.2351 -0.7901
 8133TIP3    H245891   2.707   4.448  13.709 -0.7895  2.2405 -1.8275
 8134TIP3   OH245892   5.800   1.717   2.395  0.9474  0.2768  0.3358
 8134TIP3    H145893   5.797   1.792   2.454 -0.5946  0.2219  0.3458
 8134TIP3    H245894   5.770   1.643   2.449  0.0249  0.1296 -0.3801
 8135TIP3   OH245895   3.605   6.261   3.017 -0.1019 -0.7690  0.6892
 8135TIP3    H145896   3.528   6.297   3.061 -0.2073  1.0614 -0.9096
 8135TIP3    H245897   3.675   6.324   3.037  0.0413 -0.3513 -1.0405
 8136TIP3   OH245898   1.987   0.808  13.802 -0.1834 -0.7000  0.5989
 8136TIP3    H145899   2.049   0.784  13.732 -0.1271 -2.1219  1.1229
 8136TIP3    H245900   1.909   0.835  13.755  1.0048  1.6410 -0.0913
 8137TIP3   OH245901   3.397   3.842   1.431 -0.0591  0.3842 -0.3759
 8137TIP3    H145902   3.333   3.781   1.469  2.7540 -1.6698  1.3301
 8137TIP3    H245903   3.434   3.794   1.357  0.1570  1.1705 -0.7735
 8138TIP3   OH245904   2.613   3.218   1.494 -0.4422  0.6578  0.0402
 8138TIP3    H145905   2.677   3.288   1.484  0.4307 -0.3558 -1.8806
 8138TIP3    H245906   2.561   3.222   1.413 -0.6175 -0.6412  0.0683
 8139TIP3   OH245907   6.050   0.367  12.819 -0.0137 -0.2449 -0.0539
 8139TIP3    H145908   5.997   0.440  12.849 -0.2923 -0.4075 -0.1488
 8139TIP3    H245909   5.987   0.297  12.801  0.2773 -0.5982  0.2993
 8140TIP3   OH245910   6.375   1.989  12.043 -0.1525  0.1533 -0.2386
 8140TIP3    H145911   6.285   2.003  12.012 -0.3558 -0.9651 -0.1489
 8140TIP3    H245912   6.381   2.040  12.123 -1.1781 -0.9751  0.5686
 8141TIP3   OH245913   3.183   3.660  13.205  0.0576  0.2694 -0.2435
 8141TIP3    H145914   3.273   3.693  13.200  0.5809 -1.1345 -0.3580
 8141TIP3    H245915   3.165   3.627  13.117 -0.7957  1.1120 -0.3887
 8142TIP3   OH245916   0.738   3.570  14.091  0.5686 -0.0346  0.3882
 8142TIP3    H145917   0.768   3.491  14.045 -1.1587  0.3010 -1.4099
 8142TIP3    H245918   0.779   3.642  14.044  0.1695  0.2399  0.4579
 8143TIP3   OH245919   2.580   1.963   0.286 -0.3347 -0.3496 -0.5409
 8143TIP3    H145920   2.607   1.905   0.357 -0.1107 -0.1565 -0.4687
 8143TIP3    H245921   2.646   1.950   0.218  0.0489  0.2678 -0.2865
 8144TIP3   OH245922   1.372   6.070   4.334  0.0449  0.2958 -0.0330
 8144TIP3    H145923   1.320   6.150   4.325  0.9330  0.7675 -1.0274
 8144TIP3    H245924   1.462   6.098   4.321  0.5105 -0.6352  1.0187
 8145TIP3   OH245925   4.884   5.312   3.795  0.0862 -0.8509 -0.3305
 8145TIP3    H145926   4.912   5.359   3.874 -0.2810 -2.9427  1.1120
 8145TIP3    H245927   4.957   5.320   3.735  1.1532 -0.7907  0.9512
 8146TIP3   OH245928   0.496   0.139  13.626 -0.4185  0.2392  0.3175
 8146TIP3    H145929   0.436   0.102  13.561  0.7356  0.6255 -1.0037
 8146TIP3    H245930   0.501   0.232  13.604 -0.9619  0.6093  1.7361
 8147TIP3   OH245931   0.200   0.083  12.177 -0.2222  0.0868  0.3948
 8147TIP3    H145932   0.139   0.123  12.115  0.2615  0.1214 -0.0659
 8147TIP3    H245933   0.241   0.158  12.222  0.7516  0.1237 -0.5322
 8148TIP3   OH245934   0.388   0.829  12.108 -0.1556 -0.0261 -0.0529
 8148TIP3    H145935   0.295   0.853  12.109 -0.2909 -0.4943  2.5207
 8148TIP3    H245936   0.422   0.868  12.028 -2.6054  0.0127 -1.1187
 8149TIP3   OH245937   3.506   6.332  11.653 -0.5553  0.3430 -1.0561
 8149TIP3    H145938   3.548   6.418  11.654  0.0855  0.0346 -1.0789
 8149TIP3    H245939   3.468   6.322  11.740  0.8577 -0.0776 -0.4849
 8150TIP3   OH245940   0.419   6.556   5.116  0.4030  0.8714  0.2154
 8150TIP3    H145941   0.464   6.614   5.177  1.3451 -2.3123  2.7000
 8150TIP3    H245942   0.332   6.542   5.155  1.0585 -1.2885  1.0081
 8151TIP3   OH245943   1.698   2.542   0.955  0.1244 -0.0740 -0.8912
 8151TIP3    H145944   1.695   2.511   0.864 -2.3455  0.4975 -1.0209
 8151TIP3    H245945   1.712   2.636   0.947 -2.4163  0.3406 -0.7670
 8152TIP3   OH245946   3.034   1.096  12.624  0.0070  0.2415 -0.7472
 8152TIP3    H145947   3.032   1.002  12.643  0.4962  0.3129 -0.3200
 8152TIP3    H245948   2.962   1.110  12.563 -0.7074 -0.2435 -0.0253
 8153TIP3   OH245949   4.826   5.517  16.740  0.1714  1.0528 -0.3187
 8153TIP3    H145950   4.773   5.503  16.818  0.4703  2.0667  0.0641
 8153TIP3    H245951   4.795   5.449  16.679  0.4875 -0.2525  0.9419
 8154TIP3   OH245952   2.971   6.567   5.557 -0.2790  0.0361  0.0188
 8154TIP3    H145953   3.055   6.530   5.582  0.1207 -0.6956 -2.2315
 8154TIP3    H245954   2.916   6.490   5.538 -0.3624  0.5192 -1.8373
 8155TIP3   OH245955   0.069   2.083   2.422 -0.3873 -0.4946  0.4213
 8155TIP3    H145956   0.130   2.115   2.356 -1.0219 -2.4203 -1.1284
 8155TIP3    H245957  -0.016   2.119   2.394 -0.5438 -0.7438  0.5781
 8156TIP3   OH245958   1.946   6.519  15.457  0.0373 -0.2799 -0.0968
 8156TIP3    H145959   1.906   6.457  15.518 -0.6387  0.6093  0.3844
 8156TIP3    H245960   1.963   6.597  15.510  0.1439  0.2281 -0.8743
 8157TIP3   OH245961   3.416   2.418  16.651  0.6744 -0.2895 -0.3584
 8157TIP3    H145962   3.372   2.336  16.630 -2.5520  1.1225  0.6975
 8157TIP3    H245963   3.432   2.458  16.565 -1.3486 -0.2079 -0.7271
 8158TIP3   OH245964   5.697   3.292   2.875 -0.3145 -0.5818 -0.3156
 8158TIP3    H145965   5.614   3.340   2.882 -0.0415 -0.3680  1.8401
 8158TIP3    H245966   5.726   3.308   2.786 -2.0682  0.2316 -0.7734
 8159TIP3   OH245967   2.636   2.105   4.431  0.9069  0.7944 -0.1578
 8159TIP3    H145968   2.569   2.099   4.499 -1.4427  1.8753 -2.3070
 8159TIP3    H245969   2.695   2.174   4.462  0.2312  0.8406  1.0573
 8160TIP3   OH245970   3.256   3.025   2.401  0.2570  0.1530  0.0900
 8160TIP3    H145971   3.339   3.072   2.409  0.3043 -0.1348  1.3197
 8160TIP3    H245972   3.192   3.080   2.447  0.2522 -0.8128  1.2557
 8161TIP3   OH245973   2.708   3.886  10.851  0.1611 -0.1843  0.0524
 8161TIP3    H145974   2.741   3.880  10.761  1.3617 -0.1980  0.4870
 8161TIP3    H245975   2.759   3.821  10.899 -1.3261 -1.0420  0.5007
 8162TIP3   OH245976   2.058   0.055  11.318 -0.0549 -0.0708 -0.7175
 8162TIP3    H145977   1.996  -0.017  11.309  0.0904 -0.3525  0.4515
 8162TIP3    H245978   2.033   0.118  11.250 -1.7341 -0.0988 -0.1397
 8163TIP3   OH245979   3.358   1.979  12.289  0.3509 -0.0248 -0.0949
 8163TIP3    H145980   3.321   1.934  12.366  1.1935 -0.4094  0.0914
 8163TIP3    H245981   3.329   2.070  12.299 -0.9053 -0.4063 -0.1820
 8164TIP3   OH245982   0.851   4.701   2.413 -0.3562 -0.0275  0.3031
 8164TIP3    H145983   0.880   4.773   2.470 -0.0529  0.8232 -0.8965
 8164TIP3    H245984   0.932   4.670   2.371 -0.7804  0.5136 -0.9571
 8165TIP3   OH245985   2.157   6.242   3.242  0.6846  0.2659  0.4585
 8165TIP3    H145986   2.103   6.292   3.303 -0.3102 -1.1855  0.8104
 8165TIP3    H245987   2.205   6.181   3.297  2.7656  1.5802  0.1427
 8166TIP3   OH245988   1.929   1.277  17.038  0.0463  0.1408  0.5669
 8166TIP3    H145989   2.015   1.318  17.045 -0.6505  1.7889 -0.0920
 8166TIP3    H245990   1.902   1.262  17.129  1.2667 -0.9406  0.7656
 8167TIP3   OH245991   1.519   1.230   4.717 -0.0202  0.4096  0.1276
 8167TIP3    H145992   1.488   1.228   4.807 -1.0415  0.2008 -0.2184
 8167TIP3    H245993   1.515   1.322   4.693  1.0891  0.5752  0.5785
 8168TIP3   OH245994   0.697   2.125   1.682 -0.0769  0.1627  0.1788
 8168TIP3    H145995   0.789   2.149   1.694  0.0208  0.8322 -1.7762
 8168TIP3    H245996   0.698   2.029   1.684  0.6790  0.1613  0.1062
 8169TIP3   OH245997   6.337   0.906   5.031  0.3519  0.5493 -0.1433
 8169TIP3    H145998   6.414   0.961   5.019  2.2049 -1.7612  0.7147
 8169TIP3    H245999   6.372   0.818   5.049 -2.4764 -0.8699 -1.1345
 8170TIP3   OH246000   2.577   2.039   1.749 -0.5350  0.2410  0.0971
 8170TIP3    H146001   2.583   2.092   1.828 -1.7510  0.1652  0.2507
 8170TIP3    H246002   2.532   2.096   1.686 -0.7121 -0.1522 -0.1302
 8171TIP3   OH246003   2.064   2.527   5.423  0.0117 -0.1036  0.2317
 8171TIP3    H146004   2.113   2.608   5.433 -0.9170  0.4965 -0.0043
 8171TIP3    H246005   2.099   2.469   5.490  0.6105  0.5241  0.4629
 8172TIP3   OH246006   5.152   1.448  10.765 -0.0976  0.6179 -0.5140
 8172TIP3    H146007   5.112   1.508  10.703 -2.2302 -0.2818 -0.0642
 8172TIP3    H246008   5.113   1.363  10.745  0.8586 -0.1050  0.6010
 8173TIP3   OH246009   2.022   3.781   3.286  0.4606  0.3481  0.6101
 8173TIP3    H146010   1.996   3.821   3.369 -1.8112 -1.1318  0.6577
 8173TIP3    H246011   1.997   3.689   3.294 -0.4359  0.3253 -1.9698
 8174TIP3   OH246012   4.735   1.422   4.599  0.4807  0.1724  0.1966
 8174TIP3    H146013   4.664   1.358   4.605  1.0522 -0.3507  1.5046
 8174TIP3    H246014   4.691   1.506   4.585 -0.3423 -0.2765  0.0456
 8175TIP3   OH246015   1.234   4.843  14.537  0.4273  0.0941  0.3545
 8175TIP3    H146016   1.304   4.908  14.540  1.5631 -1.0840  0.1910
 8175TIP3    H246017   1.197   4.842  14.625  0.8715  0.4638  0.5423
 8176TIP3   OH246018   1.627   5.541  14.050 -0.0684 -0.4878  0.0748
 8176TIP3    H146019   1.721   5.549  14.069 -0.3385 -0.6133  1.5682
 8176TIP3    H246020   1.609   5.447  14.054 -0.2239 -0.4817 -0.4046
 8177TIP3   OH246021   4.270   3.801   4.859  0.5260  0.2445  0.4575
 8177TIP3    H146022   4.254   3.866   4.927 -1.6837  0.2451 -0.0320
 8177TIP3    H246023   4.281   3.852   4.779  3.0299  0.2391  0.7511
 8178TIP3   OH246024   3.553   6.347   6.414  0.0680 -0.6215 -0.3673
 8178TIP3    H146025   3.531   6.268   6.462 -1.3034 -0.8795 -1.3769
 8178TIP3    H246026   3.510   6.418   6.462  0.1407 -0.6640 -0.2411
 8179TIP3   OH246027   2.932   0.711   5.319  0.1248  0.5343 -0.2601
 8179TIP3    H146028   2.856   0.665   5.355 -0.5610  1.9553  0.1620
 8179TIP3    H246029   2.911   0.722   5.226 -0.2356  0.9940 -0.1293
 8180TIP3   OH246030   5.228   6.582  12.043  0.0090  0.1659  0.2737
 8180TIP3    H146031   5.204   6.492  12.021  2.6665 -0.5896  0.3790
 8180TIP3    H246032   5.216   6.586  12.138 -1.3555  0.3408  0.1142
 8181TIP3   OH246033   5.063   2.660  14.494 -0.6110 -0.0504 -0.2105
 8181TIP3    H146034   5.011   2.708  14.559  0.1305  1.0086 -0.3891
 8181TIP3    H246035   5.147   2.645  14.536 -0.6363 -0.6963 -0.3782
 8182TIP3   OH246036   5.361   2.862  11.928 -0.0630  0.0455  0.3926
 8182TIP3    H146037   5.413   2.822  11.998  3.4586 -0.1873 -2.2161
 8182TIP3    H246038   5.337   2.949  11.962 -0.4010 -0.9061  2.7131
 8183TIP3   OH246039   2.536   0.557  13.088  0.1451 -0.6755 -0.1978
 8183TIP3    H146040   2.487   0.540  13.007 -0.1768 -1.5395  0.1722
 8183TIP3    H246041   2.580   0.640  13.072  0.2666 -0.9524 -1.3497
 8184TIP3   OH246042   5.600   3.309   5.259  0.2666 -0.0605  0.0791
 8184TIP3    H146043   5.632   3.284   5.172 -1.2351 -1.5382 -0.0965
 8184TIP3    H246044   5.661   3.375   5.290  1.7237 -0.6656 -1.4484
 8185TIP3   OH246045   6.775   6.375   4.860  0.3100  0.1832  0.5059
 8185TIP3    H146046   6.728   6.317   4.919  0.1149 -0.2373 -0.0503
 8185TIP3    H246047   6.790   6.455   4.911  1.6247 -0.7982  1.6633
 8186TIP3   OH246048   4.803   0.620  12.315 -0.0339 -0.8358 -0.0695
 8186TIP3    H146049   4.849   0.567  12.380  0.9315  0.8591  0.6724
 8186TIP3    H246050   4.831   0.584  12.230 -0.1627 -2.1161  0.4249
 8187TIP3   OH246051   2.891   4.478  13.687  0.4236  0.4101  0.5365
 8187TIP3    H146052   2.925   4.479  13.597  0.4944 -2.0585  0.4956
 8187TIP3    H246053   2.948   4.417  13.733 -0.2162  0.9209  2.0303
 8188TIP3   OH246054   2.398   5.450  11.362 -0.3165  0.6067 -0.6216
 8188TIP3    H146055   2.367   5.525  11.312  0.0778  1.4327  0.3519
 8188TIP3    H246056   2.376   5.471  11.453 -0.1231 -0.4159 -0.3341
 8189TIP3   OH246057   3.314   0.530   6.876 -0.2139  0.3915 -0.0465
 8189TIP3    H146058   3.227   0.496   6.856  0.2233 -1.1264  0.5114
 8189TIP3    H246059   3.299   0.595   6.945 -0.7115 -1.4327  1.6304
 8190TIP3   OH246060   0.875   5.865   5.512  0.2612 -0.1128  0.0672
 8190TIP3    H146061   0.916   5.818   5.585  1.9397 -0.0085 -0.7925
 8190TIP3    H246062   0.803   5.913   5.553  1.4769  0.3480  1.7581
 8191TIP3   OH246063   4.510   5.416  15.672 -0.2190 -0.1921  0.0195
 8191TIP3    H146064   4.592   5.452  15.638  1.7566 -2.5506  2.0785
 8191TIP3    H246065   4.469   5.376  15.596  1.1038 -0.0032 -0.8258
 8192TIP3   OH246066   1.285   3.104   0.631 -0.0499  0.0675 -0.1620
 8192TIP3    H146067   1.339   3.029   0.655  0.0998  0.1339 -0.2884
 8192TIP3    H246068   1.337   3.180   0.657 -0.1285  0.1293 -0.1847
 8193TIP3   OH246069   3.174   2.321  12.654  0.0802  0.6266  0.0308
 8193TIP3    H146070   3.186   2.338  12.747 -0.1299  0.8423  0.0185
 8193TIP3    H246071   3.080   2.306  12.644 -0.2256  2.8233 -0.5019
 8194TIP3   OH246072   4.924   2.973   0.915  0.2263 -0.5993  0.0405
 8194TIP3    H146073   4.990   2.910   0.886 -0.6414 -1.5471  0.0454
 8194TIP3    H246074   4.853   2.963   0.851  0.5726  1.2713 -0.6754
 8195TIP3   OH246075   6.508   5.869   1.573 -0.1390  0.5760 -0.0113
 8195TIP3    H146076   6.426   5.821   1.584 -0.5379  1.5186  1.2583
 8195TIP3    H246077   6.575   5.811   1.609 -0.4658  0.5025  0.4776
 8196TIP3   OH246078   3.293   2.066  15.319  0.0747  0.2553 -0.0639
 8196TIP3    H146079   3.275   2.130  15.251 -0.3079 -0.6328 -0.8076
 8196TIP3    H246080   3.381   2.034  15.299 -0.0721 -0.0694 -0.1814
 8197TIP3   OH246081   6.013   5.220  16.264  0.5156  0.0019 -0.0761
 8197TIP3    H146082   6.019   5.308  16.302  0.1011 -0.2567  0.6007
 8197TIP3    H246083   6.095   5.208  16.217  0.8040  0.5420  0.2928
 8198TIP3   OH246084   5.245   1.407   5.532  0.0997  0.2307  0.4184
 8198TIP3    H146085   5.214   1.376   5.447  1.6844 -2.5704  0.8197
 8198TIP3    H246086   5.332   1.444   5.514 -0.7238  2.1858  0.3730
 8199TIP3   OH246087   1.702   2.509  14.098 -0.1262 -0.1482 -0.0685
 8199TIP3    H146088   1.608   2.529  14.098 -0.4376 -1.4873  0.9090
 8199TIP3    H246089   1.706   2.414  14.097  1.2430 -0.0937 -0.7227
 8200TIP3   OH246090   3.244   5.617  10.864  0.0084 -0.2265 -0.3395
 8200TIP3    H146091   3.236   5.712  10.859  0.9633 -0.0576  0.9167
 8200TIP3    H246092   3.154   5.585  10.864 -0.3565  0.7696  0.5833
 8201TIP3   OH246093   2.320   3.826   2.470  0.1550  0.8233  0.0021
 8201TIP3    H146094   2.241   3.843   2.419  0.1396  1.0149  0.0877
 8201TIP3    H246095   2.330   3.731   2.469 -0.6642  0.7174  0.8763
 8202TIP3   OH246096   6.315   2.278   3.681 -0.0404 -0.0467 -0.1706
 8202TIP3    H146097   6.341   2.356   3.633 -0.7187 -0.7163 -1.6415
 8202TIP3    H246098   6.263   2.312   3.754 -0.6242  0.8394 -0.9914
 8203TIP3   OH246099   0.544   1.730  15.707 -0.1035  0.3165 -0.3510
 8203TIP3    H146100   0.609   1.795  15.735  0.5450 -0.6844  0.5115
 8203TIP3    H246101   0.573   1.648  15.749 -1.6110 -0.2515 -0.4113
 8204TIP3   OH246102   1.831   1.074  13.104  0.3234  0.4593  0.1753
 8204TIP3    H146103   1.859   1.045  13.016  0.3994 -0.3284  0.4521
 8204TIP3    H246104   1.775   1.003  13.135  0.7457  0.4873  0.9935
 8205TIP3   OH246105   1.600   1.123   0.061  0.2061  0.6178 -0.1708
 8205TIP3    H146106   1.580   1.083   0.146  0.7843 -0.8773 -0.7153
 8205TIP3    H246107   1.682   1.170   0.076 -0.2347  1.2187  0.3630
 8206TIP3   OH246108   3.040   0.156  11.854 -0.2498  0.0209  0.0526
 8206TIP3    H146109   3.067   0.246  11.832  0.4377 -0.0379  0.6158
 8206TIP3    H246110   3.019   0.160  11.947  1.3971 -0.7609  0.4854
 8207TIP3   OH246111   1.893   6.085  14.799  0.3542 -0.7592 -0.1124
 8207TIP3    H146112   1.956   6.143  14.840 -1.1229  1.7969 -1.3656
 8207TIP3    H246113   1.920   6.080  14.708 -0.3091 -0.9292 -0.3055
 8208TIP3   OH246114   3.944   2.728  11.028 -0.5394  0.4633  0.3383
 8208TIP3    H146115   3.989   2.648  11.055  1.3970  1.7111  0.9012
 8208TIP3    H246116   3.876   2.698  10.968  1.5504 -1.4303 -1.1652
 8209TIP3   OH246117   1.625   3.021  12.167  0.5089 -0.1578  0.2530
 8209TIP3    H146118   1.620   3.003  12.261  1.1961  2.2695  0.7817
 8209TIP3    H246119   1.675   3.102  12.161  0.0436 -0.0257 -2.1925
 8210TIP3   OH246120   0.495   1.586   0.563 -0.7233  0.2851 -0.1034
 8210TIP3    H146121   0.468   1.494   0.565 -1.3023  0.4662  0.8010
 8210TIP3    H246122   0.414   1.635   0.578 -0.5065  0.9578 -1.1369
 8211TIP3   OH246123   2.471   5.280  13.262 -0.2794 -0.7272 -0.3744
 8211TIP3    H146124   2.561   5.303  13.285 -0.3858  0.4203 -1.0567
 8211TIP3    H246125   2.479   5.198  13.213  0.4946 -0.2021 -1.1619
 8212TIP3   OH246126   2.300   0.048   5.806 -0.0962  0.4102  0.5218
 8212TIP3    H146127   2.308   0.142   5.794  0.0728  0.3790  0.3883
 8212TIP3    H246128   2.208   0.029   5.786 -0.1093  0.5331  0.4652
 8213TIP3   OH246129   4.512   0.277   1.010  0.1757 -0.6583  0.2770
 8213TIP3    H146130   4.541   0.186   1.008  1.6732 -0.2461  1.9908
 8213TIP3    H246131   4.542   0.310   1.094 -0.3040  1.4454 -0.3439
 8214TIP3   OH246132   3.770   3.338   1.581  0.0558  0.3452  0.7256
 8214TIP3    H146133   3.725   3.303   1.658 -0.3402  0.7348  0.6744
 8214TIP3    H246134   3.797   3.261   1.531  0.1144  0.0970  1.1412
 8215TIP3   OH246135   2.314   3.417  11.489  0.2859  0.2785 -0.2460
 8215TIP3    H146136   2.370   3.361  11.543 -0.0762 -0.5379 -0.7187
 8215TIP3    H246137   2.267   3.357  11.432 -1.4114  0.9105  0.4472
 8216TIP3   OH246138   6.559   5.255   5.350 -0.3214 -0.1902 -0.0336
 8216TIP3    H146139   6.550   5.349   5.369  0.7268 -0.4790  1.8996
 8216TIP3    H246140   6.653   5.240   5.347 -0.4129 -0.5900 -3.5322
 8217TIP3   OH246141   0.752   2.510  16.225  0.5610  0.1206  0.2081
 8217TIP3    H146142   0.783   2.447  16.160  1.1323  0.3745  0.2329
 8217TIP3    H246143   0.661   2.528  16.200  0.7513  0.1495 -0.4642
 8218TIP3   OH246144   0.532   0.558   4.024  0.2221  0.1541  0.3045
 8218TIP3    H146145   0.561   0.634   3.974  0.7101 -1.3657 -1.7958
 8218TIP3    H246146   0.456   0.589   4.074  0.9629  2.2204  0.1753
 8219TIP3   OH246147   2.342   2.217   5.176 -0.3465  0.2197 -0.5096
 8219TIP3    H146148   2.314   2.234   5.266  0.0083 -0.2525 -0.3075
 8219TIP3    H246149   2.344   2.303   5.135 -0.6545  0.4211 -0.1035
 8220TIP3   OH246150   4.052   1.125   5.152  0.3387 -0.0802  0.7459
 8220TIP3    H146151   4.094   1.082   5.226  0.1930  0.8065  1.3506
 8220TIP3    H246152   3.959   1.124   5.172 -0.0302 -2.5641 -0.8663
 8221TIP3   OH246153   1.442   1.275  13.001  0.3281 -0.3513 -0.3901
 8221TIP3    H146154   1.412   1.342  12.940 -1.4301 -1.4816 -0.8287
 8221TIP3    H246155   1.497   1.217  12.948  0.5313 -0.1541 -0.3957
 8222TIP3   OH246156   4.340   3.436   3.059 -0.4240 -0.0051 -0.0467
 8222TIP3    H146157   4.295   3.520   3.049  0.1336  0.3361  0.2659
 8222TIP3    H246158   4.288   3.374   3.009  0.5059  1.0085 -2.3206
 8223TIP3   OH246159   3.474   0.922   1.688 -0.3594 -0.3108  0.1443
 8223TIP3    H146160   3.473   0.889   1.778 -1.3731 -2.0643 -0.4760
 8223TIP3    H246161   3.524   1.003   1.692  0.4186 -0.8674  2.1182
 8224TIP3   OH246162   5.887   2.741  17.239 -0.4738  0.6406 -0.4312
 8224TIP3    H146163   5.812   2.714  17.186 -1.5030  1.6736  0.4540
 8224TIP3    H246164   5.886   2.682  17.315  1.6136 -1.5182 -2.0053
 8225TIP3   OH246165   1.410   5.098  12.040 -0.6802  0.4690 -0.8850
 8225TIP3    H146166   1.393   5.156  12.115  1.5024 -1.9112  1.5771
 8225TIP3    H246167   1.438   5.156  11.970 -0.7655  2.5890  0.7784
 8226TIP3   OH246168   6.445   4.255  15.505  0.2962 -0.6857  0.0410
 8226TIP3    H146169   6.403   4.338  15.482 -1.1858 -0.8187  2.1064
 8226TIP3    H246170   6.394   4.189  15.459 -1.3890 -0.7874  1.9815
 8227TIP3   OH246171   4.728   4.550  12.832  0.4437 -0.0290 -0.4609
 8227TIP3    H146172   4.737   4.455  12.837  1.0248 -0.0425 -1.6011
 8227TIP3    H246173   4.806   4.584  12.875 -0.9801 -0.0260  2.2221
 8228TIP3   OH246174   6.165   1.421   6.611 -0.1951  0.1458 -0.4917
 8228TIP3    H146175   6.150   1.515   6.609  1.0347  0.3312 -1.9198
 8228TIP3    H246176   6.256   1.410   6.581  0.1194 -1.4005  0.9721
 8229TIP3   OH246177   4.634   6.322   2.360 -0.0014  0.3939  0.3207
 8229TIP3    H146178   4.642   6.327   2.455 -0.7816  2.8868  0.3011
 8229TIP3    H246179   4.539   6.313   2.345  0.1675 -0.6208 -0.2287
 8230TIP3   OH246180   4.997   5.787   0.368  0.4893 -0.3251 -0.0486
 8230TIP3    H146181   4.942   5.801   0.291 -0.1562 -2.1763  0.0566
 8230TIP3    H246182   5.075   5.745   0.334  1.8941  2.2993 -0.1966
 8231TIP3   OH246183   2.053   0.257   4.203  0.7734 -0.2436  0.1510
 8231TIP3    H146184   2.055   0.259   4.299  0.6476  0.8028  0.1402
 8231TIP3    H246185   1.980   0.314   4.180  0.0513 -1.4237 -0.5504
 8232TIP3   OH246186   1.391   2.886  13.158 -0.3306  0.4851  0.3890
 8232TIP3    H146187   1.304   2.927  13.151 -1.4334 -1.7813  0.0625
 8232TIP3    H246188   1.408   2.852  13.070  0.4041  0.0008  0.7141
 8233TIP3   OH246189   2.987   5.361  16.256  0.1611 -0.0547 -0.3797
 8233TIP3    H146190   2.987   5.453  16.282 -1.1585 -0.1218 -0.0787
 8233TIP3    H246191   2.895   5.342  16.239  0.4743 -1.2243 -0.7853
 8234TIP3   OH246192   0.687   4.986   1.486  0.3202 -0.2825  0.0189
 8234TIP3    H146193   0.731   5.049   1.544 -0.1659  0.2219 -0.1629
 8234TIP3    H246194   0.722   5.006   1.399 -1.1869  0.9516 -0.3271
 8235TIP3   OH246195   2.133   6.585  14.452 -0.7867  0.1205 -0.2602
 8235TIP3    H146196   2.125   6.670  14.409 -1.6571 -0.1552 -0.6634
 8235TIP3    H246197   2.049   6.574  14.498 -1.3870 -1.2972 -1.6529
 8236TIP3   OH246198   4.732   3.168  11.294  0.1614  0.4113  0.1431
 8236TIP3    H146199   4.771   3.248  11.258 -2.1165  1.7319  0.5102
 8236TIP3    H246200   4.718   3.112  11.217  0.8977  0.7290 -0.2334
 8237TIP3   OH246201   6.588   6.785  15.723 -0.0683 -0.1024 -0.5649
 8237TIP3    H146202   6.548   6.725  15.660 -1.5388 -0.3087  0.5348
 8237TIP3    H246203   6.594   6.734  15.804  1.1223  0.3965 -0.3326
 8238TIP3   OH246204   0.128   0.590  12.207 -0.1024 -0.0140  0.4560
 8238TIP3    H146205   0.075   0.595  12.287 -2.4785  1.7946 -1.1660
 8238TIP3    H246206   0.139   0.497  12.192 -0.9930 -0.4014  2.0406
 8239TIP3   OH246207   3.753   0.521  16.831 -0.2193 -0.3349  0.3952
 8239TIP3    H146208   3.738   0.562  16.746  0.6463  1.0079  0.8762
 8239TIP3    H246209   3.798   0.439  16.810 -0.3185 -0.1793 -0.4609
 8240TIP3   OH246210   1.711   4.929  17.226  0.7549 -0.5550  0.2840
 8240TIP3    H146211   1.711   4.990  17.153  1.1478  0.1301  0.8455
 8240TIP3    H246212   1.660   4.972  17.295  3.2014  0.3364  1.6227
 8241TIP3   OH246213   5.447   1.175   1.696 -0.1115 -0.1202  0.6097
 8241TIP3    H146214   5.364   1.128   1.683  0.5896 -1.0025 -0.7596
 8241TIP3    H246215   5.442   1.206   1.787 -1.9730 -0.0922  0.5317
 8242TIP3   OH246216   2.752   2.250   4.691 -0.1395 -0.7082  0.7341
 8242TIP3    H146217   2.672   2.244   4.743 -0.3183 -0.4948  0.4845
 8242TIP3    H246218   2.766   2.343   4.678 -1.8085 -0.7909 -2.1829
 8243TIP3   OH246219   0.357   1.575   1.165  0.5176  0.0782 -0.4378
 8243TIP3    H146220   0.283   1.534   1.121  0.0478 -0.2936  0.6718
 8243TIP3    H246221   0.324   1.596   1.253  1.1176  1.7452 -0.5983
 8244TIP3   OH246222   2.136   2.831  17.251  0.8777 -0.1920 -0.1634
 8244TIP3    H146223   2.152   2.818  17.157  0.4146 -1.5722 -0.0626
 8244TIP3    H246224   2.223   2.844  17.289  1.5767 -4.4013 -0.0989
 8245TIP3   OH246225   6.787   1.244   3.571 -0.1782  0.0664  0.0063
 8245TIP3    H146226   6.786   1.337   3.597 -1.4776  0.1305 -0.2024
 8245TIP3    H246227   6.722   1.239   3.501  1.6114 -0.5598 -1.6491
 8246TIP3   OH246228   3.089   6.431  12.083  0.3643 -0.2221 -0.1445
 8246TIP3    H146229   3.113   6.344  12.116  0.0017 -0.6169 -0.8856
 8246TIP3    H246230   2.994   6.433  12.088  0.3029 -0.2978 -1.1661
 8247TIP3   OH246231   5.482   0.747   5.040 -0.4093  0.2440  0.0043
 8247TIP3    H146232   5.512   0.743   4.949  0.7248 -0.8502  0.3960
 8247TIP3    H246233   5.509   0.662   5.077  0.4335  1.2348  1.7309
 8248TIP3   OH246234   1.094   5.850   4.832  0.2986 -0.3736  0.3795
 8248TIP3    H146235   1.156   5.826   4.901  1.7116  0.8460 -0.4201
 8248TIP3    H246236   1.133   5.815   4.752 -1.9306 -2.8326  0.3150
 8249TIP3   OH246237   5.403   5.813   3.942  0.0589  0.0747  0.1806
 8249TIP3    H146238   5.439   5.866   3.871 -0.3570  0.7836  0.4926
 8249TIP3    H246239   5.479   5.786   3.993  0.1420  1.6747  0.9213
 8250TIP3   OH246240   4.075   0.105   3.548  0.1140  0.1383  0.3475
 8250TIP3    H146241   4.148   0.055   3.513  0.5788  0.6450  0.5898
 8250TIP3    H246242   4.048   0.163   3.477 -1.2790 -1.3520 -0.3919
 8251TIP3   OH246243   4.318   4.579  11.913  0.1136 -0.0546 -0.0524
 8251TIP3    H146244   4.239   4.634  11.920  1.1324  1.6149 -1.1325
 8251TIP3    H246245   4.390   4.642  11.907  1.5288 -1.5549  0.7510
 8252TIP3   OH246246   3.621   6.367  17.253  0.2844  0.0500  0.5367
 8252TIP3    H146247   3.550   6.344  17.312  0.1272 -1.5701 -0.2389
 8252TIP3    H246248   3.584   6.434  17.195 -0.5031 -0.5043  0.3878
 8253TIP3   OH246249   5.718   1.837  16.927 -0.2207 -0.2750  0.6534
 8253TIP3    H146250   5.713   1.838  17.022  0.4877 -1.2940  0.7108
 8253TIP3    H246251   5.809   1.816  16.908 -0.5719 -0.9957 -0.2463
 8254TIP3   OH246252   6.687   1.792   3.536  0.4235  0.3200  0.1161
 8254TIP3    H146253   6.616   1.791   3.472 -0.2821  2.7221  0.7986
 8254TIP3    H246254   6.646   1.764   3.618  0.5756  0.3975  0.2196
 8255TIP3   OH246255   3.992   4.502   6.087  0.5779 -0.3556 -0.2853
 8255TIP3    H146256   4.067   4.543   6.045  0.9691 -0.7037  0.0655
 8255TIP3    H246257   3.957   4.442   6.021  1.0416 -0.7215 -0.2019
 8256TIP3   OH246258   5.219   6.499   4.407  0.1659 -0.1294 -0.2731
 8256TIP3    H146259   5.213   6.564   4.337 -1.2054  1.4916  1.3205
 8256TIP3    H246260   5.133   6.455   4.405  0.9762 -1.7511 -1.1483
 8257TIP3   OH246261   6.768   1.828   5.321  0.5385 -0.1971 -0.0055
 8257TIP3    H146262   6.706   1.764   5.356  1.0058 -1.0806 -0.7608
 8257TIP3    H246263   6.743   1.911   5.361 -0.6947 -0.6768  0.2332
 8258TIP3   OH246264   6.372   4.408   1.204 -0.5394 -0.1238  0.0905
 8258TIP3    H146265   6.441   4.342   1.194 -0.1885  0.1927  0.4112
 8258TIP3    H246266   6.418   4.485   1.237 -1.2167 -0.2254  1.2935
 8259TIP3   OH246267   6.424   6.298  15.846 -0.2130  0.3359  0.2139
 8259TIP3    H146268   6.402   6.380  15.892 -0.0270  1.5483 -1.7985
 8259TIP3    H246269   6.427   6.323  15.753  3.1202 -1.2365 -0.1503
 8260TIP3   OH246270   3.439   1.257   3.504 -0.4455 -0.7298 -0.4844
 8260TIP3    H146271   3.455   1.349   3.485  0.8254 -1.0154 -0.9018
 8260TIP3    H246272   3.502   1.235   3.572  0.0568 -1.5705 -1.2056
 8261TIP3   OH246273   5.958   3.567  15.263  0.4746  0.7136  0.3975
 8261TIP3    H146274   6.028   3.554  15.328  0.1812  3.1472  1.2871
 8261TIP3    H246275   5.904   3.489  15.270  1.9362 -0.2451  1.2300
 8262TIP3   OH246276   1.617   5.957   0.612 -0.3236  0.1071  0.7211
 8262TIP3    H146277   1.532   5.912   0.611 -0.1103 -0.2912 -1.2492
 8262TIP3    H246278   1.598   6.042   0.652 -1.4404 -0.3594  1.2224
 8263TIP3   OH246279   4.665   4.140   3.880  0.1012  0.5888  0.2671
 8263TIP3    H146280   4.644   4.226   3.916  1.6193  0.5936  1.2011
 8263TIP3    H246281   4.605   4.080   3.925 -0.9218  1.1490 -0.3468
 8264TIP3   OH246282   1.037   1.247  11.041  0.3326  0.8743 -0.1149
 8264TIP3    H146283   1.130   1.237  11.060 -0.1635 -0.5862  1.5569
 8264TIP3    H246284   1.029   1.337  11.007  2.3261  1.0120 -0.2437
 8265TIP3   OH246285   2.553   4.732  13.654  0.0977 -0.0517 -0.1703
 8265TIP3    H146286   2.550   4.645  13.614 -0.1987 -0.2710  0.3358
 8265TIP3    H246287   2.632   4.731  13.709  1.2818  0.7096 -1.7955
 8266TIP3   OH246288   3.810   0.005   5.070 -0.2291  0.5545 -0.1124
 8266TIP3    H146289   3.846  -0.001   5.159  0.1886  2.2509 -0.1473
 8266TIP3    H246290   3.715   0.002   5.082 -0.1613 -1.2774  0.2027
 8267TIP3   OH246291   6.665   2.295  15.086  0.4227  0.2573  0.1280
 8267TIP3    H146292   6.583   2.306  15.037  0.6834 -0.8070 -0.5722
 8267TIP3    H246293   6.669   2.371  15.143 -0.6636  0.7319 -0.4062
 8268TIP3   OH246294   0.116   5.677  14.122  0.2653 -0.0201 -0.0767
 8268TIP3    H146295   0.105   5.631  14.038 -2.4442 -0.8270  0.6729
 8268TIP3    H246296   0.197   5.728  14.111  0.6787 -1.1558 -2.6871
 8269TIP3   OH246297   4.720   6.090   5.710 -0.1238  0.3319 -0.0525
 8269TIP3    H146298   4.708   6.185   5.719 -0.2498  0.4446 -1.3761
 8269TIP3    H246299   4.710   6.073   5.617  1.0919 -0.8206  0.0084
 8270TIP3   OH246300   1.824   4.562   3.093  0.2646 -0.0746 -0.0392
 8270TIP3    H146301   1.733   4.548   3.068  0.5837 -0.3494 -1.0921
 8270TIP3    H246302   1.864   4.475   3.087  0.2010 -0.2675  2.1210
 8271TIP3   OH246303   5.920   6.646   4.176 -0.2559  0.0896 -0.5152
 8271TIP3    H146304   6.015   6.657   4.164 -0.1856 -0.6682 -0.6496
 8271TIP3    H246305   5.901   6.688   4.260 -0.1261  2.0370 -1.4223
 8272TIP3   OH246306   0.844   3.980   5.458 -0.3130  0.0814 -0.4156
 8272TIP3    H146307   0.753   3.957   5.442 -0.5658  0.6678  0.1416
 8272TIP3    H246308   0.853   4.068   5.421  0.5357 -0.7059 -2.1714
 8273TIP3   OH246309   4.346   2.693   5.269  0.2531 -0.4130  0.0004
 8273TIP3    H146310   4.289   2.691   5.346  0.3891  1.2478  0.1738
 8273TIP3    H246311   4.289   2.668   5.196 -0.2316 -0.6311  0.4492
 8274TIP3   OH246312   4.884   0.602  13.901 -0.3411 -0.1461 -0.4847
 8274TIP3    H146313   4.870   0.693  13.928 -0.3577 -0.1831 -0.3682
 8274TIP3    H246314   4.908   0.557  13.982 -0.0387 -0.1864 -0.5941
 8275TIP3   OH246315   0.526   4.471   0.006  0.0166 -0.1160  0.0662
 8275TIP3    H146316   0.533   4.516  -0.078 -0.7829  1.1773  0.6672
 8275TIP3    H246317   0.616   4.450   0.031  0.4128  1.2529 -0.1886
 8276TIP3   OH246318   2.325   5.180   5.401 -0.3792 -0.2873 -0.1253
 8276TIP3    H146319   2.242   5.143   5.370 -0.9919  1.2900 -0.4106
 8276TIP3    H246320   2.311   5.193   5.495 -0.4019 -0.1799 -0.1428
 8277TIP3   OH246321   2.034   1.589   1.141  0.3490  0.2686  0.5294
 8277TIP3    H146322   2.127   1.609   1.154  0.8409 -0.1907 -2.0314
 8277TIP3    H246323   1.989   1.639   1.210  2.4615  0.5773  1.7467
 8278TIP3   OH246324   6.255   1.809  15.736 -0.1506  0.3975 -0.1986
 8278TIP3    H146325   6.208   1.811  15.820  0.7132  1.1679  0.2714
 8278TIP3    H246326   6.323   1.742  15.749  0.5088  1.1049 -0.0003
 8279TIP3   OH246327   4.001   4.712   0.227  0.1453 -0.2890  0.0106
 8279TIP3    H146328   3.959   4.648   0.170  1.8262 -0.7190 -0.7628
 8279TIP3    H246329   4.081   4.669   0.256 -0.2286  0.2864  1.9735
 8280TIP3   OH246330   5.863   0.874   5.002  0.2024  0.1889 -0.0643
 8280TIP3    H146331   5.777   0.913   5.021  0.7062  1.6031 -0.6556
 8280TIP3    H246332   5.925   0.925   5.054  1.0374  1.0792 -1.8968
 8281TIP3   OH246333   0.368   6.753  17.173  0.1601 -0.3128 -0.0687
 8281TIP3    H146334   0.360   6.732  17.080  0.3187  0.8870 -0.3658
 8281TIP3    H246335   0.302   6.700  17.216  0.7047 -1.5616 -0.7631
 8282TIP3   OH246336   0.140   5.370  13.161 -0.1660  0.3314 -0.3437
 8282TIP3    H146337   0.163   5.380  13.068 -1.8831 -0.0355 -0.8207
 8282TIP3    H246338   0.050   5.339  13.160 -0.2058  0.3531  1.4668
 8283TIP3   OH246339   6.256   3.505  15.327  0.2924 -0.2611  0.3257
 8283TIP3    H146340   6.287   3.569  15.391 -1.5826  2.4560 -1.3530
 8283TIP3    H246341   6.258   3.553  15.243 -0.4498 -2.6505 -1.1027
 8284TIP3   OH246342   3.733   3.734   0.827 -0.0024  0.3973 -0.1666
 8284TIP3    H146343   3.725   3.669   0.897  0.4759 -0.7554 -1.1548
 8284TIP3    H246344   3.818   3.775   0.840  0.2717 -0.1208 -0.3221
 8285TIP3   OH246345   6.295   5.380   3.362  0.2500 -0.0529 -0.1509
 8285TIP3    H146346   6.237   5.449   3.393 -1.9348 -1.9216  0.0664
 8285TIP3    H246347   6.306   5.398   3.269  2.2915  2.3466  0.4747
 8286TIP3   OH246348   4.631   1.719   0.644 -0.1762 -0.3314  0.0017
 8286TIP3    H146349   4.706   1.746   0.696 -0.1099 -1.7399  0.6699
 8286TIP3    H246350   4.664   1.648   0.589 -1.2408 -1.6296  1.0045
 8287TIP3   OH246351   4.721   2.987   2.268  0.1626 -0.0072  0.0216
 8287TIP3    H146352   4.654   3.031   2.216  0.5340  0.3666 -0.1473
 8287TIP3    H246353   4.673   2.947   2.341  0.0959  2.5493  1.4213
 8288TIP3   OH246354   5.687   0.346  14.403 -0.0620  0.1774 -0.0120
 8288TIP3    H146355   5.593   0.360  14.399 -0.1008 -0.4556 -1.5218
 8288TIP3    H246356   5.705   0.334  14.497 -0.9715  3.5246  0.6644
 8289TIP3   OH246357   6.795   6.415  12.945  0.0868 -0.3472 -0.0950
 8289TIP3    H146358   6.863   6.365  12.900  0.4769  0.2025 -0.1242
 8289TIP3    H246359   6.713   6.369  12.924  0.2182  0.1201 -1.6929
 8290TIP3   OH246360   0.134   0.480  15.914 -0.3808 -0.5961 -0.8415
 8290TIP3    H146361   0.182   0.410  15.868 -0.1204 -0.2550 -1.0869
 8290TIP3    H246362   0.052   0.439  15.940 -1.6883 -0.0613 -3.9049
 8291TIP3   OH246363   4.381   2.530   6.045 -0.0557  0.0987  0.1270
 8291TIP3    H146364   4.368   2.489   6.131  1.5971  2.3479  1.5082
 8291TIP3    H246365   4.455   2.589   6.058 -0.7990  1.6576 -2.4307
 8292TIP3   OH246366   0.065   5.441  11.946  0.0526  0.2023  0.4858
 8292TIP3    H146367   0.133   5.507  11.931 -0.9596  1.0765 -0.2819
 8292TIP3    H246368   0.049   5.403  11.859 -0.8376  0.3984  0.5560
 8293TIP3   OH246369   0.341   1.335  14.312 -0.2314 -0.1932 -0.0725
 8293TIP3    H146370   0.340   1.371  14.223 -0.6081 -0.1600 -0.0576
 8293TIP3    H246371   0.264   1.373  14.354 -0.6678 -1.0407 -0.0722
 8294TIP3   OH246372   4.079   0.312  11.940  0.4847 -0.1631  0.0938
 8294TIP3    H146373   4.030   0.390  11.968  0.2465 -0.3574  0.2253
 8294TIP3    H246374   4.086   0.259  12.020 -0.1392 -0.6910 -0.1996
 8295TIP3   OH246375   2.046   1.715  13.710  0.2631 -0.3559  0.8749
 8295TIP3    H146376   2.036   1.623  13.735 -2.7651 -0.2595  0.1917
 8295TIP3    H246377   2.020   1.764  13.788 -1.5593 -0.0940  0.1260
 8296TIP3   OH246378   3.625   0.665  14.341 -0.5155 -0.2528 -0.1999
 8296TIP3    H146379   3.633   0.677  14.246 -0.4858  0.4118 -0.1083
 8296TIP3    H246380   3.634   0.570  14.353  1.0629 -0.1762 -0.7096
 8297TIP3   OH246381   5.744   0.616  14.300 -0.0428  0.4274 -0.0627
 8297TIP3    H146382   5.652   0.600  14.320 -0.6805  0.8582 -2.4748
 8297TIP3    H246383   5.783   0.529  14.296 -0.1335  0.2781  1.7884
 8298TIP3   OH246384   6.110   6.240  13.803  0.3290 -0.1369  0.0009
 8298TIP3    H146385   6.093   6.167  13.744  0.6849 -0.7164  0.6117
 8298TIP3    H246386   6.174   6.294  13.756 -0.0584 -0.1288 -0.5183
 8299TIP3   OH246387   3.895   4.587  16.800  0.2471 -0.4903  0.2263
 8299TIP3    H146388   3.808   4.570  16.836  1.1804 -3.6319  1.1866
 8299TIP3    H246389   3.950   4.603  16.877  0.8695 -0.2816 -0.2540
 8300TIP3   OH246390   0.118   6.370   0.551 -0.1009  0.1017 -0.1450
 8300TIP3    H146391   0.070   6.391   0.631 -0.7055  1.0739 -0.7496
 8300TIP3    H246392   0.050   6.366   0.483  0.5974  0.9427 -0.9099
 8301TIP3   OH246393   5.963   1.176   3.491 -0.0561 -0.0796  0.3712
 8301TIP3    H146394   5.876   1.211   3.470 -1.0467 -0.7939  3.0631
 8301TIP3    H246395   6.001   1.240   3.551  0.9817 -0.1574 -0.1845
 8302TIP3   OH246396   3.633   5.402  15.160 -0.0237 -0.0955 -0.0306
 8302TIP3    H146397   3.699   5.470  15.176  0.6431 -0.6525 -0.4129
 8302TIP3    H246398   3.571   5.444  15.100 -0.3988  0.6631  0.8808
 8303TIP3   OH246399   4.456   1.354  16.096 -0.0312  0.0298 -0.0577
 8303TIP3    H146400   4.479   1.297  16.023 -0.6094  0.5627 -0.6545
 8303TIP3    H246401   4.527   1.341  16.159 -1.2316 -2.9898  0.7767
 8304TIP3   OH246402   4.642   4.652   1.099 -0.0971 -0.3378  0.4368
 8304TIP3    H146403   4.613   4.579   1.153  0.7169 -0.0675  1.2447
 8304TIP3    H246404   4.575   4.659   1.031  0.0142 -2.0796  0.1186
 8305TIP3   OH246405   0.319   3.509   1.614  0.5317 -0.3946  0.3103
 8305TIP3    H146406   0.356   3.596   1.601  1.1700 -0.2397  2.9553
 8305TIP3    H246407   0.347   3.459   1.537  1.5955  1.2452 -0.3796
 8306TIP3   OH246408   5.773   2.984  12.619  0.4356  0.9051  0.0128
 8306TIP3    H146409   5.791   2.895  12.589 -2.1516  1.1297 -2.3718
 8306TIP3    H246410   5.677   2.989  12.622  0.5635  3.4975  0.5366
 8307TIP3   OH246411   4.527   4.810  16.653 -0.2657  0.3438 -0.3172
 8307TIP3    H146412   4.568   4.726  16.635 -0.1086  0.8780 -2.7432
 8307TIP3    H246413   4.434   4.790  16.666 -0.1592 -0.2533 -0.4686
 8308TIP3   OH246414   2.998   5.928   1.693  0.2395 -0.1268  0.6399
 8308TIP3    H146415   3.003   5.866   1.766  1.8027 -0.0079  0.6420
 8308TIP3    H246416   2.967   6.009   1.733  2.6803  0.4130  1.4907
 8309TIP3   OH246417   3.278   0.883   5.180 -0.0639 -0.6284 -0.1753
 8309TIP3    H146418   3.255   0.869   5.088 -3.1043 -0.0764  0.4327
 8309TIP3    H246419   3.348   0.820   5.198  1.1801 -0.1448 -3.0693
 8310TIP3   OH246420   1.604   5.917  15.457 -0.5667  0.3660 -0.1303
 8310TIP3    H146421   1.565   5.941  15.372  1.0314  2.7589 -0.2305
 8310TIP3    H246422   1.637   5.999  15.492  3.6871 -1.4037  0.3218
 8311TIP3   OH246423   0.051   2.842   4.411 -0.1078 -0.0377  0.3176
 8311TIP3    H146424   0.069   2.753   4.441 -0.5219 -0.7641 -1.5243
 8311TIP3    H246425  -0.006   2.879   4.479  1.8241 -0.4167  2.1722
 8312TIP3   OH246426   3.119   6.123  14.488  0.1504 -0.2270 -0.1953
 8312TIP3    H146427   3.156   6.211  14.484  0.2200 -0.2899 -1.2236
 8312TIP3    H246428   3.106   6.106  14.581 -1.9376  1.7492 -0.0767
 8313TIP3   OH246429   2.530   5.571   3.402 -0.7271 -0.1561 -0.2088
 8313TIP3    H146430   2.621   5.578   3.375 -1.3230  1.9569 -1.8206
 8313TIP3    H246431   2.493   5.503   3.346 -0.0177 -1.4375  0.8585
 8314TIP3   OH246432   0.621   4.952   2.715 -0.4602 -0.3590 -0.0205
 8314TIP3    H146433   0.649   4.877   2.663 -1.2642 -0.1713 -0.7392
 8314TIP3    H246434   0.610   4.918   2.804  0.2718 -0.8290 -0.1101
 8315TIP3   OH246435   5.532   6.725  11.256  0.2976  0.3945 -0.7009
 8315TIP3    H146436   5.478   6.788  11.208  1.1114  1.2680 -0.4775
 8315TIP3    H246437   5.575   6.673  11.189  0.0214  0.4157 -0.8925
 8316TIP3   OH246438   3.512   4.101   4.978 -0.2710 -0.1949  0.5322
 8316TIP3    H146439   3.438   4.042   4.993  0.0224 -0.8645 -0.6587
 8316TIP3    H246440   3.471   4.187   4.965 -0.7649 -0.3445  1.0336
 8317TIP3   OH246441   3.271   1.540   6.514 -0.6467 -0.6749 -0.1821
 8317TIP3    H146442   3.198   1.479   6.506 -0.7895 -0.5534  0.2029
 8317TIP3    H246443   3.328   1.501   6.581 -1.4431  0.3226  1.1015
 8318TIP3   OH246444   1.054   5.629  16.191 -0.2784  0.2098 -0.2850
 8318TIP3    H146445   1.023   5.579  16.267 -0.8727 -0.6531 -1.0805
 8318TIP3    H246446   0.976   5.646  16.140  0.2518 -0.1260 -1.2281
 8319TIP3   OH246447   4.103   4.118   6.079 -0.1210  0.3813  0.0192
 8319TIP3    H146448   4.043   4.153   6.014  1.0251 -1.1342 -1.8969
 8319TIP3    H246449   4.139   4.195   6.124 -1.1585  1.4144 -0.9089
 8320TIP3   OH246450   1.092   2.470  14.294 -0.2400 -0.5758 -0.0217
 8320TIP3    H146451   1.044   2.548  14.323  1.5159 -0.1155  1.7181
 8320TIP3    H246452   1.027   2.420  14.244 -1.7864  1.3075  0.0322
 8321TIP3   OH246453   1.852   1.699   0.842  0.5955  0.2542  0.4282
 8321TIP3    H146454   1.910   1.669   0.912  0.8426 -0.6905 -0.1663
 8321TIP3    H246455   1.894   1.669   0.762  0.0154  0.8201 -0.0969
 8322TIP3   OH246456   6.003   6.118   4.568  0.0840  0.2400 -0.3017
 8322TIP3    H146457   5.934   6.131   4.503 -0.0543 -1.8887 -0.5883
 8322TIP3    H246458   5.957   6.083   4.644  0.7121 -0.2641 -0.1563
 8323TIP3   OH246459   0.415   4.956  14.437 -0.5001 -0.1944 -0.2706
 8323TIP3    H146460   0.339   4.993  14.392 -0.4809  0.5221  0.2722
 8323TIP3    H246461   0.473   4.927  14.367 -0.6929  0.4408 -0.6969
 8324TIP3   OH246462   4.723   2.572   0.258 -0.0022 -0.2567 -0.1973
 8324TIP3    H146463   4.745   2.491   0.305  2.2345  0.4517  0.0173
 8324TIP3    H246464   4.685   2.541   0.176  0.3336 -1.5295  0.1042
 8325TIP3   OH246465   1.565   5.702  15.827 -0.0040 -0.1056  0.6603
 8325TIP3    H146466   1.636   5.697  15.891 -0.0643  0.6369  0.7888
 8325TIP3    H246467   1.610   5.708  15.742  0.0738 -2.2240  0.5302
 8326TIP3   OH246468   2.075   2.924   4.893  0.2610 -0.4185  0.5691
 8326TIP3    H146469   2.044   2.838   4.865 -0.1708  0.1890 -0.8567
 8326TIP3    H246470   2.039   2.984   4.828  0.4615  0.8567  1.6275
 8327TIP3   OH246471   3.959   3.511   2.658  1.1580  0.7290 -0.0570
 8327TIP3    H146472   4.003   3.557   2.586  0.4140 -0.7561 -1.4646
 8327TIP3    H246473   3.968   3.418   2.637  0.0512  0.3128  1.2510
 8328TIP3   OH246474   5.420   2.731  13.253 -0.3364 -0.1948 -0.2243
 8328TIP3    H146475   5.510   2.746  13.282 -0.8126  0.3952  1.0309
 8328TIP3    H246476   5.414   2.637  13.240 -0.1685 -0.5489  1.9881
 8329TIP3   OH246477   5.409   6.502   6.204  0.1663 -0.0784  0.3821
 8329TIP3    H146478   5.319   6.512   6.173  0.2759  0.5426  0.2593
 8329TIP3    H246479   5.424   6.580   6.258  0.1966 -0.8203  1.4681
 8330TIP3   OH246480   4.989   2.455  15.252 -0.5216  0.5695 -0.2361
 8330TIP3    H146481   4.929   2.384  15.276  0.7587 -0.2588  0.6010
 8330TIP3    H246482   5.066   2.410  15.217 -0.8549  1.6549 -2.4692
 8331TIP3   OH246483   1.859   2.620  16.381 -0.1049  0.1507 -0.5819
 8331TIP3    H146484   1.863   2.524  16.384  0.5371  0.2175  1.2712
 8331TIP3    H246485   1.948   2.647  16.361 -0.1016  0.3730 -0.2854
 8332TIP3   OH246486   5.131   2.017   3.272  0.2373 -0.1729 -0.2028
 8332TIP3    H146487   5.155   2.029   3.180 -1.1079 -0.4154 -0.5949
 8332TIP3    H246488   5.036   2.019   3.272  0.2269 -0.3455  1.1725
 8333TIP3   OH246489   6.115   3.001  13.103  0.6768  0.0644 -0.2240
 8333TIP3    H146490   6.185   2.985  13.167  0.0167 -2.6030 -0.0847
 8333TIP3    H246491   6.041   3.032  13.155  1.3591  1.7519 -0.2266
 8334TIP3   OH246492   2.255   4.287  13.173  0.2289 -0.0653 -0.4106
 8334TIP3    H146493   2.217   4.340  13.243  0.2785 -0.3271 -0.1839
 8334TIP3    H246494   2.319   4.232  13.218  0.4137 -0.0792 -0.6958
 8335TIP3   OH246495   2.105   6.632  14.945 -0.2757  0.2888  0.2460
 8335TIP3    H146496   2.160   6.674  14.879 -0.1600  0.2888  0.3425
 8335TIP3    H246497   2.166   6.596  15.009 -0.4373  1.4982  1.0867
 8336TIP3   OH246498   0.549   5.995  12.564  0.3963  0.0894 -0.3191
 8336TIP3    H146499   0.460   5.974  12.590  0.5886 -0.6380 -0.2577
 8336TIP3    H246500   0.592   6.022  12.645  0.8827 -1.7895  0.0653
 8337TIP3   OH246501   2.009   3.180  16.685  0.0114 -0.9357 -0.2733
 8337TIP3    H146502   1.954   3.126  16.741 -0.1220  0.1294  0.6452
 8337TIP3    H246503   2.045   3.247  16.744 -0.0191  0.1170 -1.4278
 8338TIP3   OH246504   6.404   2.684  16.337  0.0572 -0.0868 -0.3667
 8338TIP3    H146505   6.362   2.604  16.304  2.1617 -0.5684 -1.9718
 8338TIP3    H246506   6.430   2.662  16.426  1.4249 -1.5288 -1.0980
 8339TIP3   OH246507   2.758   3.159   1.184  0.1320 -0.0301 -0.1196
 8339TIP3    H146508   2.831   3.098   1.190  1.3164  1.2784 -0.8482
 8339TIP3    H246509   2.688   3.109   1.143  0.7565 -1.1819  0.1851
 8340TIP3   OH246510   4.035   2.064  17.201  0.1243 -0.0836 -0.0823
 8340TIP3    H146511   4.020   1.975  17.232 -0.4486  0.2434  0.5881
 8340TIP3    H246512   4.130   2.075  17.201  0.2021 -0.7782 -0.4055
 8341TIP3   OH246513   6.680   6.672  14.675 -0.7106 -0.8313  0.1735
 8341TIP3    H146514   6.649   6.671  14.584 -0.2598 -2.1518  0.0231
 8341TIP3    H246515   6.710   6.762  14.689 -0.7617 -0.6215 -0.9973
 8342TIP3   OH246516   2.096   5.659   6.042 -0.2831  0.4622 -0.8166
 8342TIP3    H146517   2.096   5.711   5.961  0.9648  2.3090  0.3326
 8342TIP3    H246518   2.009   5.674   6.080 -0.3964  0.6410 -1.1478
 8343TIP3   OH246519   4.381   2.032   5.480  0.0268  0.6229 -0.1554
 8343TIP3    H146520   4.341   2.055   5.396 -0.2900 -0.7894 -0.4080
 8343TIP3    H246521   4.343   2.094   5.542  1.4763  2.7449 -1.3136
 8344TIP3   OH246522   5.135   5.953   4.024  0.2971 -0.1712 -0.1577
 8344TIP3    H146523   5.097   6.028   3.979  2.2940 -0.6114 -2.6474
 8344TIP3    H246524   5.104   5.877   3.976  0.4249 -0.7995  0.7396
 8345TIP3   OH246525   4.972   1.053   5.363  0.4363 -0.5103 -0.0666
 8345TIP3    H146526   4.882   1.086   5.362 -0.0876 -1.8503  1.2218
 8345TIP3    H246527   5.001   1.060   5.272 -0.9991 -0.1124 -0.5065
 8346TIP3   OH246528   1.817   6.708   1.942 -0.0957  0.0055  0.2233
 8346TIP3    H146529   1.844   6.743   2.027  0.3940  0.3966 -0.0893
 8346TIP3    H246530   1.848   6.618   1.941 -0.9603 -0.3024  0.8535
 8347TIP3   OH246531   1.480   4.019  14.683 -0.1352  0.0987 -0.0199
 8347TIP3    H146532   1.448   3.944  14.733 -1.2183  0.5266 -0.0598
 8347TIP3    H246533   1.552   4.054  14.736 -0.6702 -0.0112  0.7792
 8348TIP3   OH246534   0.690   4.783  16.266  0.1392  0.5010 -0.4334
 8348TIP3    H146535   0.763   4.825  16.313  0.4553  2.2689 -2.4486
 8348TIP3    H246536   0.715   4.691  16.262  0.9284  0.6070  1.3429
 8349TIP3   OH246537   0.866   0.144  16.287 -0.3432  0.7117  0.0918
 8349TIP3    H146538   0.937   0.152  16.350  1.6853 -0.3072 -1.9837
 8349TIP3    H246539   0.859   0.051  16.269 -0.2763  1.0419 -1.8071
 8350TIP3   OH246540   0.839   2.047  14.552  0.9612  0.5882 -0.1782
 8350TIP3    H146541   0.792   2.109  14.607 -0.0501 -0.9756  0.7881
 8350TIP3    H246542   0.923   2.034  14.596  0.3395 -0.2995  0.7822
 8351TIP3   OH246543   1.110   4.578   0.577 -0.3973 -0.7967  0.0284
 8351TIP3    H146544   1.199   4.581   0.541 -1.1513  0.5137 -1.8641
 8351TIP3    H246545   1.060   4.526   0.513 -1.1024 -1.0993  0.8131
 8352TIP3   OH246546   4.200   6.323   1.559  0.5532  0.4895 -0.7520
 8352TIP3    H146547   4.290   6.337   1.528  0.9763  0.0203  0.2491
 8352TIP3    H246548   4.174   6.408   1.596 -0.7470  1.7364 -4.2721
 8353TIP3   OH246549   3.176   0.353  13.895 -0.0381 -0.2293  0.2811
 8353TIP3    H146550   3.184   0.436  13.849 -0.1827 -0.0086  0.6589
 8353TIP3    H246551   3.083   0.342  13.910 -0.0968 -0.8613 -0.5038
 8354TIP3   OH246552   4.425   0.904   4.005 -0.0634 -0.1368  0.3364
 8354TIP3    H146553   4.353   0.847   3.978 -0.0985 -0.1732  0.5091
 8354TIP3    H246554   4.499   0.874   3.953 -0.7958  1.6331 -1.8457
 8355TIP3   OH246555   4.710   6.695   2.014 -0.3965  0.5442  0.5917
 8355TIP3    H146556   4.639   6.740   2.058  1.8324  1.4103  3.4565
 8355TIP3    H246557   4.708   6.606   2.050 -0.5331  0.3303  0.0633
 8356TIP3   OH246558   0.059   0.694   6.293 -0.3025 -0.5893 -0.6708
 8356TIP3    H146559   0.005   0.623   6.328 -0.2618 -0.7516 -0.9399
 8356TIP3    H246560   0.007   0.732   6.223  0.0802 -0.9808 -1.1763
 8357TIP3   OH246561   0.219   1.183   3.649 -0.2930 -0.1104 -0.2093
 8357TIP3    H146562   0.176   1.142   3.725  0.0409 -0.9544 -0.4664
 8357TIP3    H246563   0.147   1.216   3.595 -0.5977 -1.0271 -0.3648
 8358TIP3   OH246564   6.542   2.623   5.444 -0.4602  0.3087  0.3961
 8358TIP3    H146565   6.614   2.615   5.507 -0.5453  0.1818  0.4765
 8358TIP3    H246566   6.578   2.679   5.375 -0.9419  1.9270  1.4132
 8359TIP3   OH246567   1.597   5.710   6.347 -0.0534 -0.0119  0.4695
 8359TIP3    H146568   1.626   5.774   6.411  0.4610  0.6720 -0.4446
 8359TIP3    H246569   1.512   5.743   6.316 -0.3787 -0.4272  0.9123
 8360TIP3   OH246570   5.103   0.973  11.915 -0.1701 -0.4679 -0.0938
 8360TIP3    H146571   5.093   0.878  11.909 -0.4439 -0.5330  1.3212
 8360TIP3    H246572   5.194   0.989  11.889  0.3541 -1.2699  1.1837
 8361TIP3   OH246573   3.210   4.198  17.277  0.4317 -0.1237  0.4669
 8361TIP3    H146574   3.306   4.200  17.273  0.4723  0.4855  1.4979
 8361TIP3    H246575   3.186   4.120  17.228  1.4783 -0.4526  0.4515
 8362TIP3   OH246576   1.473   5.245  16.888 -0.8183 -0.5654 -0.1721
 8362TIP3    H146577   1.413   5.171  16.896 -0.6315 -0.6360  0.6904
 8362TIP3    H246578   1.423   5.320  16.921  0.1810 -0.9692  2.3759
 8363TIP3   OH246579   2.785   2.860  17.092  0.2014  0.4191 -0.2693
 8363TIP3    H146580   2.726   2.790  17.121  0.3646  0.1319 -0.6364
 8363TIP3    H246581   2.849   2.817  17.036  0.3576  0.8484 -0.4248
 8364TIP3   OH246582   6.462   0.705  17.274 -0.1840 -0.4155  0.0882
 8364TIP3    H146583   6.548   0.731  17.242 -0.3651  0.4057  0.2775
 8364TIP3    H246584   6.401   0.731  17.205 -0.7183  2.4465  1.5781
 8365TIP3   OH246585   0.953   3.409   2.508  0.4771  0.1591 -0.3544
 8365TIP3    H146586   0.883   3.418   2.573 -0.9914 -0.0586 -1.8413
 8365TIP3    H246587   0.909   3.427   2.425  1.9902 -0.9710 -1.4109
 8366TIP3   OH246588   4.889   4.541  15.030  0.1327 -0.4918 -0.4473
 8366TIP3    H146589   4.877   4.534  15.125  2.2342  2.5888  0.1137
 8366TIP3    H246590   4.911   4.452  15.002 -1.0221 -1.5387  1.8651
 8367TIP3   OH246591   0.375   4.628   5.246 -0.2223 -0.1872  0.1686
 8367TIP3    H146592   0.355   4.721   5.245  2.7711  0.5181 -0.4061
 8367TIP3    H246593   0.469   4.624   5.229 -0.5220 -3.3857 -1.0205
 8368TIP3   OH246594   0.092   6.726  11.333  0.3321 -0.2963  0.1453
 8368TIP3    H146595   0.076   6.632  11.320  1.1952 -0.5287  0.7260
 8368TIP3    H246596   0.114   6.733  11.426 -0.2584  0.5585  0.2215
 8369TIP3   OH246597   6.074   6.610   2.757  0.5923 -0.1060  0.5408
 8369TIP3    H146598   6.120   6.693   2.771  0.7941  0.2051 -1.8092
 8369TIP3    H246599   6.009   6.606   2.827  2.0183  0.9994  1.9603
 8370TIP3   OH246600   6.232   5.183   1.679 -0.3081 -0.1494 -0.4857
 8370TIP3    H146601   6.141   5.160   1.697 -0.3502 -1.2257 -2.0378
 8370TIP3    H246602   6.238   5.186   1.584  1.0546  0.8685 -0.3865
 8371TIP3   OH246603   5.017   1.598  16.598  0.5383 -0.6024  0.5008
 8371TIP3    H146604   5.022   1.641  16.513  1.7322 -0.1278  0.8032
 8371TIP3    H246605   5.107   1.573  16.618  0.1627 -1.3263  1.3093
 8372TIP3   OH246606   4.049   4.946   4.969 -0.4086 -0.2299  0.1045
 8372TIP3    H146607   4.033   4.873   4.909  2.0849  0.1094 -1.0651
 8372TIP3    H246608   4.007   5.021   4.927 -3.8534 -1.0941  1.8013
 8373TIP3   OH246609   4.344   0.084   0.366  0.2482 -0.3920  0.2493
 8373TIP3    H146610   4.342   0.124   0.453  0.3868 -0.7354  0.4112
 8373TIP3    H246611   4.437   0.071   0.348  0.2189 -0.3366  0.0544
 8374TIP3   OH246612   1.035   6.444   4.964  0.1980 -0.3859 -0.3337
 8374TIP3    H146613   1.004   6.369   5.015 -0.3335  0.0864  0.0482
 8374TIP3    H246614   1.100   6.407   4.904  0.2295 -1.0836  0.1235
 8375TIP3   OH246615   4.749   3.861   5.914 -0.1157 -0.0281 -0.5034
 8375TIP3    H146616   4.699   3.903   5.845  0.8445 -2.3146 -2.6495
 8375TIP3    H246617   4.694   3.789   5.945 -0.2127  0.4976  0.5614
 8376TIP3   OH246618   3.071   3.556   5.700  0.3483  0.3487  0.4056
 8376TIP3    H146619   3.135   3.614   5.741  0.4982  0.9807 -0.7249
 8376TIP3    H246620   3.005   3.614   5.662  0.3737 -0.2127 -0.5268
 8377TIP3   OH246621   5.389   1.918   1.696  0.1252  0.3948  0.4276
 8377TIP3    H146622   5.484   1.916   1.690  0.2142 -1.6496  1.8567
 8377TIP3    H246623   5.370   1.983   1.763  0.5634  0.2848  0.6605
 8378TIP3   OH246624   4.322   5.207   2.779 -0.5029  0.1944  0.3051
 8378TIP3    H146625   4.303   5.163   2.862 -1.9948 -2.6138 -1.4612
 8378TIP3    H246626   4.360   5.139   2.724 -1.5833  1.4442 -2.0669
 8379TIP3   OH246627   2.546   0.567   0.174  0.3926  0.1132 -0.1099
 8379TIP3    H146628   2.460   0.601   0.150  0.6181  2.5960  2.3866
 8379TIP3    H246629   2.607   0.620   0.123  0.5413 -0.0813 -0.1336
 8380TIP3   OH246630   0.564   4.125  12.519 -0.0785  0.2522  0.4917
 8380TIP3    H146631   0.617   4.109  12.441 -1.7397 -0.6823 -0.4590
 8380TIP3    H246632   0.611   4.195  12.566  0.4325  1.4878 -1.7922
 8381TIP3   OH246633   3.403   3.378   1.168 -0.1113  0.3893 -0.4488
 8381TIP3    H146634   3.436   3.439   1.102 -0.4259  1.2919  0.2176
 8381TIP3    H246635   3.414   3.424   1.251  0.2300 -0.7152  0.1284
 8382TIP3   OH246636   4.239   1.322  12.445  0.1033  0.1200  0.0574
 8382TIP3    H146637   4.276   1.305  12.358 -0.2520  0.4159 -0.1529
 8382TIP3    H246638   4.239   1.237  12.488 -2.7022 -0.6840 -1.4056
 8383TIP3   OH246639   5.938   5.186  15.853 -0.7738 -0.7968  0.3928
 8383TIP3    H146640   5.995   5.221  15.785 -3.0062  1.4672 -0.3353
 8383TIP3    H246641   5.900   5.107  15.814  0.5253 -1.4010  0.2911
 8384TIP3   OH246642   3.435   5.509   4.318  0.1588  0.1205  0.1164
 8384TIP3    H146643   3.514   5.484   4.366  0.0069  0.1188  0.3657
 8384TIP3    H246644   3.457   5.493   4.226 -0.8061 -3.2390  0.4370
 8385TIP3   OH246645   0.316   5.671   5.205  1.1107  0.1125  0.2424
 8385TIP3    H146646   0.289   5.580   5.190  0.4196  0.1358  1.2982
 8385TIP3    H246647   0.373   5.692   5.130  1.3468 -1.2105  0.0408
 8386TIP3   OH246648   4.002   6.290  15.587 -0.1176 -0.4747 -0.1796
 8386TIP3    H146649   4.006   6.351  15.513  0.3564 -0.0876  0.1552
 8386TIP3    H246650   3.939   6.330  15.647 -1.4431 -1.4197 -0.9219
 8387TIP3   OH246651   1.554   4.446   5.395 -0.1624  0.1837  0.4137
 8387TIP3    H146652   1.518   4.526   5.356  0.5686  0.9458  1.2645
 8387TIP3    H246653   1.499   4.376   5.361  0.3675  0.8192 -1.9183
 8388TIP3   OH246654   6.153   2.555  16.537 -0.2629  0.2179  0.5608
 8388TIP3    H146655   6.216   2.483  16.533 -1.0179 -0.3730 -2.3524
 8388TIP3    H246656   6.069   2.513  16.517 -0.6434  1.9563 -1.6583
 8389TIP3   OH246657   4.752   1.008   1.836  0.0655 -0.0187  0.2108
 8389TIP3    H146658   4.734   1.099   1.813 -1.2034 -0.8603 -2.2381
 8389TIP3    H246659   4.707   0.994   1.919 -0.2097  1.4094  0.3031
 8390TIP3   OH246660   4.512   2.419  13.329 -0.3923 -0.6607 -0.0993
 8390TIP3    H146661   4.455   2.474  13.383 -2.5235 -1.5165 -1.4188
 8390TIP3    H246662   4.555   2.360  13.391 -0.2132  0.6111  1.0166
 8391TIP3   OH246663   0.540   0.983  15.770 -0.3644  0.5974  0.3131
 8391TIP3    H146664   0.562   0.892  15.786  1.3035  1.3237  2.3981
 8391TIP3    H246665   0.605   1.013  15.707  0.9047  1.1132  1.8502
 8392TIP3   OH246666   1.131   0.684  13.917  0.4292 -0.0128 -0.1457
 8392TIP3    H146667   1.092   0.688  13.830  1.5928  1.7446 -0.6199
 8392TIP3    H246668   1.119   0.773  13.953  0.5023 -0.5461  1.2431
 8393TIP3   OH246669   2.006   6.178   0.030  0.3306 -0.0271  0.3417
 8393TIP3    H146670   1.995   6.185   0.125 -0.6868 -2.5227  0.4562
 8393TIP3    H246671   2.097   6.153   0.019  0.8876  1.8455  0.5458
 8394TIP3   OH246672   6.379   1.821  16.658 -0.0369 -0.2195  0.1861
 8394TIP3    H146673   6.357   1.728  16.661  1.1828 -0.4876  1.2378
 8394TIP3    H246674   6.404   1.843  16.748 -1.5852  1.4490  0.2404
 8395TIP3   OH246675   1.187   2.516  14.538 -0.0531  0.3195 -0.3868
 8395TIP3    H146676   1.237   2.555  14.466 -0.6797  1.2991 -0.3020
 8395TIP3    H246677   1.120   2.463  14.495  0.5985 -0.4116 -0.5080
 8396TIP3   OH246678   1.951   5.220   5.500  0.1111  0.5265  0.0094
 8396TIP3    H146679   1.936   5.131   5.469 -1.8966  0.2175  1.7645
 8396TIP3    H246680   1.914   5.276   5.432 -0.5473 -0.0313 -0.0913
 8397TIP3   OH246681   2.432   6.718  17.128  0.1886  0.7308  0.5381
 8397TIP3    H146682   2.391   6.753  17.206 -0.7529 -0.0999  0.4277
 8397TIP3    H246683   2.360   6.677  17.079  0.9451  0.3038 -0.2349
 8398TIP3   OH246684   2.550   6.432  11.607 -0.0215  0.1078 -0.5012
 8398TIP3    H146685   2.516   6.424  11.518 -1.0875 -2.1457  0.0886
 8398TIP3    H246686   2.473   6.448  11.662  0.5309  0.6851  0.1199
 8399TIP3   OH246687   1.787   4.657   3.830  0.4178  0.4213  0.1725
 8399TIP3    H146688   1.717   4.653   3.896  1.0525 -1.5042  0.7805
 8399TIP3    H246689   1.770   4.737   3.781 -1.9859  0.1862  0.5725
 8400TIP3   OH246690   4.836   2.896  14.583 -0.6427 -0.3516  0.0754
 8400TIP3    H146691   4.753   2.872  14.624 -0.0252 -1.9936  0.3774
 8400TIP3    H246692   4.903   2.866  14.644  0.2408 -1.1953 -1.2835
 8401TIP3   OH246693   0.893   5.343  13.132  0.3521 -0.0019  0.8411
 8401TIP3    H146694   0.889   5.436  13.108 -0.4940 -0.2136  0.1841
 8401TIP3    H246695   0.987   5.324  13.133  0.4639  0.4350 -0.6467
 8402TIP3   OH246696   6.590   2.292   4.072  0.0505 -0.4062 -0.2241
 8402TIP3    H146697   6.599   2.383   4.043  0.0179 -0.3170  0.0430
 8402TIP3    H246698   6.679   2.257   4.066  0.0214 -0.4295 -0.5608
 8403TIP3   OH246699   1.378   5.933   2.892  0.2584  0.6546 -0.0484
 8403TIP3    H146700   1.381   5.964   2.802  0.3989  1.6751  0.3021
 8403TIP3    H246701   1.326   5.999   2.939  1.8030  1.1472  1.0138
 8404TIP3   OH246702   2.304   2.519  16.418 -0.1689  0.2157 -0.2407
 8404TIP3    H146703   2.328   2.488  16.505  0.4297  1.1294 -0.0724
 8404TIP3    H246704   2.388   2.533  16.374 -0.4726 -0.9974 -1.2492
 8405TIP3   OH246705   0.089   2.067   2.925  0.0563  0.4749  0.3658
 8405TIP3    H146706   0.131   2.077   2.840 -0.3359 -2.0208 -0.1557
 8405TIP3    H246707   0.160   2.071   2.988  0.5797  0.4476 -0.2225
 8406TIP3   OH246708   5.064   2.673  11.564 -0.5225  0.1699  0.0854
 8406TIP3    H146709   5.070   2.766  11.587 -0.3941  0.1369  0.1809
 8406TIP3    H246710   5.147   2.654  11.519 -0.9738  0.3670 -0.8607
 8407TIP3   OH246711   3.951   2.790   3.932 -0.0476 -0.4880 -0.4906
 8407TIP3    H146712   4.035   2.755   3.961 -0.4497 -0.8425  0.2800
 8407TIP3    H246713   3.892   2.773   4.005 -0.9013 -0.6613 -1.2160
 8408TIP3   OH246714   0.243   1.039  15.700 -0.2218 -0.2455  0.0575
 8408TIP3    H146715   0.214   1.108  15.641 -0.7640  0.6697  1.3623
 8408TIP3    H246716   0.339   1.045  15.699 -0.2073 -0.5693 -1.0973
 8409TIP3   OH246717   5.133   2.402   0.226 -0.0296  0.3386 -0.6506
 8409TIP3    H146718   5.214   2.385   0.179  2.3292  2.2498  2.5241
 8409TIP3    H246719   5.116   2.495   0.212 -0.4685  0.4393  0.5115
 8410TIP3   OH246720   0.382   6.592   0.446  0.1895 -0.0606  0.8870
 8410TIP3    H146721   0.365   6.532   0.374 -0.8267 -0.9598  1.8600
 8410TIP3    H246722   0.427   6.666   0.405  0.2051 -0.8442 -0.5542
 8411TIP3   OH246723   6.451   4.996   5.334  0.3359 -0.0337  0.3745
 8411TIP3    H146724   6.495   4.943   5.401  0.9722  0.5471  0.4147
 8411TIP3    H246725   6.467   5.087   5.360 -0.7624  0.1931  0.3118
 8412TIP3   OH246726   2.518   4.723   1.743 -0.2074  0.8836  0.6043
 8412TIP3    H146727   2.534   4.767   1.827  1.8544  3.5631 -1.0965
 8412TIP3    H246728   2.454   4.779   1.699 -0.0943  0.3659 -0.2231
 8413TIP3   OH246729   2.908   0.241  15.177  0.0339  0.4145 -0.1252
 8413TIP3    H146730   2.925   0.217  15.268  0.4696  0.8433 -0.0966
 8413TIP3    H246731   2.941   0.166  15.127 -0.4364  0.0669  0.0804
 8414TIP3   OH246732   0.232   0.988  11.205 -0.1556 -0.0632 -0.2438
 8414TIP3    H146733   0.179   0.975  11.284 -1.4284 -1.9157 -1.3720
 8414TIP3    H246734   0.264   0.901  11.182 -0.0173  0.4137 -1.9218
 8415TIP3   OH246735   1.143   2.855   0.737  0.0387 -0.0878 -0.1010
 8415TIP3    H146736   1.208   2.862   0.667  0.3504  0.6461  0.2614
 8415TIP3    H246737   1.075   2.918   0.712 -0.9058 -1.3921 -0.8734
 8416TIP3   OH246738   0.036   4.532   2.112 -0.0243 -0.4591 -0.6396
 8416TIP3    H146739   0.085   4.609   2.083  0.6469 -1.5753 -2.6032
 8416TIP3    H246740  -0.050   4.542   2.072 -0.6053  0.2380  0.7412
 8417TIP3   OH246741   6.010   1.016   2.733 -0.3454  0.4393 -0.5943
 8417TIP3    H146742   5.922   1.055   2.736 -0.2877  0.5640 -0.5659
 8417TIP3    H246743   6.051   1.042   2.816 -0.5127 -0.1552 -0.3240
 8418TIP3   OH246744   3.497   4.979  11.721  0.0212 -0.1154 -0.0987
 8418TIP3    H146745   3.510   4.886  11.704 -0.4281 -0.3099  0.6114
 8418TIP3    H246746   3.403   4.987  11.738 -0.1704  0.6713 -1.4404
 8419TIP3   OH246747   1.099   3.857  13.303 -0.2058 -0.2047 -0.0580
 8419TIP3    H146748   1.042   3.816  13.238 -0.0034  0.6900 -0.8266
 8419TIP3    H246749   1.096   3.950  13.281  3.3213 -0.3411 -1.6045
 8420TIP3   OH246750   0.893   0.827   1.507 -0.3984 -0.4823  0.0689
 8420TIP3    H146751   0.968   0.881   1.482 -0.9317 -0.5782 -1.8187
 8420TIP3    H246752   0.890   0.759   1.440  1.4456 -4.0999  3.4407
 8421TIP3   OH246753   2.338   5.859  13.160  0.1682  0.2737  0.2967
 8421TIP3    H146754   2.315   5.766  13.155  0.3779  0.3484 -2.6324
 8421TIP3    H246755   2.255   5.902  13.183  0.2836 -0.6902  2.6806
 8422TIP3   OH246756   1.493   0.802   4.840 -0.2068 -0.2219  0.8416
 8422TIP3    H146757   1.462   0.873   4.783 -0.3403 -0.5898  0.4578
 8422TIP3    H246758   1.528   0.736   4.780  0.3392 -0.2853  1.2208
 8423TIP3   OH246759   2.297   4.955  13.521  0.3816  0.1029  0.1794
 8423TIP3    H146760   2.320   5.045  13.544 -0.4790  0.0169  1.5086
 8423TIP3    H246761   2.351   4.934  13.446  1.5148  1.3066  0.6403
 8424TIP3   OH246762   0.657   0.549   0.190 -0.0695  0.1526 -0.0412
 8424TIP3    H146763   0.587   0.614   0.182  0.4404  0.7669  0.3585
 8424TIP3    H246764   0.680   0.550   0.283  1.0544  0.5855 -0.3124
 8425TIP3   OH246765   6.379   1.439   3.276 -0.2227  0.3956 -1.0767
 8425TIP3    H146766   6.328   1.464   3.199  0.8430 -1.0489 -2.2716
 8425TIP3    H246767   6.361   1.346   3.288  0.6207  0.3175 -0.3365
 8426TIP3   OH246768   2.098   5.589  13.554 -0.2596 -0.0399  0.4868
 8426TIP3    H146769   2.152   5.521  13.514 -1.6108 -0.7679 -0.0924
 8426TIP3    H246770   2.033   5.611  13.488 -0.4377  1.1441  1.0289
 8427TIP3   OH246771   3.196   1.347   0.223  0.8084 -0.0396 -0.2538
 8427TIP3    H146772   3.223   1.260   0.251  1.0364 -0.7422 -2.5834
 8427TIP3    H246773   3.254   1.368   0.150  0.2118  1.7339 -0.2417
 8428TIP3   OH246774   2.333   5.874   1.356  0.2113 -0.4832  0.0442
 8428TIP3    H146775   2.387   5.921   1.292  0.9339 -1.0237  0.2522
 8428TIP3    H246776   2.295   5.944   1.410  0.5112 -0.0827 -0.2554
 8429TIP3   OH246777   3.370   0.700  12.073  0.6032  0.3641 -0.3856
 8429TIP3    H146778   3.344   0.694  11.981  0.8865  0.6298 -0.4857
 8429TIP3    H246779   3.448   0.756  12.072  1.3650 -0.6863 -0.1366
 8430TIP3   OH246780   3.425   1.140   1.425 -0.1532  0.4014 -0.9277
 8430TIP3    H146781   3.407   1.074   1.359  0.3541  0.6681 -1.3425
 8430TIP3    H246782   3.341   1.154   1.469  0.2609 -2.1630  0.7051
 8431TIP3   OH246783   6.178   1.138  12.332  0.4287  0.6050  0.4807
 8431TIP3    H146784   6.255   1.195  12.334  0.7841  0.6961 -5.6206
 8431TIP3    H246785   6.104   1.199  12.336  0.6957  0.8546  1.8815
 8432TIP3   OH246786   0.083   4.657   3.946  0.1743 -0.1372  0.0266
 8432TIP3    H146787   0.037   4.616   4.019 -0.4751 -0.3986 -0.5315
 8432TIP3    H246788   0.158   4.700   3.987 -0.4952  0.1992  0.9279
 8433TIP3   OH246789   2.383   6.542  16.389  0.4716  0.0821 -0.5020
 8433TIP3    H146790   2.425   6.619  16.428 -0.1280  1.2492 -2.1428
 8433TIP3    H246791   2.336   6.502  16.462  2.3726  0.1479  0.8089
 8434TIP3   OH246792   6.711   5.391  13.410 -0.5200  0.5543 -0.2305
 8434TIP3    H146793   6.678   5.426  13.327 -0.0359  0.2568 -0.5546
 8434TIP3    H246794   6.695   5.460  13.474 -0.2524  1.0716 -0.7146
 8435TIP3   OH246795   5.801   4.468  15.746 -0.3170 -0.7305  0.0605
 8435TIP3    H146796   5.891   4.468  15.780 -1.6212 -2.9740  3.7561
 8435TIP3    H246797   5.802   4.402  15.676  1.2229  0.3972 -1.0367
 8436TIP3   OH246798   4.142   2.664  12.703 -0.7409  0.1355  0.4476
 8436TIP3    H146799   4.232   2.652  12.736  0.4977  2.3835 -1.9072
 8436TIP3    H246800   4.107   2.736  12.754 -0.9996 -0.3145  0.9159
 8437TIP3   OH246801   5.805   3.570   2.009  0.0933 -0.0282  0.1016
 8437TIP3    H146802   5.711   3.591   2.005  0.0820 -0.1511 -0.3061
 8437TIP3    H246803   5.813   3.513   2.085 -0.0800  0.4119  0.4532
 8438TIP3   OH246804   5.798   2.394   1.719 -0.0371 -0.1380 -0.0154
 8438TIP3    H146805   5.792   2.335   1.644 -0.8535 -1.3320  0.9658
 8438TIP3    H246806   5.876   2.365   1.767  0.6606  0.8174 -0.5491
 8439TIP3   OH246807   5.319   1.322  14.012 -0.2599 -0.0749 -0.2923
 8439TIP3    H146808   5.290   1.233  13.990 -0.3364  0.3272 -1.9120
 8439TIP3    H246809   5.259   1.350  14.082  0.0703 -1.4601  0.5692
 8440TIP3   OH246810   0.601   1.825  13.199 -0.5567 -0.2349  0.5915
 8440TIP3    H146811   0.675   1.796  13.145 -0.4741 -1.4284  1.3500
 8440TIP3    H246812   0.577   1.910  13.161  2.0801  0.8367  1.1777
 8441TIP3   OH246813   6.068   0.264  12.407 -0.7857 -0.0209  0.3317
 8441TIP3    H146814   5.979   0.228  12.415 -0.7871 -0.4292 -1.2742
 8441TIP3    H246815   6.054   0.357  12.390 -0.8554  0.2100  1.5919
 8442TIP3   OH246816   5.910   4.242   3.596  0.5900  0.5366 -0.4841
 8442TIP3    H146817   5.885   4.163   3.644 -0.0949 -0.1357 -1.8842
 8442TIP3    H246818   5.987   4.275   3.641  2.0471 -2.0167 -1.0134
 8443TIP3   OH246819   6.251   4.019   3.371 -0.2118 -0.1365 -0.3596
 8443TIP3    H146820   6.211   4.106   3.367  0.6953  0.3090  0.1677
 8443TIP3    H246821   6.226   3.985   3.457  1.1549  0.4402  0.2665
 8444TIP3   OH246822   3.450   4.918  12.241  0.5778 -0.0011 -0.1306
 8444TIP3    H146823   3.383   4.851  12.228  0.7603 -0.0428 -0.8440
 8444TIP3    H246824   3.508   4.880  12.308 -0.3827  0.2460  0.8434
 8445TIP3   OH246825   2.258   0.800  13.147 -0.5934 -0.1247  0.3509
 8445TIP3    H146826   2.227   0.889  13.166 -2.1589  0.0443 -2.7421
 8445TIP3    H246827   2.349   0.812  13.120 -1.2520  0.7501 -1.5335
 8446TIP3   OH246828   5.330   5.371  11.323  0.1326 -0.1195 -0.1023
 8446TIP3    H146829   5.393   5.441  11.305  0.2293 -0.0382  0.5491
 8446TIP3    H246830   5.259   5.387  11.261 -0.8291  1.8294  1.4286
 8447TIP3   OH246831   2.894   1.564  13.963  0.0700 -0.3013  0.3544
 8447TIP3    H146832   2.829   1.542  14.030 -0.3792 -1.7206 -0.5165
 8447TIP3    H246833   2.844   1.566  13.881  1.2062 -2.0826 -0.4319
 8448TIP3   OH246834   3.083   1.685  15.070  0.5367  0.1677  0.6128
 8448TIP3    H146835   3.025   1.745  15.022 -0.9858 -1.6723  0.0924
 8448TIP3    H246836   3.171   1.713  15.047 -0.1599  0.7151 -1.5174
 8449TIP3   OH246837   6.435   5.736  12.552  0.2445 -0.2967 -0.1258
 8449TIP3    H146838   6.482   5.691  12.482 -1.3689  0.0102 -1.4524
 8449TIP3    H246839   6.487   5.814  12.572  2.0116 -1.6721  0.7905
 8450TIP3   OH246840   5.148   5.033   1.344 -0.3250 -0.2006  0.1743
 8450TIP3    H146841   5.237   5.008   1.366 -1.2481 -1.5775  2.4580
 8450TIP3    H246842   5.120   4.969   1.278  0.6507  0.7786 -1.2167
 8451TIP3   OH246843   3.539   1.068  13.555  0.6055 -0.4451 -0.4254
 8451TIP3    H146844   3.617   1.086  13.607  0.2494 -2.0709  0.6878
 8451TIP3    H246845   3.560   0.987  13.508 -0.3068 -0.7399 -0.3293
 8452TIP3   OH246846   5.069   6.818  12.847 -0.0960  0.1805 -0.0832
 8452TIP3    H146847   4.995   6.872  12.876  0.4900  0.1065  1.5446
 8452TIP3    H246848   5.052   6.731  12.882  0.0763 -0.1828 -0.8776
 8453TIP3   OH246849   2.799   1.709  15.779  0.1171 -0.4950  0.5578
 8453TIP3    H146850   2.825   1.652  15.707  1.2340  0.3619  0.2556
 8453TIP3    H246851   2.704   1.712  15.775  0.1987  0.1830 -1.3904
 8454TIP3   OH246852   4.147   1.607   1.571  0.2665  0.7483 -0.5197
 8454TIP3    H146853   4.108   1.537   1.518 -0.6023  1.6662 -1.1225
 8454TIP3    H246854   4.226   1.633   1.523  2.0750 -1.6117  1.0765
 8455TIP3   OH246855   2.390   5.164  15.871 -0.1062  0.7439 -0.7117
 8455TIP3    H146856   2.452   5.140  15.802  0.1904  1.4084 -0.6777
 8455TIP3    H246857   2.304   5.158  15.829 -0.0284 -0.2740 -0.7313
 8456TIP3   OH246858   0.021   3.216   1.125  0.0025 -0.4554 -1.0821
 8456TIP3    H146859  -0.015   3.133   1.155  1.6604 -0.4274  1.1167
 8456TIP3    H246860  -0.045   3.250   1.064 -2.2934 -1.7540  0.5882
 8457TIP3   OH246861   6.277   2.780   3.682  0.1021  0.1194 -0.4913
 8457TIP3    H146862   6.346   2.781   3.749  0.8057 -0.4305 -1.1928
 8457TIP3    H246863   6.203   2.824   3.723 -0.1978 -2.0958  1.4449
 8458TIP3   OH246864   2.538   4.375  11.785 -0.1554 -0.0545 -0.8712
 8458TIP3    H146865   2.465   4.318  11.757 -0.8899  0.0156  0.8414
 8458TIP3    H246866   2.569   4.415  11.704  0.0567 -2.5218 -2.0579
 8459TIP3   OH246867   3.159   0.337   5.615  0.1453  0.0800  0.5593
 8459TIP3    H146868   3.154   0.243   5.598  1.0195 -0.2111  1.8762
 8459TIP3    H246869   3.069   0.362   5.635  0.2985 -0.9814  2.7250
 8460TIP3   OH246870   2.312   0.020   4.923 -0.6663 -0.0407 -1.3319
 8460TIP3    H146871   2.292   0.094   4.981 -2.5820 -1.6943  0.1872
 8460TIP3    H246872   2.234   0.011   4.868 -1.0580 -1.8358 -0.5112
 8461TIP3   OH246873   0.754   3.940  16.760  0.0677 -0.1809  0.2425
 8461TIP3    H146874   0.696   4.015  16.774  0.6660  0.2506  0.4146
 8461TIP3    H246875   0.841   3.979  16.747 -0.0663 -0.6695 -2.4041
 8462TIP3   OH246876   4.489   2.828   0.134  0.1852  0.6264 -0.0992
 8462TIP3    H146877   4.502   2.838   0.229  0.6705  2.1979 -0.3270
 8462TIP3    H246878   4.577   2.809   0.100 -0.1221 -0.8018 -0.1475
 8463TIP3   OH246879   1.536   0.090   4.973 -0.8302  0.4550 -0.5172
 8463TIP3    H146880   1.527   0.024   4.905  2.8005 -0.5460 -0.0978
 8463TIP3    H246881   1.550   0.172   4.925 -0.5292  0.1288 -0.9843
 8464TIP3   OH246882   1.680   4.075  14.852  0.8670  0.5090  0.0517
 8464TIP3    H146883   1.664   4.167  14.835  0.0144  0.7096  1.8095
 8464TIP3    H246884   1.774   4.070  14.870  1.2103  0.7614 -1.5748
 8465TIP3   OH246885   1.722   4.335  14.531 -0.4486 -0.0132  0.1416
 8465TIP3    H146886   1.671   4.255  14.524 -0.8140  0.2457 -0.1845
 8465TIP3    H246887   1.776   4.323  14.609 -0.6687 -0.4796  0.2198
 8466TIP3   OH246888   4.068   2.964  14.948 -0.3877 -0.1413  0.0209
 8466TIP3    H146889   4.100   2.989  15.034 -0.3517 -0.6044  0.1415
 8466TIP3    H246890   3.975   2.946  14.961 -0.6137  0.8075 -0.2466
 8467TIP3   OH246891   5.016   2.456  16.466  0.4154  0.3573 -0.0537
 8467TIP3    H146892   4.947   2.522  16.473  0.6252  0.8138 -1.9883
 8467TIP3    H246893   5.088   2.502  16.422  1.8517 -0.2033  1.6313
 8468TIP3   OH246894   5.882   4.361   4.559 -0.3838 -0.1745 -0.8359
 8468TIP3    H146895   5.832   4.413   4.622  0.6500 -1.5931  1.2004
 8468TIP3    H246896   5.973   4.369   4.588  0.0085 -1.5316 -1.6527
 8469TIP3   OH246897   1.655   1.844   1.492  0.4510  0.0221  0.4112
 8469TIP3    H146898   1.650   1.940   1.484  0.6582  0.0701  0.8666
 8469TIP3    H246899   1.627   1.826   1.581 -0.1919 -0.3954  0.1320
 8470TIP3   OH246900   2.740   4.904   2.419  0.2110 -0.0241  0.1180
 8470TIP3    H146901   2.748   4.808   2.419  0.4325 -0.0249  1.8104
 8470TIP3    H246902   2.751   4.929   2.511 -0.0771  1.6149 -0.2726
 8471TIP3   OH246903   0.136   6.141  12.496  0.1028  0.3341  0.7440
 8471TIP3    H146904   0.182   6.170  12.417 -0.8579  1.6697  0.6613
 8471TIP3    H246905   0.047   6.123  12.466 -0.5039  1.7321  1.7064
 8472TIP3   OH246906   1.895   3.872  12.311 -0.1290  0.3395 -0.2061
 8472TIP3    H146907   1.955   3.903  12.243  0.4595  0.9220  0.5647
 8472TIP3    H246908   1.882   3.779  12.291  1.0710  0.1958 -0.3576
 8473TIP3   OH246909   4.898   2.374  17.216 -0.4624 -0.2470 -0.3064
 8473TIP3    H146910   4.887   2.425  17.135 -2.7029  0.6340  0.5178
 8473TIP3    H246911   4.879   2.436  17.286 -0.7306 -1.5764  0.8111
 8474TIP3   OH246912   4.163   3.512   0.250 -0.6343  0.4105 -0.2338
 8474TIP3    H146913   4.224   3.547   0.315  3.1876 -2.6518 -1.9991
 8474TIP3    H246914   4.113   3.445   0.297 -0.0030  0.3245  0.3151
 8475TIP3   OH246915   4.923   3.812  13.256  0.1395 -0.5127  0.7617
 8475TIP3    H146916   4.831   3.797  13.277  0.4787 -2.7500  0.7667
 8475TIP3    H246917   4.951   3.880  13.317 -1.4790  0.1377  0.8092
 8476TIP3   OH246918   2.644   1.109   4.823  0.0879 -0.1315  0.1822
 8476TIP3    H146919   2.614   1.047   4.890 -1.3720 -0.1462 -0.4570
 8476TIP3    H246920   2.736   1.086   4.809  0.1837 -0.6755  1.5759
 8477TIP3   OH246921   2.656   1.842   4.406  0.1948 -0.2215  0.2877
 8477TIP3    H146922   2.661   1.935   4.386  2.4420 -0.4850 -0.4844
 8477TIP3    H246923   2.652   1.838   4.502 -1.4945  0.7013  0.2719
 8478TIP3   OH246924   0.615   1.114  14.229 -0.2532 -0.2647  0.4772
 8478TIP3    H146925   0.541   1.054  14.236  0.4834 -1.2840 -0.3788
 8478TIP3    H246926   0.602   1.158  14.144 -1.0658  1.1812  1.3233
 8479TIP3   OH246927   1.855   4.549   5.122 -0.1386 -0.0155 -0.0615
 8479TIP3    H146928   1.941   4.584   5.098 -0.7437  1.0391 -0.7445
 8479TIP3    H246929   1.794   4.617   5.096 -1.2035 -0.8447  0.2445
 8480TIP3   OH246930   2.542   3.109  16.234 -0.4418  0.4867 -0.1849
 8480TIP3    H146931   2.523   3.080  16.145 -1.2808  1.7773 -0.4450
 8480TIP3    H246932   2.464   3.158  16.261  0.7318  2.1357  0.3602
 8481TIP3   OH246933   1.523   1.673   4.557 -0.5259 -0.0034 -0.4523
 8481TIP3    H146934   1.428   1.673   4.546 -0.3995  1.7284 -1.7195
 8481TIP3    H246935   1.555   1.730   4.487  1.3765  0.2883  0.6369
 8482TIP3   OH246936   0.691   6.475   6.210 -0.0516  0.1475 -0.3541
 8482TIP3    H146937   0.754   6.422   6.260  0.1108  0.1602 -0.5426
 8482TIP3    H246938   0.679   6.554   6.263  1.4028  0.9085 -1.1517
 8483TIP3   OH246939   0.597   5.323   5.960 -0.5650  0.2361  0.1462
 8483TIP3    H146940   0.657   5.365   6.021 -0.3662  1.6376 -0.9771
 8483TIP3    H246941   0.609   5.229   5.975  0.7546  0.5318  1.0315
 8484TIP3   OH246942   4.097   2.553  10.670  0.0405 -0.3530 -0.1653
 8484TIP3    H146943   4.060   2.510  10.747  0.5019 -0.4029  0.0321
 8484TIP3    H246944   4.035   2.622  10.649 -1.9510 -2.5989 -1.9366
 8485TIP3   OH246945   5.597   6.241  16.379  0.5654  0.2574  1.0040
 8485TIP3    H146946   5.526   6.304  16.391 -0.2521 -0.5991  0.7336
 8485TIP3    H246947   5.669   6.275  16.432  0.4785  1.9613  0.0644
 8486TIP3   OH246948   2.314   4.995  14.281  0.1324 -0.3119 -0.6985
 8486TIP3    H146949   2.272   4.930  14.337 -0.4175  0.6621  0.0244
 8486TIP3    H246950   2.288   4.969  14.192 -2.6296  0.6823 -0.2377
 8487TIP3   OH246951   2.640   6.711  11.435  0.0294 -0.3500  0.1243
 8487TIP3    H146952   2.662   6.622  11.408 -0.2742 -0.1180 -0.9132
 8487TIP3    H246953   2.544   6.711  11.441 -0.1876  0.6179 -2.5276
 8488TIP3   OH246954   4.175   0.207  14.361  0.3318  0.2465  0.5644
 8488TIP3    H146955   4.089   0.188  14.323  0.2019 -2.8313  2.2063
 8488TIP3    H246956   4.155   0.244  14.447  0.5665 -2.0700  1.6711
 8489TIP3   OH246957   6.003   4.092   4.708 -0.7918 -0.1213  0.0721
 8489TIP3    H146958   5.922   4.087   4.758 -1.1134 -1.5441 -0.5335
 8489TIP3    H246959   6.072   4.084   4.773 -1.1370  0.8459  0.5675
 8490TIP3   OH246960   0.884   4.373  14.342  0.1376  0.2543 -0.2623
 8490TIP3    H146961   0.800   4.351  14.300  0.9048 -1.0932 -1.1410
 8490TIP3    H246962   0.861   4.394  14.432 -1.3591  1.6593 -0.9453
 8491TIP3   OH246963   1.818   2.201  17.033 -0.1841  0.0377 -0.4679
 8491TIP3    H146964   1.872   2.270  16.995 -0.7422  1.5480  1.4048
 8491TIP3    H246965   1.876   2.155  17.093 -0.4400  0.3940  0.0565
 8492TIP3   OH246966   3.415   2.792   2.407 -0.4744  0.0531 -0.4472
 8492TIP3    H146967   3.378   2.880   2.399 -0.8746 -0.1558 -0.9358
 8492TIP3    H246968   3.475   2.798   2.481 -1.9610  0.2541  0.7784
 8493TIP3   OH246969   4.182   3.855   2.291 -0.1000 -0.0178 -0.5644
 8493TIP3    H146970   4.184   3.859   2.387  0.6769 -1.5497 -0.4885
 8493TIP3    H246971   4.152   3.941   2.264  0.6647  0.7765  1.0293
 8494TIP3   OH246972   4.350   1.049  14.797  1.0220  0.1604  0.0584
 8494TIP3    H146973   4.359   1.012  14.709  0.4485 -2.5635  1.1094
 8494TIP3    H246974   4.396   0.987  14.854 -1.4941  0.1300  2.1077
 8495TIP3   OH246975   2.053   4.095   1.768 -0.3892  0.7323  0.2166
 8495TIP3    H146976   1.976   4.091   1.825 -0.3528 -1.7081  0.1459
 8495TIP3    H246977   2.084   4.004   1.763  0.1886  1.0361 -2.8948
 8496TIP3   OH246978   0.627   1.490  15.824 -0.6144 -0.1869 -0.0101
 8496TIP3    H146979   0.585   1.405  15.833  3.4221 -2.2623  0.4906
 8496TIP3    H246980   0.645   1.517  15.914  1.1062 -0.4090 -0.2762
 8497TIP3   OH246981   0.218   0.462  13.519 -0.0020 -0.2117 -0.3050
 8497TIP3    H146982   0.219   0.526  13.447 -0.3349  1.0220  0.7657
 8497TIP3    H246983   0.310   0.449  13.541  0.1618 -1.3395 -1.5864
 8498TIP3   OH246984   0.741   6.521  15.317 -0.2787 -0.5388 -0.3772
 8498TIP3    H146985   0.825   6.564  15.331  0.2456 -1.2804 -1.2464
 8498TIP3    H246986   0.728   6.468  15.395  0.0400 -0.3938 -0.2234
 8499TIP3   OH246987   6.150   2.634  15.463  0.2372 -0.9711  0.0571
 8499TIP3    H146988   6.069   2.622  15.414  0.1226 -0.1909  0.0481
 8499TIP3    H246989   6.121   2.657  15.551  0.4405 -0.4127 -0.0154
 8500TIP3   OH246990   1.339   0.391  14.064  0.0048  0.1870 -0.2789
 8500TIP3    H146991   1.246   0.388  14.042  0.1128  2.1622 -1.0064
 8500TIP3    H246992   1.361   0.299  14.081 -2.2674 -0.2156  0.7560
 8501TIP3   OH246993   3.240   4.505  15.986  0.4460  0.0073  0.6770
 8501TIP3    H146994   3.205   4.433  15.932 -0.5457  1.2121 -0.3223
 8501TIP3    H246995   3.334   4.504  15.969  0.1614  0.2916 -1.0155
 8502TIP3   OH246996   5.873   2.902  13.307  0.1036  0.0617 -0.2751
 8502TIP3    H146997   5.892   2.990  13.341  1.2215  0.6653 -2.3721
 8502TIP3    H246998   5.778   2.893  13.316  0.0397  1.2853  0.4159
 8503TIP3   OH246999   6.434   0.311  16.028  0.0177 -0.4614  0.2510
 8503TIP3    H147000   6.372   0.238  16.031 -0.4608 -0.0382  1.1014
 8503TIP3    H247001   6.405   0.369  16.099 -0.1261  0.9671 -0.9581
 8504TIP3   OH247002   0.326   0.262  10.318  0.4431  0.0720  0.3049
 8504TIP3    H147003   0.395   0.319  10.283  0.6178  0.3786  1.1359
 8504TIP3    H247004   0.244   0.304  10.291  0.5705  0.7604  0.9688
 8505TIP3   OH247005   4.173   0.011   0.692 -0.2077  0.5309  0.8928
 8505TIP3    H147006   4.081   0.022   0.668 -0.0624  0.2346  0.1969
 8505TIP3    H247007   4.171  -0.009   0.786 -0.8993 -0.2233  0.7234
 8506TIP3   OH247008   1.377   5.815   3.968  0.3130 -0.1165  0.3434
 8506TIP3    H147009   1.312   5.860   4.022 -0.4067  0.4131 -0.9363
 8506TIP3    H247010   1.451   5.876   3.964 -0.1125  0.3710 -0.2464
 8507TIP3   OH247011   4.421   1.271   0.422  0.1065  0.6407  0.2048
 8507TIP3    H147012   4.366   1.255   0.499 -1.3397 -2.2453 -1.3535
 8507TIP3    H247013   4.511   1.267   0.454 -0.4749  3.4495  2.4264
 8508TIP3   OH247014   4.762   2.319  15.891  0.1977 -0.2060  0.2876
 8508TIP3    H147015   4.807   2.366  15.821 -2.0038  0.5441 -0.6768
 8508TIP3    H247016   4.780   2.371  15.970  0.6542  0.3182 -0.1522
 8509TIP3   OH247017   3.783   1.840   1.223 -0.1448 -0.2786  0.3440
 8509TIP3    H147018   3.713   1.846   1.289 -1.0107  0.0487 -0.5768
 8509TIP3    H247019   3.736   1.846   1.140  0.7963 -2.0667 -0.3308
 8510TIP3   OH247020   0.783   0.334  15.831  0.2813 -0.0802 -0.4112
 8510TIP3    H147021   0.762   0.282  15.908 -0.9012  2.8144  1.3072
 8510TIP3    H247022   0.702   0.336  15.780  0.7447 -1.0808 -1.2095
 8511TIP3   OH247023   6.764   0.285   4.446 -0.2942  0.2445 -0.5031
 8511TIP3    H147024   6.757   0.197   4.484  0.8492 -0.5719 -2.1318
 8511TIP3    H247025   6.770   0.343   4.521 -1.2212 -1.0614  0.6007
 8512TIP3   OH247026   3.825   3.244   2.621 -0.3633  0.1715 -0.4049
 8512TIP3    H147027   3.806   3.228   2.713 -0.6493 -1.1245 -0.6756
 8512TIP3    H247028   3.753   3.299   2.591 -0.2809  0.5791  0.1484
 8513TIP3   OH247029   4.283   6.474  11.398  0.5505 -0.0415  0.1183
 8513TIP3    H147030   4.338   6.551  11.407 -0.1912  0.4413  0.5604
 8513TIP3    H247031   4.287   6.432  11.484  1.6236 -0.9638 -0.3615
 8514TIP3   OH247032   4.883   4.956  12.318  0.1002  0.6682 -0.0738
 8514TIP3    H147033   4.808   4.998  12.278 -1.1309  0.7428  2.2323
 8514TIP3    H247034   4.856   4.865  12.330  0.3247  0.7241  0.8807
 8515TIP3   OH247035   0.650   6.261   4.855  0.1641  0.1884  0.0685
 8515TIP3    H147036   0.697   6.320   4.797  0.2200  1.5280  1.4561
 8515TIP3    H247037   0.562   6.299   4.862  0.0913 -0.0764  0.6844
 8516TIP3   OH247038   3.867   0.210   1.011  0.1252 -0.1291  0.1150
 8516TIP3    H147039   3.796   0.242   1.067 -1.5914  0.7986 -2.5280
 8516TIP3    H247040   3.864   0.115   1.021  0.9453  0.0974  2.8633
 8517TIP3   OH247041   3.304   4.933   0.742  0.5195  0.1808  0.0673
 8517TIP3    H147042   3.332   5.024   0.742  1.1866 -0.0181 -0.3352
 8517TIP3    H247043   3.305   4.908   0.649 -0.3801 -0.0173  0.1074
 8518TIP3   OH247044   2.934   4.088   4.315 -0.0698 -0.3719 -0.3818
 8518TIP3    H147045   2.968   4.126   4.234  1.6822  0.5892  0.7805
 8518TIP3    H247046   2.895   4.162   4.362 -1.1335 -0.9305 -0.3669
 8519TIP3   OH247047   3.810   1.217  12.180 -0.1331  0.0651  0.5247
 8519TIP3    H147048   3.742   1.284  12.185  0.8678  1.0886  0.5151
 8519TIP3    H247049   3.827   1.208  12.086  2.2999  2.4455  0.6744
 8520TIP3   OH247050   5.724   2.252   1.483  0.0281  0.0200 -0.0047
 8520TIP3    H147051   5.676   2.181   1.526  0.3888  0.3745  0.9846
 8520TIP3    H247052   5.696   2.247   1.391 -1.6815  0.0224  0.4964
 8521TIP3   OH247053   6.664   4.892   0.638  0.3065 -0.4150  0.0996
 8521TIP3    H147054   6.609   4.813   0.629 -0.3433 -0.1144  1.3076
 8521TIP3    H247055   6.660   4.933   0.552 -4.0343  1.3067  0.9694
 8522TIP3   OH247056   6.594   5.820   1.260  0.2536 -0.0613 -0.3935
 8522TIP3    H147057   6.687   5.842   1.263 -0.1808  1.8474 -0.2132
 8522TIP3    H247058   6.567   5.816   1.351  0.1919 -0.8230 -0.4409
 8523TIP3   OH247059   2.327   2.729   1.613 -0.4712  0.1168 -0.2319
 8523TIP3    H147060   2.408   2.713   1.661 -1.5252  2.1310  2.3054
 8523TIP3    H247061   2.302   2.643   1.579  0.2012 -1.4412  3.0258
 8524TIP3   OH247062   4.244   6.246   5.377 -0.3866  0.0535  0.0417
 8524TIP3    H147063   4.208   6.326   5.413 -0.2731  0.5513 -0.9225
 8524TIP3    H247064   4.301   6.275   5.305 -0.8931 -0.9214 -0.7695
 8525TIP3   OH247065   0.547   0.629  15.040  0.0749 -0.5346  0.1745
 8525TIP3    H147066   0.605   0.699  15.011 -1.2515  0.2044 -0.7417
 8525TIP3    H247067   0.489   0.670  15.105  0.3716 -1.1971  0.8789
 8526TIP3   OH247068   4.984   6.666   4.694 -0.1995 -0.0911 -0.2007
 8526TIP3    H147069   4.908   6.674   4.636 -1.4901 -1.0576  1.2920
 8526TIP3    H247070   5.052   6.628   4.639 -1.6537 -1.7668 -0.9263
 8527TIP3   OH247071   3.693   4.128   5.373 -0.1134 -0.4551  0.0306
 8527TIP3    H147072   3.770   4.090   5.330  1.2385  0.2881  1.7350
 8527TIP3    H247073   3.713   4.122   5.466 -1.2177  1.6184  0.4213
 8528TIP3   OH247074   6.379   4.454  10.957  0.0245 -0.0730  0.3465
 8528TIP3    H147075   6.431   4.530  10.982 -0.9004  0.3738  0.9472
 8528TIP3    H247076   6.302   4.491  10.913 -0.5125 -0.6523  0.7915
 8529TIP3   OH247077   6.550   2.526   1.613 -0.3643 -0.3429 -0.2190
 8529TIP3    H147078   6.478   2.463   1.611  0.2607 -1.0736 -0.3019
 8529TIP3    H247079   6.624   2.478   1.575 -0.3275  1.0280 -1.9577
 8530TIP3   OH247080   1.500   2.510   3.387  0.1313 -0.3484  0.1102
 8530TIP3    H147081   1.451   2.533   3.466  0.5091 -1.2625  0.6130
 8530TIP3    H247082   1.580   2.469   3.419  1.5598  1.7171 -0.6879
 8531TIP3   OH247083   0.963   2.099   1.488 -0.2736 -0.2162 -0.1473
 8531TIP3    H147084   0.873   2.109   1.457  0.0271 -1.1808 -1.3944
 8531TIP3    H247085   1.010   2.062   1.413  0.8277 -1.1542  0.9760
 8532TIP3   OH247086   6.402   2.500   4.522 -0.0161 -0.0990 -0.1240
 8532TIP3    H147087   6.377   2.578   4.473  0.9638  1.5456  1.9235
 8532TIP3    H247088   6.497   2.496   4.516  0.1701  0.4307  2.0259
 8533TIP3   OH247089   1.790   0.440  16.017 -0.1427  0.0870  0.3589
 8533TIP3    H147090   1.696   0.425  16.027 -0.3218  0.1682 -1.1147
 8533TIP3    H247091   1.829   0.353  16.028 -0.5276 -0.2055 -0.5879
 8534TIP3   OH247092   1.296   3.608   3.377  0.1277  0.5108  0.0291
 8534TIP3    H147093   1.303   3.564   3.461  1.4449  0.6543 -0.0011
 8534TIP3    H247094   1.207   3.644   3.376 -0.8767 -1.9136  0.1476
 8535TIP3   OH247095   0.656   0.136  14.232 -0.1264 -0.7585  0.5438
 8535TIP3    H147096   0.640   0.054  14.185 -0.8292 -0.5575  0.4378
 8535TIP3    H247097   0.739   0.167  14.196  1.7543 -2.9548  2.7410
 8536TIP3   OH247098   6.012   2.469  13.729 -0.4893  0.6531 -0.2850
 8536TIP3    H147099   5.917   2.479  13.731 -0.6224 -0.6094  0.1729
 8536TIP3    H247100   6.043   2.544  13.679 -1.6954  1.3201 -0.0435
 8537TIP3   OH247101   6.007   4.333  11.787 -1.0988 -0.0935  0.0608
 8537TIP3    H147102   6.083   4.344  11.730 -1.7471 -2.6561 -1.4054
 8537TIP3    H247103   6.032   4.374  11.869  1.5351 -0.1051 -0.6890
 8538TIP3   OH247104   0.263   1.618   3.741  0.2468  0.2073 -0.0181
 8538TIP3    H147105   0.198   1.682   3.770 -0.1197 -0.3488  0.3827
 8538TIP3    H247106   0.273   1.558   3.814 -1.1176 -1.5488 -1.2402
 8539TIP3   OH247107   6.085   5.733   4.731 -0.0848 -0.2719 -0.4507
 8539TIP3    H147108   6.066   5.802   4.794  1.6220 -0.0919 -0.1039
 8539TIP3    H247109   6.113   5.659   4.784  1.1895 -0.1787 -0.9793
 8540TIP3   OH247110   1.390   6.094   2.624  0.2038  0.8001  0.0240
 8540TIP3    H147111   1.442   6.117   2.547 -1.5739  0.4631 -1.3165
 8540TIP3    H247112   1.303   6.130   2.605 -0.8145 -1.1149  0.9266
 8541TIP3   OH247113   1.707   3.412   6.229 -0.1785 -0.2000  0.0333
 8541TIP3    H147114   1.640   3.351   6.260  0.3675 -0.5620  0.5123
 8541TIP3    H247115   1.785   3.359   6.217 -0.4359 -0.0926 -2.2105
 8542TIP3   OH247116   3.601   3.860   5.124  0.5206  0.2171  0.0418
 8542TIP3    H147117   3.630   3.951   5.126  1.3609 -0.0643  0.8695
 8542TIP3    H247118   3.507   3.864   5.142 -0.0333  1.1517 -2.8788
 8543TIP3   OH247119   5.214   4.602  15.425  0.0173 -0.2239 -0.4729
 8543TIP3    H147120   5.263   4.609  15.507  0.2571 -1.6451 -0.4905
 8543TIP3    H247121   5.269   4.646  15.360  0.7004 -0.7462 -0.2455
 8544TIP3   OH247122   0.598   6.449   2.307  0.1443 -0.1334  0.9370
 8544TIP3    H147123   0.605   6.427   2.399  0.2132 -1.2842  0.6592
 8544TIP3    H247124   0.604   6.366   2.261 -0.3535  0.3760 -0.0849
 8545TIP3   OH247125   0.638   5.523  16.487 -0.0774  0.1695  0.2167
 8545TIP3    H147126   0.606   5.613  16.481 -0.7413 -0.1108 -0.4816
 8545TIP3    H247127   0.589   5.486  16.560  0.7839  0.6089  1.0321
 8546TIP3   OH247128   2.342   2.640   4.916 -0.4334 -0.9515  0.4678
 8546TIP3    H147129   2.362   2.729   4.945 -1.5124 -1.5244  3.1215
 8546TIP3    H247130   2.336   2.646   4.821  1.4950  1.3918  0.4483
 8547TIP3   OH247131   3.220   5.717   2.633  0.3614  0.2247 -0.1353
 8547TIP3    H147132   3.167   5.796   2.646 -0.0754 -0.0649 -0.1331
 8547TIP3    H247133   3.190   5.657   2.701 -1.5482 -1.0899 -2.0579
 8548TIP3   OH247134   1.187   0.899   2.305 -0.6157 -0.1399 -0.6877
 8548TIP3    H147135   1.280   0.881   2.322 -1.2022 -0.6560  2.2306
 8548TIP3    H247136   1.186   0.989   2.273  0.7104  0.5983  1.2544
 8549TIP3   OH247137   5.462   0.573   0.073  0.2303 -0.0473  0.2996
 8549TIP3    H147138   5.532   0.626   0.037 -0.9878  1.0489 -0.5228
 8549TIP3    H247139   5.422   0.531  -0.004  0.1010 -0.7883  0.7707
 8550TIP3   OH247140   0.240   2.209   3.130 -0.2250  0.2617  0.4818
 8550TIP3    H147141   0.250   2.174   3.218 -0.9343 -0.3890  0.3016
 8550TIP3    H247142   0.159   2.260   3.133 -2.1647 -2.6623 -0.7230
 8551TIP3   OH247143   6.621   4.976   5.559  0.0177  0.3489  0.2589
 8551TIP3    H147144   6.546   4.954   5.614  0.8564 -2.0748  0.4864
 8551TIP3    H247145   6.677   5.029   5.616 -0.7449  0.7967  0.6068
 8552TIP3   OH247146   4.271   1.029  12.453  0.5938 -0.6199 -0.3994
 8552TIP3    H147147   4.229   0.971  12.515  0.3546 -2.8004 -2.5228
 8552TIP3    H247148   4.204   1.046  12.386  0.8150  1.7245 -0.0604
 8553TIP3   OH247149   5.955   4.897  12.747 -0.3440 -0.7954  0.5379
 8553TIP3    H147150   5.873   4.850  12.759 -0.2862 -0.7718  1.0663
 8553TIP3    H247151   5.997   4.855  12.672 -0.1893 -1.7451  1.1460
 8554TIP3   OH247152   5.725   2.602   4.353 -0.2806  0.0008  0.1832
 8554TIP3    H147153   5.801   2.625   4.301  0.4555 -1.0342  0.7785
 8554TIP3    H247154   5.756   2.607   4.444 -0.8300 -0.7285  0.4145
 8555TIP3   OH247155   3.572   4.240  10.814 -0.3563  0.2683 -0.0972
 8555TIP3    H147156   3.523   4.321  10.822 -1.2940 -0.2621 -0.3176
 8555TIP3    H247157   3.594   4.216  10.904 -3.6874 -1.3692  0.3948
 8556TIP3   OH247158   6.128   1.614   4.367 -0.2983  0.4920 -0.3259
 8556TIP3    H147159   6.066   1.684   4.389  1.7671  2.2236  0.1540
 8556TIP3    H247160   6.165   1.640   4.283  1.3798  0.6411  0.4358
 8557TIP3   OH247161   5.707   0.957  14.965 -0.0938  1.1706  0.4159
 8557TIP3    H147162   5.652   0.879  14.969  1.7644 -0.1189  1.2110
 8557TIP3    H247163   5.755   0.957  15.048  0.2532  2.9300  0.2409
 8558TIP3   OH247164   5.358   6.491  11.742  0.3068 -0.3124  0.3905
 8558TIP3    H147165   5.312   6.526  11.666  3.3332 -1.4987 -2.1130
 8558TIP3    H247166   5.385   6.568  11.791 -1.4304  0.4894  0.1164
 8559TIP3   OH247167   0.882   6.727   0.103 -0.3188  0.0887 -0.2097
 8559TIP3    H147168   0.966   6.762   0.075  0.5843 -1.5377  0.4496
 8559TIP3    H247169   0.866   6.651   0.047  0.4969 -1.9004  2.1678
 8560TIP3   OH247170   2.055   1.326  15.953  0.1060  0.0588 -0.0175
 8560TIP3    H147171   2.072   1.329  15.859 -1.9820 -0.3564 -0.4282
 8560TIP3    H247172   1.981   1.386  15.966 -0.3385 -0.7392  1.1943
 8561TIP3   OH247173   6.523   5.283  13.849  0.6781  0.4457 -0.1768
 8561TIP3    H147174   6.563   5.259  13.766 -2.6099 -2.0549 -1.1260
 8561TIP3    H247175   6.513   5.201  13.896 -1.8061  1.1691  0.6675
 8562TIP3   OH247176   0.409   0.777  11.128 -0.2206 -0.3816 -0.2754
 8562TIP3    H147177   0.458   0.707  11.085  0.7346 -0.0308  0.2389
 8562TIP3    H247178   0.469   0.852  11.127 -0.9085  0.1757 -0.0334
 8563TIP3   OH247179   5.857   0.903  14.117  0.5383  0.2478 -0.1557
 8563TIP3    H147180   5.948   0.878  14.130  0.4705 -0.0193 -0.2054
 8563TIP3    H247181   5.810   0.820  14.108  0.3855  0.3965 -0.7571
 8564TIP3   OH247182   0.252   1.659   0.063 -0.7516  0.0752 -0.6063
 8564TIP3    H147183   0.324   1.640   0.003  0.6854  1.6626  0.5814
 8564TIP3    H247184   0.239   1.753   0.057 -0.8439  0.1994  1.2917
 8565TIP3   OH247185   3.766   1.153   2.813  0.2046  0.4324  0.3217
 8565TIP3    H147186   3.818   1.074   2.801  0.2888  0.3895  0.9429
 8565TIP3    H247187   3.677   1.121   2.831  0.5485  0.4381  2.0897
 8566TIP3   OH247188   1.168   2.653   2.635 -0.3871  0.3098  0.4990
 8566TIP3    H147189   1.176   2.644   2.730  2.4293  3.6228  0.6866
 8566TIP3    H247190   1.118   2.734   2.623 -0.3217  0.1702 -0.8080
 8567TIP3   OH247191   3.823   1.701  12.879  0.1995  0.1971 -0.6420
 8567TIP3    H147192   3.757   1.753  12.926  0.3107  0.9128 -1.2665
 8567TIP3    H247193   3.774   1.656  12.811  0.0554 -0.7598  0.0849
 8568TIP3   OH247194   1.648   1.767   4.274  0.4304 -0.2663 -0.0520
 8568TIP3    H147195   1.681   1.759   4.185 -1.5331  0.5650 -0.8659
 8568TIP3    H247196   1.668   1.857   4.300  1.2258 -0.5796  0.4661
 8569TIP3   OH247197   3.157   2.921  14.218 -0.4988 -0.4236 -0.2667
 8569TIP3    H147198   3.235   2.900  14.270 -0.3092  0.7818 -0.0676
 8569TIP3    H247199   3.084   2.888  14.269 -0.2623  0.1509  0.4398
 8570TIP3   OH247200   3.971   6.100  13.231  0.3941  0.1428 -0.9045
 8570TIP3    H147201   3.955   6.027  13.171  0.3355  0.2359 -1.0011
 8570TIP3    H247202   4.013   6.060  13.307 -1.8962 -0.3884  0.1197
 8571TIP3   OH247203   2.997   6.103  15.969 -0.2556 -0.3890  0.0971
 8571TIP3    H147204   2.953   6.181  16.004  0.3730  0.4464 -0.9454
 8571TIP3    H247205   3.047   6.135  15.894 -0.0616 -1.8150 -0.4060
 8572TIP3   OH247206   5.516   4.457   5.384  0.1764 -0.3377 -0.6098
 8572TIP3    H147207   5.580   4.393   5.353 -0.4884 -1.0517 -0.5238
 8572TIP3    H247208   5.467   4.482   5.306  0.3695  0.0000 -0.6256
 8573TIP3   OH247209   4.920   0.457  15.169 -0.4517 -0.7453  0.2054
 8573TIP3    H147210   4.945   0.538  15.124 -3.4116 -0.4472 -1.0626
 8573TIP3    H247211   4.932   0.477  15.262  0.8556  0.4249 -0.2011
 8574TIP3   OH247212   5.707   3.193  13.712  0.2102 -0.2262 -0.9143
 8574TIP3    H147213   5.714   3.099  13.727 -0.8304 -0.6582 -3.0828
 8574TIP3    H247214   5.613   3.211  13.712  0.2570  0.1870 -4.1246
 8575TIP3   OH247215   6.166   5.720  12.495  0.1445  0.2975  0.2834
 8575TIP3    H147216   6.260   5.734  12.509  0.0577 -0.5322  1.7321
 8575TIP3    H247217   6.153   5.626  12.510 -0.9785  0.4585  0.3618
 8576TIP3   OH247218   1.819   5.472   4.097  0.1623  0.6198  0.0462
 8576TIP3    H147219   1.797   5.407   4.163  0.6197 -0.2315 -0.6248
 8576TIP3    H247220   1.734   5.506   4.068 -0.1130 -0.1980 -0.1153
 8577TIP3   OH247221   3.340   2.686   2.691  0.4141  0.0989  0.1259
 8577TIP3    H147222   3.311   2.644   2.773 -0.4050  1.2460  0.4373
 8577TIP3    H247223   3.408   2.628   2.658 -0.3782 -1.2578  0.7798
 8578TIP3   OH247224   4.022   6.279   4.481 -0.2429 -0.8855 -0.5484
 8578TIP3    H147225   3.989   6.359   4.439  1.8813 -0.0037 -0.6257
 8578TIP3    H247226   4.021   6.213   4.412  0.8098 -0.1150 -1.3178
 8579TIP3   OH247227   0.867   1.455   0.696 -0.5384  0.2783 -0.8493
 8579TIP3    H147228   0.803   1.521   0.724 -1.8236 -1.2005 -0.2461
 8579TIP3    H247229   0.925   1.445   0.771 -0.4215  0.6256 -0.8919
 8580TIP3   OH247230   2.232   0.861  16.833 -0.2149  0.4504  0.0897
 8580TIP3    H147231   2.190   0.799  16.893 -0.1951 -0.1627 -0.5219
 8580TIP3    H247232   2.184   0.943  16.845 -0.8037  0.0820  0.2791
 8581TIP3   OH247233   1.866   5.247   6.197 -0.1002 -1.0804 -0.1356
 8581TIP3    H147234   1.852   5.324   6.252  1.0244 -0.9789  0.0185
 8581TIP3    H247235   1.945   5.206   6.232  0.4592 -1.1902 -1.4622
 8582TIP3   OH247236   3.239   3.948  13.135  0.2234  0.1756  0.0850
 8582TIP3    H147237   3.261   3.890  13.063  0.9445 -0.7371  1.0333
 8582TIP3    H247238   3.144   3.960  13.128 -0.1143 -2.0246  0.5464
 8583TIP3   OH247239   2.041   2.140  12.115 -0.1861 -0.1351  0.0769
 8583TIP3    H147240   2.090   2.198  12.057 -0.6820 -1.7271 -2.0153
 8583TIP3    H247241   1.965   2.191  12.141  1.5575  1.6775  1.8099
 8584TIP3   OH247242   1.505   0.513   5.761 -0.2542  0.2208 -0.6077
 8584TIP3    H147243   1.502   0.581   5.828  0.0545  0.6847 -1.0600
 8584TIP3    H247244   1.413   0.493   5.743 -0.3340 -0.2854  0.3278
 8585TIP3   OH247245   0.092   3.964   2.254  0.0505 -0.4118 -0.1691
 8585TIP3    H147246   0.124   4.027   2.189 -1.7762  0.5605 -0.1797
 8585TIP3    H247247   0.092   4.013   2.336  0.6223 -1.0649  0.2218
 8586TIP3   OH247248   6.007   2.889   1.569 -0.1851  0.3747  0.3644
 8586TIP3    H147249   5.932   2.862   1.622 -0.1021  1.1577  0.8956
 8586TIP3    H247250   6.041   2.967   1.614 -0.8257  1.7694 -1.4684
 8587TIP3   OH247251   0.909   1.868  13.541 -0.3683 -0.1864 -0.3317
 8587TIP3    H147252   0.815   1.854  13.553 -0.2974 -0.2847  0.1317
 8587TIP3    H247253   0.915   1.934  13.472 -0.9606  4.0731  3.4436
 8588TIP3   OH247254   1.720   0.910  16.324 -0.1191  0.3445  0.1838
 8588TIP3    H147255   1.792   0.863  16.282  1.2929  2.3203  0.3338
 8588TIP3    H247256   1.746   0.918  16.416 -0.2052  1.6197  0.1083
 8589TIP3   OH247257   4.405   6.743   2.753  0.3191  0.5135 -0.0745
 8589TIP3    H147258   4.398   6.668   2.693 -1.0265  0.4740  0.1093
 8589TIP3    H247259   4.499   6.754   2.767  0.5654 -0.6621 -0.7065
 8590TIP3   OH247260   5.472   6.292   2.919  0.5777  0.5928 -0.5241
 8590TIP3    H147261   5.462   6.376   2.963  1.5055  1.2388 -1.4969
 8590TIP3    H247262   5.388   6.248   2.930  0.3724  1.2907  0.7236
 8591TIP3   OH247263   2.070   5.855   5.452  0.2131 -0.3073  0.7284
 8591TIP3    H147264   2.092   5.948   5.462 -1.3453  0.0898  0.6146
 8591TIP3    H247265   2.152   5.809   5.470  1.1645  1.1180  0.1044
 8592TIP3   OH247266   4.587   4.015   1.614 -0.3069  0.5281  0.3554
 8592TIP3    H147267   4.602   4.049   1.526 -0.2192  3.3596  1.3876
 8592TIP3    H247268   4.671   3.977   1.639  0.4017  1.8475  0.0717
 8593TIP3   OH247269   3.464   6.059  11.133 -0.5185 -0.3680  0.5920
 8593TIP3    H147270   3.508   6.137  11.099  0.4251 -1.9127 -1.8406
 8593TIP3    H247271   3.532   6.011  11.179 -0.8650 -0.3009  1.1883
 8594TIP3   OH247272   3.598   4.549   1.057 -0.1820 -0.2250 -0.0067
 8594TIP3    H147273   3.518   4.576   1.102  0.2890  0.5861  0.3633
 8594TIP3    H247274   3.595   4.453   1.057 -0.0536 -0.2499  2.0255
 8595TIP3   OH247275   1.180   3.410   1.593  0.0139 -0.0209  0.1170
 8595TIP3    H147276   1.222   3.436   1.675 -0.9625  2.3913 -0.1136
 8595TIP3    H247277   1.092   3.382   1.619  0.2455 -0.8285  0.0629
 8596TIP3   OH247278   5.260   1.242   0.373 -0.1495 -1.1111 -0.1674
 8596TIP3    H147279   5.325   1.172   0.375  0.0510 -0.9167  0.3760
 8596TIP3    H247280   5.310   1.322   0.389 -0.1140 -0.6152 -2.5498
 8597TIP3   OH247281   1.660   3.539  14.097 -0.2223  0.2212  1.0212
 8597TIP3    H147282   1.692   3.517  14.009  0.1140 -0.0457  1.2075
 8597TIP3    H247283   1.713   3.485  14.155 -0.7542  0.0700  1.3603
 8598TIP3   OH247284   5.216   6.734  16.805 -0.1768 -0.3555  0.1346
 8598TIP3    H147285   5.171   6.651  16.822 -1.8276  0.8562  1.7932
 8598TIP3    H247286   5.266   6.751  16.885 -0.3547  0.5763  0.0489
 8599TIP3   OH247287   6.736   5.751  14.283 -0.0526  0.0280  0.2661
 8599TIP3    H147288   6.746   5.846  14.278 -2.8037  0.2989 -1.3620
 8599TIP3    H247289   6.800   5.717  14.221 -0.5699  0.9706 -0.8079
 8600TIP3   OH247290   2.703   1.384  14.895 -0.1061  0.3835  0.1514
 8600TIP3    H147291   2.672   1.338  14.817 -1.6068 -0.0764  1.0100
 8600TIP3    H247292   2.717   1.315  14.960  0.6612  0.8191  0.4642
 8601TIP3   OH247293   6.392   2.344  14.757 -0.1926 -0.0461 -0.3757
 8601TIP3    H147294   6.440   2.268  14.724  1.1729  0.5884  0.1427
 8601TIP3    H247295   6.381   2.328  14.850  0.3578  0.5360 -0.2097
 8602TIP3   OH247296   3.443   5.720   1.253 -0.1408 -0.2663 -0.9579
 8602TIP3    H147297   3.431   5.784   1.323  0.7449 -0.9260 -0.1969
 8602TIP3    H247298   3.535   5.729   1.227 -0.1409 -0.8813 -1.1822
 8603TIP3   OH247299   1.722   1.452   1.280 -0.3589 -0.0636 -0.5033
 8603TIP3    H147300   1.711   1.405   1.198 -0.9539  0.6596 -0.8437
 8603TIP3    H247301   1.767   1.391   1.338 -0.7146 -0.8775 -1.0928
 8604TIP3   OH247302   6.085   1.332   5.265  0.0379 -1.0545  0.8117
 8604TIP3    H147303   6.134   1.375   5.336  0.9682 -1.5449  0.4634
 8604TIP3    H247304   5.994   1.359   5.280  0.7373  1.9390 -0.0190
 8605TIP3   OH247305   0.538   2.009  13.780  0.0105  0.1921  0.1633
 8605TIP3    H147306   0.526   2.058  13.861  1.6077  0.1017  0.4761
 8605TIP3    H247307   0.578   2.072  13.720 -1.3746  0.3245 -0.6444
 8606TIP3   OH247308   2.638   0.316   0.210  0.3366  0.5665 -0.5391
 8606TIP3    H147309   2.586   0.267   0.146  1.0987  0.4382 -1.0637
 8606TIP3    H247310   2.599   0.404   0.209  1.4857  1.0929 -2.5357
 8607TIP3   OH247311   0.857   4.850   0.179 -0.2103 -0.2494  0.5804
 8607TIP3    H147312   0.839   4.943   0.168 -0.1381 -0.5007 -2.0980
 8607TIP3    H247313   0.938   4.846   0.228  0.7327  1.1628 -0.8190
 8608TIP3   OH247314   0.005   5.030   1.050 -0.1983  0.6367  0.6499
 8608TIP3    H147315   0.009   5.038   1.146  1.0623  1.0616  0.5746
 8608TIP3    H247316   0.054   5.106   1.018  0.9435 -0.4869 -0.3061
 8609TIP3   OH247317   1.985   3.058  11.304  0.5436  0.4611  0.2655
 8609TIP3    H147318   1.991   3.011  11.221  0.3557  0.7809  0.0739
 8609TIP3    H247319   1.944   2.995  11.363  1.5391 -0.1080  0.3744
 8610TIP3   OH247320   1.415   6.246  11.759  0.0268 -0.2638 -0.0910
 8610TIP3    H147321   1.336   6.253  11.706 -0.8125 -0.5947  1.0924
 8610TIP3    H247322   1.429   6.335  11.792 -0.2420 -0.3491  0.2520
 8611TIP3   OH247323   5.542   4.867   5.426 -0.2340  0.2996 -0.1512
 8611TIP3    H147324   5.590   4.836   5.349  0.4344  1.7833 -0.3559
 8611TIP3    H247325   5.480   4.797   5.445  1.1990 -1.1508 -0.6039
 8612TIP3   OH247326   4.025   1.245   4.134 -0.3003  0.1360  0.0991
 8612TIP3    H147327   4.045   1.180   4.066  1.6135  0.3905  0.3830
 8612TIP3    H247328   4.041   1.198   4.216 -1.3075  0.2368  0.3582
 8613TIP3   OH247329   1.901   4.787  12.629  0.3965  0.0204  0.6645
 8613TIP3    H147330   1.884   4.790  12.723  1.4370  0.5856  0.8522
 8613TIP3    H247331   1.870   4.871  12.595  0.4229 -0.0030  0.5799
 8614TIP3   OH247332   3.141   2.463   4.892  0.1649 -0.1080  0.1117
 8614TIP3    H147333   3.197   2.409   4.837 -1.2043 -0.0275 -1.3705
 8614TIP3    H247334   3.159   2.553   4.863  0.6175  0.0670  0.9029
 8615TIP3   OH247335   4.870   4.226  16.516 -0.0548  0.7678  0.2283
 8615TIP3    H147336   4.908   4.303  16.473 -1.3425  0.9054 -0.6682
 8615TIP3    H247337   4.836   4.173  16.444  1.5208 -1.0349  0.7854
 8616TIP3   OH247338   5.826   4.386  11.547 -0.1241  0.2475 -0.1614
 8616TIP3    H147339   5.859   4.475  11.537  1.0530  0.2709  3.5240
 8616TIP3    H247340   5.902   4.330  11.532 -0.3224 -0.0534 -0.0540
 8617TIP3   OH247341   3.374   6.383  11.344  0.1434  0.0137  0.2207
 8617TIP3    H147342   3.282   6.384  11.315  0.4005  1.4284 -0.5684
 8617TIP3    H247343   3.369   6.397  11.438 -0.3082  3.5516 -0.2890
 8618TIP3   OH247344   2.665   2.116   6.027 -0.3865  0.4397  0.0082
 8618TIP3    H147345   2.664   2.072   5.942 -0.2510 -0.5160  0.4878
 8618TIP3    H247346   2.740   2.176   6.022  1.1746 -1.4100  0.3173
 8619TIP3   OH247347   1.519   4.441  17.093  0.0098 -0.1521  0.0532
 8619TIP3    H147348   1.430   4.440  17.059 -0.0724  0.1028  0.2484
 8619TIP3    H247349   1.527   4.528  17.134  0.6911  0.2281 -0.8707
 8620TIP3   OH247350   1.669   1.639   5.826 -0.0098  0.2976  0.0786
 8620TIP3    H147351   1.633   1.601   5.906 -0.0068 -1.9231 -0.9414
 8620TIP3    H247352   1.629   1.589   5.755  1.7392  0.7034 -1.2303
 8621TIP3   OH247353   2.363   5.414   0.797 -0.0578  0.1389  0.3360
 8621TIP3    H147354   2.335   5.382   0.712  1.5058  0.0588 -0.1667
 8621TIP3    H247355   2.458   5.420   0.790 -0.1770  3.7037  0.7934
 8622TIP3   OH247356   6.282   3.961  12.482 -0.4006  0.8452  0.9252
 8622TIP3    H147357   6.363   3.997  12.444  0.2233 -0.2224  1.1949
 8622TIP3    H247358   6.213   4.021  12.454  0.4776  1.7091  0.5931
 8623TIP3   OH247359   3.759   3.725   5.361  0.0995 -0.6889 -0.3849
 8623TIP3    H147360   3.731   3.764   5.278 -1.1710  0.1876  0.4275
 8623TIP3    H247361   3.677   3.702   5.405  0.7361 -0.4868  0.9280
 8624TIP3   OH247362   0.307   5.955   2.577  0.2383  0.7145  0.0945
 8624TIP3    H147363   0.217   5.977   2.599 -0.1998 -1.8766  1.1003
 8624TIP3    H247364   0.360   6.017   2.627 -0.9597  3.6590 -2.1697
 8625TIP3   OH247365   1.947   4.740  11.167 -0.2602 -0.6700 -0.1468
 8625TIP3    H147366   1.880   4.788  11.120 -0.7765 -0.4551  0.8041
 8625TIP3    H247367   2.019   4.802  11.178 -1.2739  0.2014  1.8615
 8626TIP3   OH247368   5.136   0.232  13.687  0.0002  0.1239 -0.1965
 8626TIP3    H147369   5.072   0.240  13.758 -1.0944  0.1863 -1.1801
 8626TIP3    H247370   5.179   0.318  13.685  0.1401  0.0745  0.4843
 8627TIP3   OH247371   4.837   0.150   6.282  0.7363  0.4687 -0.0107
 8627TIP3    H147372   4.827   0.131   6.188 -2.9417  0.1338  0.3749
 8627TIP3    H247373   4.776   0.221   6.299  0.8318  0.0383  2.2931
 8628TIP3   OH247374   4.283   1.046   1.739 -0.6908 -0.1655  0.2502
 8628TIP3    H147375   4.197   1.087   1.741 -0.8558 -0.4731 -0.4925
 8628TIP3    H247376   4.335   1.102   1.681 -0.6150 -0.4007  0.0871
 8629TIP3   OH247377   2.882   2.571   3.850  0.4969  0.0394 -0.2446
 8629TIP3    H147378   2.971   2.603   3.832  0.8169 -0.3257  0.6687
 8629TIP3    H247379   2.832   2.648   3.873  0.6863  0.1856 -0.3221
 8630TIP3   OH247380   2.419   3.048  14.577 -0.5814 -0.1599 -0.2400
 8630TIP3    H147381   2.407   3.057  14.483 -0.2837 -0.2739 -0.2897
 8630TIP3    H247382   2.339   3.083  14.615 -1.2249 -1.2582 -0.5748
 8631TIP3   OH247383   4.434   3.956   3.732 -0.1209  0.0414  0.2866
 8631TIP3    H147384   4.367   3.890   3.715 -0.6598  0.4255  0.9005
 8631TIP3    H247385   4.516   3.915   3.705 -0.3306 -1.2335  1.5481
 8632TIP3   OH247386   3.153   6.228   0.467 -0.2150  0.0554 -0.3240
 8632TIP3    H147387   3.180   6.218   0.558  0.6598 -0.1115 -0.5917
 8632TIP3    H247388   3.236   6.231   0.418 -0.6114  1.8492 -0.9285
 8633TIP3   OH247389   2.787   4.455   2.671  0.2692  0.3506  0.8933
 8633TIP3    H147390   2.874   4.477   2.639  0.1194  1.1843  1.0428
 8633TIP3    H247391   2.740   4.539   2.671 -0.8756 -0.2679 -0.2608
 8634TIP3   OH247392   4.746   5.994  13.541 -0.4262 -0.0998 -0.2782
 8634TIP3    H147393   4.654   5.975  13.523 -0.4750 -0.6036  0.4596
 8634TIP3    H247394   4.788   5.908  13.545  0.1549  0.1490 -1.0268
 8635TIP3   OH247395   6.271   4.158   2.027  0.2838  0.1911 -0.0227
 8635TIP3    H147396   6.248   4.068   2.001 -1.8416  0.5843  0.3540
 8635TIP3    H247397   6.365   4.156   2.042  0.4130 -1.7489 -0.9481
 8636TIP3   OH247398   4.442   1.148  15.888  0.7865  0.2257 -0.3701
 8636TIP3    H147399   4.355   1.137  15.852  1.0750  0.1085 -1.0297
 8636TIP3    H247400   4.461   1.064  15.931  0.1882  0.5861  0.6292
 8637TIP3   OH247401   2.453   1.483   5.646  0.1438  0.4998 -0.1364
 8637TIP3    H147402   2.501   1.465   5.726  0.7243  0.8696 -0.3974
 8637TIP3    H247403   2.491   1.422   5.582  2.2715  2.7530 -1.0827
 8638TIP3   OH247404   2.690   2.454  13.825  0.1191  0.3590 -0.1477
 8638TIP3    H147405   2.770   2.444  13.877 -0.1659 -2.6934 -0.2500
 8638TIP3    H247406   2.620   2.428  13.884 -0.8183  2.5954 -0.2040
 8639TIP3   OH247407   3.168   6.672   2.697 -0.0037 -0.7847  0.9244
 8639TIP3    H147408   3.143   6.620   2.621  0.2271 -2.1170  1.7454
 8639TIP3    H247409   3.228   6.616   2.746  1.6909  0.9555  0.8984
 8640TIP3   OH247410   0.352   2.861  14.588  0.2844  0.2297 -0.0166
 8640TIP3    H147411   0.417   2.902  14.645 -0.5981  2.5692 -0.6419
 8640TIP3    H247412   0.298   2.809  14.648  2.4656 -1.4773  0.5498
 8641TIP3   OH247413   5.560   0.723  16.543  0.0353  0.0074  0.5689
 8641TIP3    H147414   5.626   0.663  16.507 -1.6896 -0.8487 -1.2873
 8641TIP3    H247415   5.608   0.803  16.562  1.9199 -1.1349  0.7634
 8642TIP3   OH247416   1.843   0.705   0.648 -1.0151 -0.2053  0.1823
 8642TIP3    H147417   1.806   0.617   0.640 -2.2371  0.3300 -0.1994
 8642TIP3    H247418   1.769   0.764   0.632 -0.3940  0.9001  1.3058
 8643TIP3   OH247419   3.713   5.273   6.482  0.4726 -0.5017 -0.7874
 8643TIP3    H147420   3.749   5.272   6.393  1.2740  1.9410 -0.5233
 8643TIP3    H247421   3.622   5.301   6.471  0.7168  0.2949 -0.7975
 8644TIP3   OH247422   4.356   1.424   3.633  0.0135  0.4406  0.2041
 8644TIP3    H147423   4.309   1.506   3.620 -1.5473 -0.5392 -0.4617
 8644TIP3    H247424   4.431   1.429   3.574 -0.9317  0.7241 -0.9665
 8645TIP3   OH247425   5.315   1.578   0.465 -0.3118 -0.3108  0.1899
 8645TIP3    H147426   5.336   1.577   0.371 -1.8092 -2.3715 -0.1742
 8645TIP3    H247427   5.219   1.586   0.467 -0.3755 -1.2978  1.5083
 8646TIP3   OH247428   0.146   5.691  13.814 -0.4924  0.2095  0.4714
 8646TIP3    H147429   0.097   5.769  13.788 -3.3575 -1.5402  0.4792
 8646TIP3    H247430   0.182   5.656  13.732 -1.5416 -0.0108  0.1022
 8647TIP3   OH247431   4.794   3.319  16.632 -0.1508 -0.3316  0.0020
 8647TIP3    H147432   4.703   3.317  16.663 -0.5143 -0.4454 -1.0251
 8647TIP3    H247433   4.846   3.340  16.709 -1.1673  0.8891  0.3701
 8648TIP3   OH247434   4.596   1.773  14.066  0.2266  0.4793  0.4578
 8648TIP3    H147435   4.536   1.700  14.083  0.5574 -0.3024 -1.5718
 8648TIP3    H247436   4.669   1.759  14.126 -0.0177 -0.4876  0.5285
 8649TIP3   OH247437   6.745   0.658  16.293 -0.2284 -0.1330  0.2408
 8649TIP3    H147438   6.713   0.749  16.287 -0.2585  0.0837  3.0392
 8649TIP3    H247439   6.667   0.605  16.277 -0.2748  0.3106 -1.1176
 8650TIP3   OH247440   4.604   0.087   3.474  0.3527  0.3616  0.3660
 8650TIP3    H147441   4.618   0.013   3.415 -2.6286  0.0530 -0.0713
 8650TIP3    H247442   4.581   0.160   3.416 -3.5545 -0.1828  1.0519
 8651TIP3   OH247443   2.980   3.358  16.564  0.1969 -0.5006  0.3057
 8651TIP3    H147444   3.013   3.426  16.505  0.4834 -0.3790  0.6054
 8651TIP3    H247445   3.058   3.318  16.601  0.0623 -1.9376 -0.9304
 8652TIP3   OH247446   5.370   5.691  11.454 -0.4189 -0.2236 -0.6243
 8652TIP3    H147447   5.394   5.618  11.511  0.1380  0.3811 -0.0557
 8652TIP3    H247448   5.281   5.673  11.426 -1.9581  1.0682  3.1060
 8653TIP3   OH247449   5.330   0.737  16.731  0.0917 -0.0139  0.7098
 8653TIP3    H147450   5.385   0.722  16.654  0.0943  0.2133  0.6684
 8653TIP3    H247451   5.241   0.721  16.700  0.0638  0.4032  0.5770
 8654TIP3   OH247452   1.178   4.216  10.739  0.2956  0.2003  0.9365
 8654TIP3    H147453   1.254   4.160  10.722  1.4043  1.7221  0.8196
 8654TIP3    H247454   1.109   4.155  10.765  1.7635 -1.1444  1.7552
 8655TIP3   OH247455   0.189   3.813   5.051 -0.4985 -0.0809  0.0386
 8655TIP3    H147456   0.178   3.900   5.012  0.4430  0.5702  1.2147
 8655TIP3    H247457   0.248   3.768   4.991  0.3946  0.6882  0.3255
 8656TIP3   OH247458   0.296   0.795  13.462  0.2587 -0.0722 -0.0208
 8656TIP3    H147459   0.219   0.809  13.517  0.1095 -0.4656 -0.1299
 8656TIP3    H247460   0.364   0.767  13.524  0.2485  0.0305  0.0393
 8657TIP3   OH247461   6.802   1.288  13.213  0.1529 -0.1426 -0.4007
 8657TIP3    H147462   6.715   1.270  13.249  0.5521 -0.7643  0.2747
 8657TIP3    H247463   6.852   1.209  13.232  1.1341  0.5795  0.0463
 8658TIP3   OH247464   2.425   2.818  11.415 -0.3973 -0.1213 -0.1735
 8658TIP3    H147465   2.449   2.836  11.506  0.6781  0.1026 -0.4927
 8658TIP3    H247466   2.406   2.904  11.378  0.4204 -0.0721 -0.4996
 8659TIP3   OH247467   0.911   2.030   0.598  0.4502  0.4487  0.3872
 8659TIP3    H147468   0.925   1.997   0.687  0.4819  2.5422  1.2006
 8659TIP3    H247469   0.978   2.098   0.588 -1.1471  1.9490 -0.3060
 8660TIP3   OH247470   4.616   3.186   6.341 -0.4180 -0.4479 -0.5256
 8660TIP3    H147471   4.691   3.127   6.351 -0.5677 -0.8049 -1.4602
 8660TIP3    H247472   4.654   3.274   6.347  0.1735 -0.6233 -1.6694
 8661TIP3   OH247473   4.733   0.235  11.200  0.2806  0.4792  0.4350
 8661TIP3    H147474   4.796   0.197  11.139  0.5377  0.5561  0.6483
 8661TIP3    H247475   4.670   0.166  11.217 -1.0991  1.1683 -1.6956
 8662TIP3   OH247476   2.437   1.864  11.925 -0.2694  0.3243  0.2590
 8662TIP3    H147477   2.403   1.953  11.914 -0.6276 -0.0394 -1.6962
 8662TIP3    H247478   2.532   1.876  11.933 -0.3257  0.9057  0.0995
 8663TIP3   OH247479   5.093   5.513   5.943  0.1184 -0.1976 -1.0733
 8663TIP3    H147480   5.129   5.507   6.032 -1.3926 -1.3242 -0.5155
 8663TIP3    H247481   5.034   5.438   5.936 -2.2858  1.7109 -1.8828
 8664TIP3   OH247482   4.588   1.463   3.492  0.1198  0.0739  0.2121
 8664TIP3    H147483   4.645   1.540   3.489  0.0148  0.1962  1.0295
 8664TIP3    H247484   4.619   1.407   3.422  1.5275 -0.0570  0.9139
 8665TIP3   OH247485   2.992   0.496  11.295  0.1822  0.1917 -0.0304
 8665TIP3    H147486   2.914   0.522  11.246  1.0792  0.4469 -1.3261
 8665TIP3    H247487   3.065   0.523  11.241  1.2123  1.1383  1.7993
 8666TIP3   OH247488   0.558   5.328   1.498 -0.1778  0.0355  0.1483
 8666TIP3    H147489   0.628   5.313   1.562  0.4216  1.3826 -0.1687
 8666TIP3    H247490   0.567   5.255   1.437 -0.6793 -1.1977  1.5176
 8667TIP3   OH247491   5.946   0.416  14.342  0.7063  0.3358 -0.0092
 8667TIP3    H147492   5.910   0.355  14.406 -0.9880  1.2423 -0.0713
 8667TIP3    H247493   5.999   0.477  14.394  0.0486  0.5406  0.4278
 8668TIP3   OH247494   6.516   2.830  16.952  0.0553  0.4233 -0.5201
 8668TIP3    H147495   6.598   2.792  16.920  2.1766  2.7163  2.0333
 8668TIP3    H247496   6.500   2.905  16.894 -0.3098 -0.0610 -1.0578
 8669TIP3   OH247497   5.702   2.223   6.557  0.0907 -0.0834  0.3052
 8669TIP3    H147498   5.637   2.293   6.558 -0.4694 -0.5987  1.9193
 8669TIP3    H247499   5.775   2.257   6.608  0.4899 -0.0557 -0.2877
 8670TIP3   OH247500   2.747   0.262   1.784  0.1084 -0.5369 -0.3413
 8670TIP3    H147501   2.733   0.210   1.704 -0.6359 -0.1977 -0.4341
 8670TIP3    H247502   2.840   0.284   1.782  0.2914 -1.3264 -0.6326
 8671TIP3   OH247503   3.409   0.608  13.872  0.1250  0.1137  0.2103
 8671TIP3    H147504   3.495   0.646  13.853  0.2075  0.1926  0.7396
 8671TIP3    H247505   3.365   0.606  13.787  0.2364  1.0987  0.1191
 8672TIP3   OH247506   3.436   5.654   0.665 -0.3873 -0.1434 -0.1014
 8672TIP3    H147507   3.450   5.583   0.603 -0.0330  0.8773 -1.1963
 8672TIP3    H247508   3.365   5.706   0.627 -1.7617 -0.7805  1.4860
 8673TIP3   OH247509   4.959   3.100   4.670  0.1528  0.0571 -0.2216
 8673TIP3    H147510   5.011   3.175   4.641 -0.8009  0.3468 -1.2000
 8673TIP3    H247511   4.905   3.077   4.594 -0.2428 -1.0297  0.3769
 8674TIP3   OH247512   0.686   6.770   2.521  0.0976 -0.0294  0.4235
 8674TIP3    H147513   0.638   6.750   2.441  0.2217 -2.2429  0.8584
 8674TIP3    H247514   0.765   6.815   2.491 -0.5917  0.5526 -0.5620
 8675TIP3   OH247515   1.445   2.492  17.161 -0.0022  0.1424  0.1364
 8675TIP3    H147516   1.515   2.557  17.152 -0.0462  0.2792  0.7626
 8675TIP3    H247517   1.401   2.516  17.242 -0.6825 -0.0355 -0.1754
 8676TIP3   OH247518   1.561   4.659   5.696  0.2439  0.2403 -0.1134
 8676TIP3    H147519   1.553   4.710   5.615 -0.3415  0.7587  0.2669
 8676TIP3    H247520   1.510   4.580   5.679 -0.5180  0.6952  0.0181
 8677TIP3   OH247521   3.696   5.604   4.699  0.2486  0.2046  0.0093
 8677TIP3    H147522   3.604   5.620   4.719  0.4549 -0.8746  1.9572
 8677TIP3    H247523   3.695   5.558   4.614 -1.1857 -1.9765  1.1607
 8678TIP3   OH247524   5.323   1.243  17.235  0.5607 -0.3141  1.0320
 8678TIP3    H147525   5.333   1.168  17.176 -0.6661 -0.4452  0.9940
 8678TIP3    H247526   5.231   1.268  17.227  0.9944  1.3186  0.8936
 8679TIP3   OH247527   4.264   3.754  12.185 -0.0732  0.3367  0.3450
 8679TIP3    H147528   4.199   3.815  12.223 -0.6235  0.3773 -0.6523
 8679TIP3    H247529   4.309   3.806  12.118  3.0939  1.2421  3.0365
 8680TIP3   OH247530   2.235   4.434   3.372 -0.4434  0.0329  0.1012
 8680TIP3    H147531   2.190   4.350   3.368  0.9089 -0.6660 -1.1833
 8680TIP3    H247532   2.173   4.496   3.334 -1.3716 -0.4290  0.8581
 8681TIP3   OH247533   4.446   4.026   4.595  0.2942  0.3948 -0.1852
 8681TIP3    H147534   4.495   4.034   4.676 -3.4330 -2.9749  2.5872
 8681TIP3    H247535   4.378   4.093   4.602 -0.3853 -0.2847 -0.2336
 8682TIP3   OH247536   4.522   4.638  12.144  0.6241  0.7931  0.0543
 8682TIP3    H147537   4.437   4.651  12.186 -0.1304  2.2629 -1.8743
 8682TIP3    H247538   4.534   4.543  12.144 -0.4964  0.6352  1.3463
 8683TIP3   OH247539   6.130   4.048   2.243  0.1588 -0.2606  0.1891
 8683TIP3    H147540   6.139   4.106   2.168  0.7372  0.8263  1.0753
 8683TIP3    H247541   6.035   4.037   2.253  0.0360  0.7341  0.1583
 8684TIP3   OH247542   3.484   2.423   4.685  0.3272 -0.1697  0.6032
 8684TIP3    H147543   3.559   2.365   4.702  0.6744 -0.6669 -2.3803
 8684TIP3    H247544   3.408   2.364   4.688  0.6520 -0.7798 -2.1366
 8685TIP3   OH247545   2.893   0.489   5.780 -0.0233  0.4192  0.1576
 8685TIP3    H147546   2.891   0.451   5.692 -0.2838  1.8193 -0.4554
 8685TIP3    H247547   2.837   0.432   5.832 -0.2216 -0.1673 -0.6871
 8686TIP3   OH247548   4.204   5.527   0.787 -0.2782 -0.5373  0.3040
 8686TIP3    H147549   4.149   5.458   0.751 -2.2520  0.6047  1.0774
 8686TIP3    H247550   4.258   5.483   0.853  0.2297 -1.7883 -0.9168
 8687TIP3   OH247551   2.445   6.355  17.192  0.3223 -0.5954  0.0375
 8687TIP3    H147552   2.470   6.263  17.188  0.5011 -0.5497  0.1075
 8687TIP3    H247553   2.392   6.369  17.113  0.0747 -0.8224  0.1621
 8688TIP3   OH247554   6.294   2.922  14.881  0.0550  0.3225  0.0748
 8688TIP3    H147555   6.334   2.876  14.807  0.8141 -1.5861  1.6331
 8688TIP3    H247556   6.200   2.904  14.873 -0.0732  1.4823 -1.3073
 8689TIP3   OH247557   5.429   5.961   2.936 -0.2671  0.3777 -0.2994
 8689TIP3    H147558   5.457   5.945   3.026  2.0693  1.6657 -0.7653
 8689TIP3    H247559   5.344   6.003   2.944 -0.3751 -0.1241  1.2772
 8690TIP3   OH247560   5.232   4.793  16.971 -0.2807 -0.3453 -0.5469
 8690TIP3    H147561   5.228   4.889  16.981  1.4177 -0.2651 -0.5476
 8690TIP3    H247562   5.191   4.760  17.051  1.3985  0.3884  0.6511
 8691TIP3   OH247563   5.825   2.592   3.117 -0.0293 -0.1479 -0.4358
 8691TIP3    H147564   5.887   2.663   3.135 -0.3932  0.3668 -1.1830
 8691TIP3    H247565   5.740   2.635   3.114 -0.5591 -1.0093  1.5549
 8692TIP3   OH247566   1.826   3.578  14.411 -0.1312  0.5497  0.0044
 8692TIP3    H147567   1.848   3.544  14.497  0.2981  0.3433 -0.1864
 8692TIP3    H247568   1.796   3.667  14.427 -2.3238 -0.2693  0.6333
 8693TIP3   OH247569   4.822   6.786  13.034  0.0640 -0.5623 -0.8773
 8693TIP3    H147570   4.871   6.729  13.094 -0.1772  1.8603  1.7397
 8693TIP3    H247571   4.734   6.749  13.033  0.4417 -1.4726 -0.8615
 8694TIP3   OH247572   5.289   0.718   5.259 -0.0639 -0.0135 -0.1017
 8694TIP3    H147573   5.292   0.771   5.339 -2.5892 -0.9912  0.7110
 8694TIP3    H247574   5.379   0.691   5.245  0.4048 -0.0457  2.5952
 8695TIP3   OH247575   3.462   1.392   2.371 -0.3126  0.1850 -0.0358
 8695TIP3    H147576   3.368   1.406   2.383 -0.5996 -0.1364 -1.7138
 8695TIP3    H247577   3.502   1.421   2.453 -1.7276  1.8114  0.0987
 8696TIP3   OH247578   3.003   2.557  13.546  0.2104 -0.3203  0.0557
 8696TIP3    H147579   2.966   2.513  13.470  1.7757 -0.1315 -0.8562
 8696TIP3    H247580   3.016   2.487  13.610 -0.1577 -0.6598 -0.2367
 8697TIP3   OH247581   3.052   5.357  11.107 -0.8745  0.2268 -0.0116
 8697TIP3    H147582   3.120   5.395  11.163 -0.3337  2.0288 -1.8114
 8697TIP3    H247583   2.970   5.389  11.144 -0.7035 -0.8893  1.3952
 8698TIP3   OH247584   5.464   6.126  13.419  0.0845 -0.6144 -0.1649
 8698TIP3    H147585   5.548   6.099  13.457 -0.6035 -1.7932  0.5619
 8698TIP3    H247586   5.420   6.173  13.490  0.9600  1.8506 -1.1901
 8699TIP3   OH247587   1.288   2.596   0.933 -0.0560 -0.2156  0.2714
 8699TIP3    H147588   1.223   2.526   0.937  0.4850 -0.7573 -0.3272
 8699TIP3    H247589   1.317   2.607   1.023 -0.0296 -0.8749  0.3474
 8700TIP3   OH247590   2.785   2.823   3.897 -0.1477  0.0086  0.6320
 8700TIP3    H147591   2.697   2.834   3.861 -0.3895 -0.3915  1.0921
 8700TIP3    H247592   2.836   2.894   3.859 -0.9513  0.9307  1.2523
 8701TIP3   OH247593   3.903   1.636   4.134  0.2724 -0.2152  0.5122
 8701TIP3    H147594   3.980   1.628   4.191  0.0140 -0.5050  0.8244
 8701TIP3    H247595   3.858   1.552   4.143 -1.0434  0.6023  1.7353
 8702TIP3   OH247596   4.290   6.088  17.224  0.2136 -0.1340 -0.1975
 8702TIP3    H147597   4.202   6.124  17.225  0.2197 -0.0796 -1.3293
 8702TIP3    H247598   4.325   6.109  17.311 -0.8440 -0.0757  0.2272
 8703TIP3   OH247599   3.578   5.075  11.327  0.1694 -0.2851 -0.1768
 8703TIP3    H147600   3.598   5.019  11.252  1.3380 -1.6637  1.1230
 8703TIP3    H247601   3.512   5.027  11.376  1.4954 -0.7775  1.1841
 8704TIP3   OH247602   2.663   2.929   1.503 -0.4373  0.2725  0.2724
 8704TIP3    H147603   2.599   2.884   1.448  0.7060  0.1923 -1.0473
 8704TIP3    H247604   2.640   3.021   1.498 -1.4040  0.0842  1.1140
 8705TIP3   OH247605   4.552   6.390   5.375 -0.4986  0.1268  0.0905
 8705TIP3    H147606   4.563   6.462   5.312 -0.7265 -0.2215 -0.3538
 8705TIP3    H247607   4.573   6.311   5.325  4.2842  0.2048  1.7531
 8706TIP3   OH247608   2.626   3.555   2.605  0.0457  0.1076 -0.1906
 8706TIP3    H147609   2.561   3.492   2.571 -1.4969  1.2448  0.5841
 8706TIP3    H247610   2.633   3.621   2.537 -0.9020  0.8804  0.4495
 8707TIP3   OH247611   2.272   1.539   4.381 -0.2483 -0.0117 -0.2343
 8707TIP3    H147612   2.272   1.607   4.448 -0.5534 -0.0187 -0.2252
 8707TIP3    H247613   2.181   1.510   4.377 -0.1819 -0.1858 -0.4742
 8708TIP3   OH247614   5.743   4.865  12.227 -0.2053  0.2597 -0.4150
 8708TIP3    H147615   5.696   4.892  12.306 -1.5304  1.5473 -1.6206
 8708TIP3    H247616   5.830   4.841  12.259 -0.5665  1.2106  1.3767
 8709TIP3   OH247617   3.844   5.695   1.441  0.0029  0.1187  0.1600
 8709TIP3    H147618   3.853   5.784   1.409 -2.9492  0.9370  1.3854
 8709TIP3    H247619   3.785   5.652   1.378  2.7708 -1.5252 -1.3836
 8710TIP3   OH247620   3.606   0.869  12.100  0.2856 -0.1219 -0.0287
 8710TIP3    H147621   3.602   0.904  12.189  0.5635  0.4703 -0.2443
 8710TIP3    H247622   3.690   0.823  12.096  1.3815  1.8691 -0.7026
 8711TIP3   OH247623   3.109   2.593   4.480  0.3942  0.0170 -0.0173
 8711TIP3    H147624   3.120   2.641   4.398  0.7415  0.0813  0.0628
 8711TIP3    H247625   3.195   2.552   4.495 -0.3288 -1.8808 -0.8771
 8712TIP3   OH247626   4.774   6.274  12.437 -0.1273  0.3165  0.0755
 8712TIP3    H147627   4.846   6.214  12.454 -1.3084 -0.3720  3.0280
 8712TIP3    H247628   4.715   6.225  12.379  0.6036 -0.0442 -0.3634
 8713TIP3   OH247629   3.322   6.211  10.730  0.0426  0.5320  0.3900
 8713TIP3    H147630   3.305   6.270  10.803  1.5640 -1.3214  2.3165
 8713TIP3    H247631   3.381   6.260  10.673  0.1442  1.4112  1.2340
 8714TIP3   OH247632   4.373   3.513  12.118  0.2813  0.4340 -0.0527
 8714TIP3    H147633   4.325   3.585  12.158  0.5596  0.4596  0.2399
 8714TIP3    H247634   4.465   3.538  12.126  0.2667  1.4665 -2.6816
 8715TIP3   OH247635   0.336   4.990   6.515  0.0783  0.0154 -0.0857
 8715TIP3    H147636   0.417   5.027   6.480 -0.1508 -0.9079 -1.6775
 8715TIP3    H247637   0.363   4.910   6.559  0.0936 -0.0580 -0.2271
 8716TIP3   OH247638   5.974   3.561  16.915 -0.7938  0.0831  0.0635
 8716TIP3    H147639   6.047   3.623  16.925 -2.0180  1.2051  2.5109
 8716TIP3    H247640   6.016   3.476  16.907  0.8280  0.7742  0.8612
 8717TIP3   OH247641   5.887   4.648   1.876  0.1619  0.2481  0.0233
 8717TIP3    H147642   5.793   4.664   1.866  0.6628  2.4162 -1.6208
 8717TIP3    H247643   5.899   4.558   1.844 -1.0169  0.8105 -2.1234
 8718TIP3   OH247644   1.766   3.420  14.901  0.1582  0.6050 -0.3068
 8718TIP3    H147645   1.781   3.462  14.817 -1.9328 -1.3002 -1.7046
 8718TIP3    H247646   1.703   3.350  14.882  1.5698 -1.4864  2.3658
 8719TIP3   OH247647   6.610   0.357  14.962  0.3040 -0.0739  0.3048
 8719TIP3    H147648   6.656   0.439  14.945 -0.7273  0.5457  0.4442
 8719TIP3    H247649   6.676   0.301  15.002  1.8289 -0.3566 -2.4804
 8720TIP3   OH247650   3.751   1.566   5.431 -0.1697 -0.3142 -0.2218
 8720TIP3    H147651   3.719   1.580   5.520 -0.8062  2.2389 -0.8060
 8720TIP3    H247652   3.674   1.535   5.383  0.3360 -2.3577  0.2298
 8721TIP3   OH247653   3.532   0.938   5.004  0.3909  0.3265  0.2362
 8721TIP3    H147654   3.602   0.946   4.939  0.7015  1.6101  0.7117
 8721TIP3    H247655   3.482   1.019   4.995 -0.3376 -0.0654  0.7102
 8722TIP3   OH247656   4.457   2.986   1.412 -0.0902  0.1868 -0.2142
 8722TIP3    H147657   4.523   2.938   1.362 -0.3771  0.7389 -1.1340
 8722TIP3    H247658   4.404   3.030   1.345 -0.7665  0.5497  0.5597
 8723TIP3   OH247659   5.002   0.086   1.572  0.2252  0.1761  0.3465
 8723TIP3    H147660   4.920   0.125   1.542 -0.1933 -1.0153 -0.0891
 8723TIP3    H247661   4.995  -0.006   1.547  1.8947  0.1587 -0.0838
 8724TIP3   OH247662   3.195   1.446   4.889  0.4317 -0.2113  0.2034
 8724TIP3    H147663   3.100   1.447   4.880  0.2200  1.6100  2.1544
 8724TIP3    H247664   3.216   1.355   4.911 -1.2223  0.0235  2.9488
 8725TIP3   OH247665   0.356   3.118  16.464 -0.3736 -0.4428 -0.5897
 8725TIP3    H147666   0.374   3.113  16.370 -1.0488  0.1129 -0.7497
 8725TIP3    H247667   0.421   3.060  16.504 -1.2724 -2.1282 -1.5431
 8726TIP3   OH247668   3.204   2.511   1.619 -0.0478 -0.3644 -0.4886
 8726TIP3    H147669   3.175   2.572   1.551  0.1752 -0.6577 -0.8455
 8726TIP3    H247670   3.240   2.568   1.687  0.5640 -0.1163 -1.0147
 8727TIP3   OH247671   5.306   0.772   2.650  0.4210  0.0689 -0.1771
 8727TIP3    H147672   5.285   0.862   2.623  1.8562  1.4196  2.9227
 8727TIP3    H247673   5.242   0.751   2.718  1.6034 -0.3025  0.8422
 8728TIP3   OH247674   4.434   0.482  16.370  0.7249  0.3853 -0.8113
 8728TIP3    H147675   4.406   0.451  16.456  1.8942 -0.2394 -0.6522
 8728TIP3    H247676   4.422   0.407  16.312  2.0918  0.0947 -0.7350
 8729TIP3   OH247677   1.226   3.388   2.510  0.3833 -0.0870  0.4116
 8729TIP3    H147678   1.131   3.386   2.500  0.3821 -0.6370  0.5035
 8729TIP3    H247679   1.257   3.321   2.448  0.8368  1.4346 -1.0603
 8730TIP3   OH247680   6.435   5.652   4.790 -0.0945  0.5960 -0.8499
 8730TIP3    H147681   6.381   5.721   4.828 -0.0955 -1.1309  2.4840
 8730TIP3    H247682   6.468   5.689   4.708  0.8935  5.0022  1.4012
 8731TIP3   OH247683   5.014   1.792   4.141  0.5861 -0.1860 -0.3438
 8731TIP3    H147684   4.995   1.731   4.069 -0.0648  0.3519 -0.6375
 8731TIP3    H247685   4.974   1.874   4.113  0.7615  0.1593  0.4147
 8732TIP3   OH247686   2.286   1.133  14.229 -0.4562 -0.0507  0.2460
 8732TIP3    H147687   2.237   1.190  14.169  1.4052  1.7290  0.3838
 8732TIP3    H247688   2.373   1.126  14.189  1.3650  2.5710  3.6081
 8733TIP3   OH247689   1.885   0.994   0.029  0.3813 -0.1870  0.6040
 8733TIP3    H147690   1.863   1.085   0.050  0.0619 -0.2063  0.3574
 8733TIP3    H247691   1.861   0.945   0.108  1.8071  0.1129  1.2605
 8734TIP3   OH247692   0.790   2.032  11.322  0.0391 -0.5591  0.2072
 8734TIP3    H147693   0.829   1.982  11.393  0.7214 -0.3553 -0.0241
 8734TIP3    H247694   0.862   2.082  11.284 -0.2130 -1.0540 -0.9554
 8735TIP3   OH247695   3.669   1.531  11.927 -0.7925  0.5407 -0.1286
 8735TIP3    H147696   3.680   1.566  11.839  0.0418  0.5637 -0.0182
 8735TIP3    H247697   3.591   1.576  11.961  0.0131  2.0090 -0.1407
 8736TIP3   OH247698   2.821   4.904   2.167  0.3560 -0.4606  0.1857
 8736TIP3    H147699   2.807   4.925   2.259 -0.8342  0.6643 -0.2331
 8736TIP3    H247700   2.855   4.815   2.167 -0.6569 -0.8625  1.6614
 8737TIP3   OH247701   0.535   0.016  16.052 -0.0209  0.0667 -0.6030
 8737TIP3    H147702   0.525  -0.079  16.053  1.1873 -0.0953 -2.1409
 8737TIP3    H247703   0.451   0.049  16.021 -0.3099 -0.5172 -0.4464
 8738TIP3   OH247704   3.496   2.820   4.770 -0.6009 -0.5751  0.8388
 8738TIP3    H147705   3.586   2.845   4.786 -0.2267 -1.5422  0.2708
 8738TIP3    H247706   3.459   2.891   4.718  0.3967 -1.1158 -0.6126
 8739TIP3   OH247707   0.576   3.482   0.408  0.1824 -0.4189  0.7602
 8739TIP3    H147708   0.495   3.499   0.456 -0.1473  0.2226  0.0044
 8739TIP3    H247709   0.646   3.496   0.472 -0.3694 -3.0845  1.9918
 8740TIP3   OH247710   1.594   1.458   0.574  0.0534 -0.5168  0.5650
 8740TIP3    H147711   1.611   1.460   0.479  0.2057 -1.1947  0.5787
 8740TIP3    H247712   1.647   1.386   0.607  0.3915  0.0391  1.2555
 8741TIP3   OH247713   4.828   3.042  13.531 -0.4180  0.1469  0.0581
 8741TIP3    H147714   4.917   3.065  13.503 -0.1675  0.4184  1.0420
 8741TIP3    H247715   4.772   3.110  13.494 -0.3844 -0.7038 -1.6046
 8742TIP3   OH247716   1.660   5.109   2.784 -0.4904  0.1840  0.3013
 8742TIP3    H147717   1.698   5.046   2.846  0.6979  1.1810  0.6076
 8742TIP3    H247718   1.593   5.154   2.835 -1.8361 -1.3017 -0.1212
 8743TIP3   OH247719   2.688   5.964  10.659 -0.3329  0.0727  0.5433
 8743TIP3    H147720   2.605   5.918  10.674  0.2457 -0.7408  1.2695
 8743TIP3    H247721   2.728   5.919  10.585 -0.6336  0.6179  0.0368
 8744TIP3   OH247722   0.295   0.202  14.533  1.3860 -0.2815  0.5604
 8744TIP3    H147723   0.320   0.161  14.616  2.9735 -0.7751 -0.1499
 8744TIP3    H247724   0.328   0.291  14.538 -1.2730  0.6917  1.7277
 8745TIP3   OH247725   4.047   4.119   1.708 -0.2165 -0.0901  0.2139
 8745TIP3    H147726   4.085   4.032   1.723 -0.7488 -0.3491  0.0538
 8745TIP3    H247727   3.990   4.108   1.632  1.0371  0.7983 -0.8674
 8746TIP3   OH247728   6.061   2.918   3.797  0.4410  0.5648  0.3402
 8746TIP3    H147729   6.073   3.002   3.842 -0.2320  0.6642  0.3269
 8746TIP3    H247730   5.987   2.877   3.842  0.9143 -0.1226  0.4983
 8747TIP3   OH247731   2.247   4.765  17.004  0.5363 -0.0222 -0.1141
 8747TIP3    H147732   2.315   4.701  17.027 -1.0252 -1.6230  0.1772
 8747TIP3    H247733   2.177   4.712  16.965  0.6323  1.9371 -3.1162
 8748TIP3   OH247734   1.110   0.641  16.764  0.1897  0.3051  0.5948
 8748TIP3    H147735   1.086   0.650  16.856  0.6260 -1.5514  0.9203
 8748TIP3    H247736   1.038   0.591  16.726  1.8134 -2.3165  0.8229
 8749TIP3   OH247737   1.585   2.736  14.903 -0.1604 -0.8684 -0.3296
 8749TIP3    H147738   1.567   2.692  14.986  1.8021 -4.7066 -1.8155
 8749TIP3    H247739   1.521   2.699  14.842 -0.6856  0.9104 -0.9044
 8750TIP3   OH247740   0.939   5.757   2.292 -0.2638  0.5213  0.2164
 8750TIP3    H147741   1.020   5.806   2.303 -0.1036  0.2877  0.0753
 8750TIP3    H247742   0.935   5.738   2.198  0.6369 -1.3953  0.5436
 8751TIP3   OH247743   2.772   5.221   0.958 -0.1356 -0.0154  0.1561
 8751TIP3    H147744   2.727   5.175   1.029  0.0690 -0.4277  0.0212
 8751TIP3    H247745   2.853   5.171   0.945  0.3168  0.6563  0.3336
 8752TIP3   OH247746   0.941   3.099   4.093  0.5725  0.4683  0.2576
 8752TIP3    H147747   0.935   3.176   4.149  2.9359  1.4707 -0.8329
 8752TIP3    H247748   0.922   3.132   4.005  0.2680 -0.4519 -0.0243
 8753TIP3   OH247749   5.992   5.484   1.313 -0.3130  0.2433 -0.1538
 8753TIP3    H147750   5.929   5.416   1.336 -1.2685  1.2667  0.2899
 8753TIP3    H247751   5.968   5.509   1.223  1.4530 -1.5624 -1.1637
 8754TIP3   OH247752   1.308   6.516  14.436 -0.2985  0.3733  0.3667
 8754TIP3    H147753   1.367   6.541  14.508  0.5174 -0.3513 -0.0327
 8754TIP3    H247754   1.222   6.544  14.465  0.3398  2.0485  0.6794
 8755TIP3   OH247755   2.567   6.088  17.104  0.0980  0.3041  0.2318
 8755TIP3    H147756   2.591   6.075  17.012  2.0735  0.7466  0.6584
 8755TIP3    H247757   2.537   6.002  17.133 -0.3685  0.1141 -0.7748
 8756TIP3   OH247758   6.165   5.786  17.175  0.3684 -0.0944 -0.1994
 8756TIP3    H147759   6.141   5.858  17.233  0.4137  0.4585 -0.8549
 8756TIP3    H247760   6.164   5.825  17.087  4.1723  0.1238 -0.2258
 8757TIP3   OH247761   5.811   4.350  14.555 -0.0166  0.0142 -0.1916
 8757TIP3    H147762   5.874   4.348  14.482 -1.2542  0.6691 -1.3153
 8757TIP3    H247763   5.863   4.329  14.632  1.7141  1.0978 -1.0123
 8758TIP3   OH247764   0.198   1.395  13.088  0.5599  0.1886  0.0371
 8758TIP3    H147765   0.183   1.438  13.004  0.9909 -2.0817 -1.2470
 8758TIP3    H247766   0.115   1.353  13.109  0.1002  1.7026  1.3492
 8759TIP3   OH247767   5.424   1.833   3.342  1.0143 -0.5246 -0.1210
 8759TIP3    H147768   5.418   1.928   3.336 -1.8674 -0.7005 -0.6392
 8759TIP3    H247769   5.481   1.808   3.269  0.6358  0.7071 -0.8566
 8760TIP3   OH247770   0.659   2.780   1.790 -0.6834 -1.0359  0.3707
 8760TIP3    H147771   0.682   2.801   1.880 -0.7338  0.4443  0.0397
 8760TIP3    H247772   0.651   2.684   1.790  0.6645 -1.1742  1.6104
 8761TIP3   OH247773   2.349   4.395  12.092 -0.3793 -0.2486  0.1351
 8761TIP3    H147774   2.389   4.430  12.171 -2.2750  1.1156  0.5434
 8761TIP3    H247775   2.422   4.365  12.038  1.0497  0.7780  1.4832
 8762TIP3   OH247776   0.837   6.242  17.211 -0.5545  0.3946 -0.0176
 8762TIP3    H147777   0.757   6.242  17.265  0.6786  0.9734  1.8578
 8762TIP3    H247778   0.908   6.239  17.275  0.9484  1.0833 -1.6519
 8763TIP3   OH247779   6.531   4.983   3.826 -0.1295  0.6015 -0.4492
 8763TIP3    H147780   6.581   5.052   3.783 -0.4561  1.6054  0.7362
 8763TIP3    H247781   6.475   5.029   3.889 -1.4264 -0.6222 -0.6588
 8764TIP3   OH247782   1.648   2.865  14.180 -0.0773  0.6910  0.0778
 8764TIP3    H147783   1.688   2.884  14.095 -0.2560  0.7384  0.0030
 8764TIP3    H247784   1.555   2.886  14.168  0.1221  1.9145  0.6737
 8765TIP3   OH247785   5.062   0.073   3.348  0.3520 -0.1893 -0.2339
 8765TIP3    H147786   5.092   0.023   3.424  1.3738 -1.5682 -1.5131
 8765TIP3    H247787   4.972   0.044   3.335  1.4207 -2.9375 -1.9082
 8766TIP3   OH247788   2.666   0.398  11.771  0.4166 -0.4606  0.2043
 8766TIP3    H147789   2.717   0.424  11.694  0.9617 -0.7104  0.4802
 8766TIP3    H247790   2.617   0.321  11.743  1.9062 -1.5807  0.6070
 8767TIP3   OH247791   0.242   0.283   2.549  0.0937 -0.0913  0.5160
 8767TIP3    H147792   0.162   0.298   2.599 -0.6662 -0.1743 -0.6362
 8767TIP3    H247793   0.214   0.229   2.475  1.2629 -0.3087  0.2188
 8768TIP3   OH247794   0.606   3.638   5.943 -0.1010 -0.2164 -0.4458
 8768TIP3    H147795   0.601   3.566   6.006 -2.6470  0.1641 -0.1812
 8768TIP3    H247796   0.534   3.623   5.882 -2.0012  3.1637  0.8155
 8769TIP3   OH247797   3.031   1.216   4.238  0.4280  0.0530  0.3819
 8769TIP3    H147798   2.987   1.146   4.189 -0.3291  0.6960  0.1439
 8769TIP3    H247799   3.125   1.196   4.229  0.2680 -0.2297 -0.7278
 8770TIP3   OH247800   1.406   4.765   1.159 -0.5174  0.2258  0.4344
 8770TIP3    H147801   1.417   4.855   1.191 -0.6965  0.4200 -0.0387
 8770TIP3    H247802   1.495   4.730   1.155 -0.4568  0.3487  0.7241
 8771TIP3   OH247803   0.029   2.400  11.236 -0.0538  0.2682  0.5302
 8771TIP3    H147804  -0.055   2.445  11.232 -0.3844 -0.4634 -1.1913
 8771TIP3    H247805   0.094   2.470  11.233 -0.5897  0.7723  0.6317
 8772TIP3   OH247806   4.616   1.227  14.718  0.7778 -0.4173 -0.8251
 8772TIP3    H147807   4.525   1.247  14.739  1.5520  1.7065  0.7539
 8772TIP3    H247808   4.618   1.132  14.705 -0.9950 -1.0077  2.7043
 8773TIP3   OH247809   5.440   3.652  16.848  0.4186 -0.7815  0.4101
 8773TIP3    H147810   5.536   3.646  16.851  0.5381  0.6428 -0.2203
 8773TIP3    H247811   5.419   3.718  16.914 -0.1352 -1.0486  0.5020
 8774TIP3   OH247812   4.480   1.689   2.452 -0.1459 -0.2192 -0.1422
 8774TIP3    H147813   4.505   1.664   2.541  1.8409  0.4814 -0.4781
 8774TIP3    H247814   4.442   1.609   2.415 -0.2875 -0.7295  1.0694
 8775TIP3   OH247815   0.583   2.831   3.718  0.2312  0.1221  0.2725
 8775TIP3    H147816   0.606   2.739   3.728  2.0646  0.4766 -0.5091
 8775TIP3    H247817   0.501   2.841   3.767  0.0042 -1.9146  0.3329
 8776TIP3   OH247818   4.298   3.915   6.008  0.3382  0.9153  0.1945
 8776TIP3    H147819   4.371   3.977   6.004 -0.3561  1.6757 -3.7827
 8776TIP3    H247820   4.225   3.966   6.045  0.8399  1.2528  0.7254
 8777TIP3   OH247821   4.566   1.037   2.033  1.1791 -1.0318  0.5457
 8777TIP3    H147822   4.497   1.074   2.088  0.5050  0.3555 -1.2091
 8777TIP3    H247823   4.641   1.095   2.047  1.3429 -1.2957  0.7862
 8778TIP3   OH247824   3.542   0.617   4.227  1.1034  0.1041 -0.0957
 8778TIP3    H147825   3.466   0.559   4.212  1.0430  0.6504 -2.0301
 8778TIP3    H247826   3.599   0.601   4.152  1.7900  1.4541  0.1279
 8779TIP3   OH247827   5.535   4.710   1.454 -0.8145  0.5618 -0.6460
 8779TIP3    H147828   5.498   4.664   1.529 -0.2282  1.2621  0.0894
 8779TIP3    H247829   5.524   4.649   1.381  0.5549 -1.0388  0.4330
 8780TIP3   OH247830   4.857   6.679  10.933  0.7335 -0.8068 -0.4160
 8780TIP3    H147831   4.858   6.678  10.838  1.3328  0.2791 -0.4428
 8780TIP3    H247832   4.929   6.622  10.959  1.0723 -0.4858 -0.6388
 8781TIP3   OH247833   6.711   6.442   4.575 -0.0411 -0.2953  0.3605
 8781TIP3    H147834   6.738   6.399   4.656  1.4573  1.8598  1.0558
 8781TIP3    H247835   6.654   6.513   4.603 -3.5503 -2.4963 -0.8641
 8782TIP3   OH247836   2.860   4.814  13.386  0.1541 -0.0083  0.1256
 8782TIP3    H147837   2.926   4.767  13.437  0.7663  1.1261  0.3797
 8782TIP3    H247838   2.794   4.748  13.367  1.6426 -1.3158 -0.6372
 8783TIP3   OH247839   4.300   4.083  12.491 -0.2059  0.1723  0.1263
 8783TIP3    H147840   4.247   4.014  12.450 -0.2473  0.5815 -0.5137
 8783TIP3    H247841   4.238   4.154  12.506 -0.0365  0.2942  0.2413
 8784TIP3   OH247842   4.842   3.894  16.558  0.7531 -0.1012  0.1303
 8784TIP3    H147843   4.793   3.959  16.507 -2.6261 -0.1528  3.0906
 8784TIP3    H247844   4.786   3.816  16.557  2.4826 -1.3793  0.6437
 8785TIP3   OH247845   3.977   5.183  16.591 -0.9985 -0.1375  0.2609
 8785TIP3    H147846   3.919   5.251  16.626  1.0804  2.1337 -0.5622
 8785TIP3    H247847   4.019   5.145  16.668 -1.0486  0.5543  0.6337
 8786TIP3   OH247848   5.212   5.658   0.974  0.5699 -0.5469 -0.1425
 8786TIP3    H147849   5.221   5.625   0.884  1.7993 -0.2168 -0.1436
 8786TIP3    H247850   5.256   5.743   0.973 -0.1959 -0.1405  0.5518
 8787TIP3   OH247851   2.183   5.847   0.331 -0.2636  0.1968  0.1663
 8787TIP3    H147852   2.263   5.850   0.384  0.4569  0.4599 -0.9291
 8787TIP3    H247853   2.124   5.911   0.372  0.9319  1.6635 -0.4059
 8788TIP3   OH247854   2.953   0.253   5.294  0.6820 -0.1430 -0.1356
 8788TIP3    H147855   3.047   0.236   5.284  0.1685 -2.1797 -2.0364
 8788TIP3    H247856   2.914   0.166   5.301 -1.2470  0.5906 -1.3655
 8789TIP3   OH247857   2.553   2.411   4.827 -0.0043 -0.1814 -0.0993
 8789TIP3    H147858   2.482   2.438   4.769  0.9893  0.3842 -1.0711
 8789TIP3    H247859   2.580   2.492   4.871 -0.6413 -0.5764  1.0299
 8790TIP3   OH247860   3.127   2.658  14.650 -0.1386 -0.2189  0.5780
 8790TIP3    H147861   3.075   2.640  14.728 -1.1405 -0.2901 -0.1078
 8790TIP3    H247862   3.183   2.732  14.675 -3.7813  2.9304 -0.1186
 8791TIP3   OH247863   0.792   6.001  13.956  0.2499  0.1784 -0.0129
 8791TIP3    H147864   0.766   6.042  14.038 -0.1284  0.3778 -0.2277
 8791TIP3    H247865   0.813   5.911  13.979  2.7780  0.9313  0.7850
 8792TIP3   OH247866   3.620   3.551  12.509 -0.2004  0.3648 -0.1235
 8792TIP3    H147867   3.714   3.558  12.529 -0.3476  1.2105  0.2889
 8792TIP3    H247868   3.592   3.471  12.553  0.6739 -0.7989 -1.6209
 8793TIP3   OH247869   2.196   1.806   2.919 -0.1288 -0.0160 -0.1271
 8793TIP3    H147870   2.173   1.866   2.849  0.6898 -0.3227 -0.6621
 8793TIP3    H247871   2.252   1.741   2.878  0.3988 -0.1739  0.8196
 8794TIP3   OH247872   2.434   1.866   4.738  0.0390  0.0009  0.3474
 8794TIP3    H147873   2.517   1.834   4.775  1.7218  1.9952 -1.5410
 8794TIP3    H247874   2.383   1.892   4.814  0.8601 -1.8954  1.5902
 8795TIP3   OH247875   6.335   4.106   1.426 -0.4226  0.3506 -0.0007
 8795TIP3    H147876   6.255   4.143   1.463  0.0732 -0.6384  2.1270
 8795TIP3    H247877   6.395   4.099   1.501  0.6688 -1.5305 -1.0259
 8796TIP3   OH247878   5.854   0.717   5.749 -0.1678 -0.1140 -0.2308
 8796TIP3    H147879   5.933   0.663   5.748  0.4297  0.7185  0.7313
 8796TIP3    H247880   5.783   0.655   5.766  0.7919 -0.3165  3.5013
 8797TIP3   OH247881   2.187   1.499  12.703 -0.2513 -0.2916  0.8112
 8797TIP3    H147882   2.253   1.457  12.648  0.6381 -0.5040  2.0267
 8797TIP3    H247883   2.167   1.581  12.657 -0.4916 -1.0751 -0.5037
 8798TIP3   OH247884   5.471   3.304  17.066  0.3019 -0.1801 -0.6083
 8798TIP3    H147885   5.460   3.370  17.134 -1.1211 -2.2673  1.2714
 8798TIP3    H247886   5.539   3.338  17.009 -0.6286  3.0396  0.1271
 8799TIP3   OH247887   4.857   3.714   0.356  0.5225  0.5552  0.1777
 8799TIP3    H147888   4.857   3.720   0.260 -2.2268  3.4607  0.2759
 8799TIP3    H247889   4.766   3.695   0.379  1.3015 -0.9009  2.2303
 8800TIP3   OH247890   2.077   0.284   4.477 -0.1595 -0.1688  0.6486
 8800TIP3    H147891   2.096   0.342   4.550  0.4511  0.0261  0.3422
 8800TIP3    H247892   1.982   0.285   4.469 -0.1022  1.4058  0.1507
 8801TIP3   OH247893   1.386   2.512   1.339  0.2938 -0.2202  0.3111
 8801TIP3    H147894   1.429   2.448   1.282 -1.0286 -1.6857  0.9294
 8801TIP3    H247895   1.334   2.566   1.279  0.4400 -0.5253 -0.0952
 8802TIP3   OH247896   6.022   0.984  11.662 -0.0022 -0.3288  0.2727
 8802TIP3    H147897   6.025   1.077  11.637  2.3431 -0.5415 -0.3134
 8802TIP3    H247898   5.932   0.957  11.641 -0.1335  1.3097 -1.4049
 8803TIP3   OH247899   5.751   2.289  10.439 -0.1877 -0.3675 -0.4484
 8803TIP3    H147900   5.689   2.356  10.467 -2.2200 -2.3318 -0.1627
 8803TIP3    H247901   5.834   2.317  10.477 -0.8390  2.3273 -0.8948
 8804TIP3   OH247902   3.843   0.783   2.422 -0.3918 -0.3966 -0.2347
 8804TIP3    H147903   3.762   0.752   2.462  0.1908 -0.6401  0.7952
 8804TIP3    H247904   3.856   0.871   2.458  0.9041 -1.1810  1.3259
 8805TIP3   OH247905   5.218   5.276  14.793 -0.2040  0.1293  0.1843
 8805TIP3    H147906   5.236   5.336  14.720  1.6200  2.0831  2.1691
 8805TIP3    H247907   5.293   5.218  14.795 -0.6502 -0.4592  0.0100
 8806TIP3   OH247908   4.610   1.672   2.020 -0.2173 -0.0671  0.1470
 8806TIP3    H147909   4.597   1.733   1.948 -3.3382 -0.9693 -0.1315
 8806TIP3    H247910   4.639   1.726   2.093  0.1191  1.2727 -0.9628
 8807TIP3   OH247911   3.631   1.245  12.712  0.0060 -0.5441  0.6144
 8807TIP3    H147912   3.556   1.190  12.735 -0.0203 -0.1071  1.5906
 8807TIP3    H247913   3.658   1.285  12.795  0.9635 -0.2516  0.1696
 8808TIP3   OH247914   5.828   5.862   5.813  0.0869  0.0520  0.0894
 8808TIP3    H147915   5.884   5.872   5.890  0.1258  1.6137 -0.1214
 8808TIP3    H247916   5.788   5.948   5.801 -0.7893 -0.4828 -0.9802
 8809TIP3   OH247917   5.179   0.052   4.501  0.0312  0.0793 -0.0652
 8809TIP3    H147918   5.088   0.077   4.518 -0.7312 -1.2604 -2.0245
 8809TIP3    H247919   5.230   0.105   4.562 -2.0519  0.9322  0.9881
 8810TIP3   OH247920   5.433   0.998  13.725 -0.0879 -0.3257 -0.0025
 8810TIP3    H147921   5.464   1.087  13.714  0.7983 -0.7660 -1.2309
 8810TIP3    H247922   5.346   0.998  13.685 -0.0439 -0.0416 -0.0999
 8811TIP3   OH247923   1.707   1.504   4.274 -0.4219  0.3299 -0.4951
 8811TIP3    H147924   1.670   1.591   4.259 -0.8958  0.0771 -0.8000
 8811TIP3    H247925   1.713   1.497   4.369  0.3246  0.9880 -0.4830
 8812TIP3   OH247926   0.961   6.695   5.080 -0.1415 -0.3094 -0.3793
 8812TIP3    H147927   0.894   6.669   5.016 -0.3671 -0.3456 -0.1295
 8812TIP3    H247928   1.007   6.614   5.101  0.5455 -0.1403 -1.1964
 8813TIP3   OH247929   2.439   6.641   4.548  0.0842  0.0609  0.2326
 8813TIP3    H147930   2.372   6.709   4.551 -1.6053 -1.4613 -1.2022
 8813TIP3    H247931   2.463   6.635   4.455  0.5066 -0.9975  0.3971
 8814TIP3   OH247932   0.815   5.020  17.117  0.0296  0.0759  0.1460
 8814TIP3    H147933   0.810   4.927  17.137  1.9781 -0.2834 -0.9681
 8814TIP3    H247934   0.756   5.032  17.042 -0.6011 -0.1650  0.6006
 8815TIP3   OH247935   2.435   6.248   4.789  0.2939  0.3288  0.0767
 8815TIP3    H147936   2.394   6.333   4.773  1.7103  0.7012 -1.6682
 8815TIP3    H247937   2.362   6.187   4.795 -0.6765  1.4826  0.1201
 8816TIP3   OH247938   4.375   1.687  16.601 -0.0867 -0.2661 -0.2032
 8816TIP3    H147939   4.383   1.633  16.680 -0.7009 -1.7464 -1.1517
 8816TIP3    H247940   4.357   1.775  16.635  0.6895 -0.6783  1.3373
 8817TIP3   OH247941   0.238   4.427  16.085 -0.3588 -0.2640  0.4405
 8817TIP3    H147942   0.264   4.423  16.177 -0.1049 -1.6240  0.3215
 8817TIP3    H247943   0.310   4.385  16.038 -1.2196 -1.0185 -0.2247
 8818TIP3   OH247944   5.659   1.691   1.077 -1.0176 -0.6457 -0.8836
 8818TIP3    H147945   5.661   1.760   1.011 -1.1732 -0.4147 -0.6465
 8818TIP3    H247946   5.661   1.737   1.161 -2.1220 -0.8811 -0.7107
 8819TIP3   OH247947   6.649   1.631  15.108 -0.3317  0.3785  0.2963
 8819TIP3    H147948   6.702   1.657  15.184 -0.8971  0.6410  0.5992
 8819TIP3    H247949   6.622   1.713  15.068 -2.1862  0.2804  1.2996
 8820TIP3   OH247950   3.696   3.020  13.259 -0.5634 -0.5979 -0.1710
 8820TIP3    H147951   3.754   3.025  13.183 -0.4458 -0.8596 -0.0985
 8820TIP3    H247952   3.645   3.101  13.255  0.4650  0.0908  0.3002
 8821TIP3   OH247953   5.301   2.932   4.498  0.7836 -0.2676 -0.6168
 8821TIP3    H147954   5.292   2.837   4.494  0.2565 -0.2017 -0.9284
 8821TIP3    H247955   5.394   2.946   4.518  1.0162 -0.8307 -1.3083
 8822TIP3   OH247956   2.281   2.497  13.835 -0.6519 -0.3685  0.4391
 8822TIP3    H147957   2.343   2.424  13.828  1.8650  1.5686  1.6940
 8822TIP3    H247958   2.266   2.507  13.929  1.3957  2.5712  0.5258
 8823TIP3   OH247959   1.494   4.088   2.994 -0.3388 -0.2738  0.1688
 8823TIP3    H147960   1.447   4.053   2.918 -0.1011 -0.9732  0.3376
 8823TIP3    H247961   1.575   4.124   2.957  1.4235 -3.7574  0.4727
 8824TIP3   OH247962   1.939   0.925  17.058  0.2015 -0.6823 -0.3554
 8824TIP3    H147963   1.909   0.962  17.141  0.5715  1.1557 -0.9996
 8824TIP3    H247964   1.863   0.880  17.023 -0.3961 -0.2028  0.3005
 8825TIP3   OH247965   6.807   1.235  13.755 -0.1451  0.3906 -0.9997
 8825TIP3    H147966   6.729   1.269  13.712 -0.4798 -0.0641 -0.7563
 8825TIP3    H247967   6.818   1.291  13.832 -0.2792  0.4026 -0.9891
 8826TIP3   OH247968   3.899   4.107   2.124  0.1070 -0.2378 -0.1768
 8826TIP3    H147969   3.867   4.196   2.107  0.1710  0.3510  2.5766
 8826TIP3    H247970   3.821   4.052   2.117 -0.1240  0.1563 -0.8433
 8827TIP3   OH247971   2.749   3.177  15.817  0.6212 -0.4332 -0.3863
 8827TIP3    H147972   2.797   3.257  15.843 -1.5209  0.6173  0.4510
 8827TIP3    H247973   2.797   3.106  15.859  0.9053  0.6895  1.2445
 8828TIP3   OH247974   1.884   1.368  10.679 -0.5681  0.0933 -0.0639
 8828TIP3    H147975   1.904   1.458  10.653  0.5384  0.5933  2.3385
 8828TIP3    H247976   1.802   1.347  10.635  0.2839  1.4928 -2.4034
 8829TIP3   OH247977   2.179   1.899  16.624  0.1118 -0.1973  0.3741
 8829TIP3    H147978   2.272   1.905  16.604  0.3237  0.5711  1.5424
 8829TIP3    H247979   2.167   1.953  16.702 -1.2685 -0.4923  0.3901
 8830TIP3   OH247980   4.124   2.171   0.470 -0.2144  0.0395 -0.0965
 8830TIP3    H147981   4.032   2.177   0.495  0.4975  1.3136  2.3704
 8830TIP3    H247982   4.127   2.208   0.382 -2.0663 -0.0092 -0.1953
 8831TIP3   OH247983   4.196   0.064  14.947  0.0201 -0.7029 -0.3446
 8831TIP3    H147984   4.207   0.035  14.856 -1.0232 -1.4220 -0.2504
 8831TIP3    H247985   4.272   0.028  14.993  1.1530  0.6320 -1.1568
 8832TIP3   OH247986   0.851   4.717   1.070  0.2267 -0.1403 -0.1423
 8832TIP3    H147987   0.776   4.722   1.129  0.3546 -0.6693  0.0667
 8832TIP3    H247988   0.820   4.757   0.988 -0.8374 -1.8642 -0.6219
 8833TIP3   OH247989   1.918   0.454   5.487 -0.1522 -0.1011  0.2458
 8833TIP3    H147990   1.934   0.546   5.512  0.9088 -0.1752 -0.1477
 8833TIP3    H247991   1.822   0.446   5.486 -0.2588  0.3330  2.7536
 8834TIP3   OH247992   1.395   1.162   0.797  0.3750  0.1505 -0.0694
 8834TIP3    H147993   1.332   1.218   0.750  0.3438  0.3631  0.2270
 8834TIP3    H247994   1.480   1.187   0.762  0.1668 -1.3301 -1.7217
 8835TIP3   OH247995   5.182   3.873   0.532  0.1309  0.0286  0.3984
 8835TIP3    H147996   5.137   3.952   0.561  2.1327  0.8062  1.4701
 8835TIP3    H247997   5.188   3.818   0.610 -0.9458 -1.0476 -0.2584
 8836TIP3   OH247998   0.022   0.722   2.878  0.3238  0.2563  0.2433
 8836TIP3    H147999  -0.008   0.631   2.888  0.1778  0.4428  1.5491
 8836TIP3    H248000   0.117   0.715   2.871  0.2254 -0.0891 -0.8866
 8837TIP3   OH248001   0.633   4.677   5.148 -0.0067 -0.5425 -0.3626
 8837TIP3    H148002   0.660   4.713   5.063  0.5526  2.5333  1.0479
 8837TIP3    H248003   0.619   4.754   5.203  0.0607 -2.4874  2.4741
 8838TIP3   OH248004   1.191   6.557   1.272  0.5118 -0.4978 -0.3209
 8838TIP3    H148005   1.174   6.492   1.341 -0.9064 -1.6651 -1.7294
 8838TIP3    H248006   1.280   6.537   1.243  0.5207 -1.0615  0.0642
 8839TIP3   OH248007   5.293   2.862  16.615  0.4487 -0.0311 -0.1637
 8839TIP3    H148008   5.229   2.902  16.674  0.5294 -0.9135  0.5327
 8839TIP3    H248009   5.351   2.934  16.591 -0.3416  0.6096 -0.1790
 8840TIP3   OH248010   2.228   0.214   6.173 -0.3318  0.0382  0.3260
 8840TIP3    H148011   2.279   0.264   6.109  2.9926 -0.5458  2.4358
 8840TIP3    H248012   2.223   0.270   6.250 -3.3003  0.2353  0.0620
 8841TIP3   OH248013   1.303   2.369  12.557 -0.2991 -0.2633  0.0197
 8841TIP3    H148014   1.244   2.412  12.619 -0.2005 -1.6762  1.1264
 8841TIP3    H248015   1.248   2.305  12.511 -0.2868  0.5107 -1.0851
 8842TIP3   OH248016   4.622   5.302  14.449 -0.1016 -0.0441  0.2757
 8842TIP3    H148017   4.674   5.276  14.373 -0.6342 -2.3832  0.6892
 8842TIP3    H248018   4.579   5.222  14.478 -2.8918  1.5530  0.7819
 8843TIP3   OH248019   2.645   5.114  14.503 -0.4457  0.2128 -0.2120
 8843TIP3    H148020   2.667   5.172  14.431  1.0306  0.6473  0.5650
 8843TIP3    H248021   2.588   5.165  14.560  0.5063  0.7786  0.2506
 8844TIP3   OH248022   0.687   0.807  12.439  0.2346  0.0453 -0.1381
 8844TIP3    H148023   0.696   0.779  12.348 -1.0181  3.0654 -1.2693
 8844TIP3    H248024   0.595   0.790  12.459 -0.1610  1.7940 -0.3516
 8845TIP3   OH248025   4.228   4.823   5.187  0.2514  0.0221  0.3457
 8845TIP3    H148026   4.167   4.865   5.126  0.5617  0.5591  0.4060
 8845TIP3    H248027   4.258   4.745   5.140  0.4303  0.3919 -0.1546
 8846TIP3   OH248028   6.419   4.044  17.241 -0.3352 -0.2340 -0.1129
 8846TIP3    H148029   6.454   3.978  17.181  0.4289 -0.2977  0.4001
 8846TIP3    H248030   6.401   3.997  17.322  1.1330  0.3715  0.5750
 8847TIP3   OH248031   0.938   2.185   1.847  0.0102 -0.2428 -0.1834
 8847TIP3    H148032   1.001   2.148   1.786 -0.4328 -0.0161 -0.7918
 8847TIP3    H248033   0.925   2.117   1.913  1.3511 -0.0478  0.2913
 8848TIP3   OH248034   2.535   0.953  16.149  0.4326  0.1182  0.2418
 8848TIP3    H148035   2.486   1.012  16.206  1.3217  0.7527  0.3482
 8848TIP3    H248036   2.626   0.963  16.175  0.5439 -1.6590  0.5653
 8849TIP3   OH248037   4.002   5.886  14.567  0.1868 -0.3127 -0.7977
 8849TIP3    H148038   4.097   5.872  14.572  0.4531  1.2847 -1.0238
 8849TIP3    H248039   3.986   5.906  14.475 -0.0969  1.1701 -0.4395
 8850TIP3   OH248040   5.178   6.702  15.381  0.1012  0.0775 -0.8858
 8850TIP3    H148041   5.230   6.778  15.405 -0.5168 -0.1024  1.1830
 8850TIP3    H248042   5.237   6.627  15.391 -0.5740 -0.1569  1.7477
 8851TIP3   OH248043   5.636   6.014  12.235 -0.8537  0.6882  0.3688
 8851TIP3    H148044   5.631   5.928  12.192  0.6802  0.9389 -0.3618
 8851TIP3    H248045   5.616   5.996  12.326  1.5632 -0.8376  0.6481
 8852TIP3   OH248046   4.085   3.897  11.858 -0.1717  0.0824 -0.5758
 8852TIP3    H148047   4.106   3.900  11.951  0.0516  2.9112 -0.6970
 8852TIP3    H248048   4.170   3.891  11.814 -0.1855  0.4799 -0.6584
 8853TIP3   OH248049   5.654   0.632   5.402 -0.7004  0.6263  0.4914
 8853TIP3    H148050   5.600   0.710   5.415 -0.3744  0.3717  3.6046
 8853TIP3    H248051   5.744   0.665   5.404 -0.5604  0.1883  1.9129
 8854TIP3   OH248052   3.480   3.305  11.093  0.0105 -0.3539  0.6649
 8854TIP3    H148053   3.545   3.373  11.110  1.6152 -1.0321 -2.3096
 8854TIP3    H248054   3.422   3.343  11.027 -0.1057 -1.2438  0.2439
 8855TIP3   OH248055   0.970   0.187   0.965 -0.3656  0.8968 -0.2598
 8855TIP3    H148056   0.916   0.263   0.942  0.3814  0.7076 -2.7261
 8855TIP3    H248057   1.019   0.215   1.042 -0.4945  2.7250 -0.8185
 8856TIP3   OH248058   1.877   5.649   5.275 -0.2723  0.5759 -0.2624
 8856TIP3    H148059   1.813   5.663   5.206 -0.9336 -1.3250 -0.0667
 8856TIP3    H248060   1.857   5.716   5.340  0.4805  2.5000 -1.9703
 8857TIP3   OH248061   2.109   4.626  12.832  0.2488  0.2300  0.5280
 8857TIP3    H148062   2.066   4.686  12.893  2.3480  1.5496  0.7720
 8857TIP3    H248063   2.150   4.560  12.887  0.5517  0.3393  0.4338
 8858TIP3   OH248064   6.194   5.030   4.229 -0.2124  0.1424 -0.9135
 8858TIP3    H148065   6.148   4.970   4.288 -0.6621 -0.2832 -1.6826
 8858TIP3    H248066   6.287   5.008   4.240 -0.2708  0.2728 -0.1455
 8859TIP3   OH248067   0.877   6.328  13.452 -1.0078  0.3174  0.1833
 8859TIP3    H148068   0.827   6.323  13.370 -1.1750  0.0492  0.2988
 8859TIP3    H248069   0.921   6.413  13.448  0.5254 -0.5179 -1.0540
 8860TIP3   OH248070   2.100   1.034   2.141 -0.1857 -0.3576 -0.0778
 8860TIP3    H148071   2.130   1.016   2.052  0.3453 -1.5171  0.3251
 8860TIP3    H248072   2.027   0.974   2.154  1.3989 -2.0718  1.1690
 8861TIP3   OH248073   2.518   3.078   1.991  0.7017 -0.6093  0.1521
 8861TIP3    H148074   2.515   3.101   2.084  0.9984  0.9193 -0.1968
 8861TIP3    H248075   2.438   3.028   1.976 -0.1675  0.5234  0.8894
 8862TIP3   OH248076   3.277   6.630   5.571  0.1852  0.0107  0.2128
 8862TIP3    H148077   3.338   6.591   5.508  2.0099  0.9801  1.3507
 8862TIP3    H248078   3.266   6.720   5.541  1.0836  0.4837  1.2599
 8863TIP3   OH248079   1.488   2.143  12.660 -0.3817  0.3534 -0.4313
 8863TIP3    H148080   1.494   2.231  12.697  1.5790 -0.0384  0.2917
 8863TIP3    H248081   1.435   2.094  12.722 -0.8031  0.8326 -0.4178
 8864TIP3   OH248082   0.108   4.002  14.564 -0.6737  0.2828  0.3420
 8864TIP3    H148083   0.150   3.919  14.586  1.5196  1.0492 -0.7988
 8864TIP3    H248084   0.104   4.003  14.468 -1.9096  0.9168  0.3800
 8865TIP3   OH248085   2.669   6.587  17.148  0.2830  0.5118 -0.3660
 8865TIP3    H148086   2.671   6.514  17.085 -2.8166  0.0847 -0.0580
 8865TIP3    H248087   2.579   6.619  17.145  1.3201  3.7167  0.2667
 8866TIP3   OH248088   2.530   1.195   2.575  0.1477 -0.3814  0.2563
 8866TIP3    H148089   2.546   1.205   2.669 -0.4783  0.7972  0.2417
 8866TIP3    H248090   2.530   1.284   2.541 -0.9258 -0.7254 -0.6517
 8867TIP3   OH248091   4.919   2.054   0.615  0.3365  0.3955  0.3327
 8867TIP3    H148092   4.857   2.032   0.546  0.2711 -0.2530  0.6029
 8867TIP3    H248093   4.993   2.093   0.568  0.3420 -0.1472 -0.1167
 8868TIP3   OH248094   3.995   6.352  12.132 -0.2751 -0.3212  0.1261
 8868TIP3    H148095   3.929   6.413  12.098 -0.5186 -0.7950 -0.2546
 8868TIP3    H248096   3.969   6.337  12.223  0.6111  1.2712  0.6751
 8869TIP3   OH248097   0.263   1.558  17.039  0.2096  0.6425  0.4168
 8869TIP3    H148098   0.232   1.481  17.086 -1.3932  1.3795  0.6115
 8869TIP3    H248099   0.319   1.523  16.970 -0.5352 -0.6978  0.4722
 8870TIP3   OH248100   2.202   4.199  14.216 -0.4124 -0.1077  0.4827
 8870TIP3    H148101   2.292   4.223  14.237 -1.0031  0.4200  2.4705
 8870TIP3    H248102   2.157   4.195  14.301 -2.6276  1.1036 -0.5822
 8871TIP3   OH248103   0.432   1.454   3.101 -0.7862  0.3310 -0.7320
 8871TIP3    H148104   0.491   1.527   3.122 -3.0145  2.2004 -0.7269
 8871TIP3    H248105   0.471   1.412   3.025 -0.4073  2.7111 -1.8807
 8872TIP3   OH248106   4.714   4.935   1.952 -0.5340  0.2853 -0.2174
 8872TIP3    H148107   4.749   4.981   2.029  1.0431 -1.2838  0.0440
 8872TIP3    H248108   4.778   4.954   1.883  1.0201 -2.7254  0.2955
 8873TIP3   OH248109   0.667   4.204  15.393  0.4387  0.4292  0.2041
 8873TIP3    H148110   0.633   4.143  15.458  0.2195 -1.0036 -1.2153
 8873TIP3    H248111   0.593   4.259  15.370 -0.4595 -1.3803 -1.4067
 8874TIP3   OH248112   0.696   2.888   3.469  0.2005 -0.2977  0.5811
 8874TIP3    H148113   0.672   2.858   3.556  1.3862 -0.0546  1.0006
 8874TIP3    H248114   0.728   2.977   3.482  0.5796 -0.3309 -0.0720
 8875TIP3   OH248115   5.401   4.060   6.292 -0.6219  0.2805 -0.2288
 8875TIP3    H148116   5.394   4.019   6.379  0.9994 -0.8993 -0.6180
 8875TIP3    H248117   5.320   4.037   6.248 -0.9815 -0.0683  0.5985
 8876TIP3   OH248118   5.817   6.062  16.069 -0.2582  0.1584  0.4452
 8876TIP3    H148119   5.756   6.008  16.118  0.2746 -0.7722  0.1034
 8876TIP3    H248120   5.902   6.019  16.082 -0.2392 -0.6266 -2.0081
 8877TIP3   OH248121   5.323   5.772   6.377  0.2823 -0.3143 -0.0669
 8877TIP3    H148122   5.368   5.837   6.431 -0.2610  0.1013 -0.1128
 8877TIP3    H248123   5.281   5.714   6.440  0.2264 -0.2421 -0.0383
 8878TIP3   OH248124   0.399   0.604   5.174  0.4240 -0.2728 -0.4416
 8878TIP3    H148125   0.379   0.698   5.172  0.2161 -0.2665  1.5519
 8878TIP3    H248126   0.319   0.563   5.206  1.6079 -0.8060  1.9105
 8879TIP3   OH248127   3.759   3.509  13.313 -0.4342  0.3677 -0.1736
 8879TIP3    H148128   3.826   3.441  13.311 -0.9560 -0.1545 -0.1933
 8879TIP3    H248129   3.695   3.478  13.376 -1.1503  0.3773 -0.8815
 8880TIP3   OH248130   2.032   5.394  14.082 -0.2145  0.0195 -0.0565
 8880TIP3    H148131   1.974   5.460  14.120  2.9163  2.6056  0.4594
 8880TIP3    H248132   2.056   5.430  13.996  2.1178 -0.0406  0.5324
 8881TIP3   OH248133   3.520   5.522   2.821 -0.0863  0.2095 -0.0642
 8881TIP3    H148134   3.580   5.549   2.890  1.9820 -0.8570 -1.4103
 8881TIP3    H248135   3.562   5.549   2.739 -0.7345 -1.8030 -1.1093
 8882TIP3   OH248136   5.486   5.293   1.124 -0.2262 -0.0973  0.0495
 8882TIP3    H148137   5.391   5.299   1.115 -0.2013 -0.1246 -0.2103
 8882TIP3    H248138   5.521   5.314   1.038  0.0306  0.4905  0.2905
 8883TIP3   OH248139   1.581   1.758  15.431  0.2786  0.0504 -0.1663
 8883TIP3    H148140   1.504   1.744  15.376 -0.3909 -0.4989  0.8904
 8883TIP3    H248141   1.573   1.848  15.462 -0.2642 -0.1964  0.4255
 8884TIP3   OH248142   1.952   5.405   4.799 -0.2285 -0.0533 -0.1276
 8884TIP3    H148143   1.857   5.410   4.789 -0.3295  0.5701  1.0978
 8884TIP3    H248144   1.980   5.347   4.728 -1.4916 -0.0478 -0.6494
 8885TIP3   OH248145   5.495   3.388   0.501 -0.0126  0.1468  0.6931
 8885TIP3    H148146   5.560   3.378   0.431 -1.2119 -0.4773 -0.3378
 8885TIP3    H248147   5.452   3.303   0.507  0.2577  0.1131  2.3825
 8886TIP3   OH248148   4.107   3.008   5.319  0.5799 -0.7421  0.2124
 8886TIP3    H148149   4.074   2.922   5.293 -2.7401 -0.0388  1.8917
 8886TIP3    H248150   4.029   3.058   5.343  2.4745  2.6079 -0.2331
 8887TIP3   OH248151   5.258   5.189  12.818 -0.4261  0.0094 -0.2585
 8887TIP3    H148152   5.293   5.186  12.729 -1.6660 -2.9045 -0.7175
 8887TIP3    H248153   5.286   5.106  12.857 -1.0821  0.6438  1.5951
 8888TIP3   OH248154   1.745   1.921   1.062 -0.5973  0.3480  0.2695
 8888TIP3    H148155   1.745   1.886   0.974 -1.0545  0.0772  0.3774
 8888TIP3    H248156   1.826   1.890   1.101 -0.3693  0.5163 -0.0764
 8889TIP3   OH248157   3.114   5.193  15.672  0.5281 -0.4674 -0.0284
 8889TIP3    H148158   3.067   5.114  15.699  0.0187 -0.2427 -0.2426
 8889TIP3    H248159   3.084   5.208  15.582  1.9105 -0.9935 -0.6017
 8890TIP3   OH248160   2.611   3.490  16.840  0.0044 -0.4676 -0.0258
 8890TIP3    H148161   2.536   3.431  16.828  0.0738 -0.6561  0.4421
 8890TIP3    H248162   2.669   3.470  16.767 -0.7818  0.2653 -0.8722
 8891TIP3   OH248163   6.236   2.424  17.037 -1.0101  0.1684 -0.3981
 8891TIP3    H148164   6.252   2.335  17.005  0.0770  0.2922 -0.1885
 8891TIP3    H248165   6.175   2.461  16.973 -0.8843 -0.4708 -0.8953
 8892TIP3   OH248166   6.394   3.471   3.637 -0.9028  0.2308 -0.0943
 8892TIP3    H148167   6.374   3.554   3.593 -4.7264 -0.7969 -0.5326
 8892TIP3    H248168   6.335   3.470   3.713  0.6418 -1.1292  1.1175
 8893TIP3   OH248169   0.463   2.450   4.882  0.7521 -0.4147  0.5431
 8893TIP3    H148170   0.440   2.464   4.974  0.8908 -0.4390  0.5818
 8893TIP3    H248171   0.434   2.361   4.863 -2.8008  0.9011 -0.5383
 8894TIP3   OH248172   0.350   5.908  13.682  0.1519 -0.1589  0.1664
 8894TIP3    H148173   0.319   5.913  13.773 -0.8230 -2.4790 -0.0094
 8894TIP3    H248174   0.285   5.959  13.632 -0.7598 -1.0505  0.4316
 8895TIP3   OH248175   5.018   3.043  12.798 -0.6233  0.3157  0.9170
 8895TIP3    H148176   4.940   2.989  12.786 -0.4333 -0.1466  1.7118
 8895TIP3    H248177   4.985   3.126  12.832 -0.7703  0.1176  1.2604
 8896TIP3   OH248178   0.626   3.687   3.247  0.1113 -0.0071 -0.0277
 8896TIP3    H148179   0.592   3.598   3.240 -0.2812  0.1217  0.2605
 8896TIP3    H248180   0.559   3.735   3.296  0.2119  0.5060 -0.3872
 8897TIP3   OH248181   2.721   6.072   2.094 -0.4500  0.1546  0.2110
 8897TIP3    H148182   2.713   6.104   2.184  0.5830  1.2367 -0.0635
 8897TIP3    H248183   2.688   5.982   2.097 -1.5210  0.5754  1.4219
 8898TIP3   OH248184   5.018   5.876  13.884  0.3649  0.4849  0.4799
 8898TIP3    H148185   4.951   5.930  13.842  0.1584  0.2406  0.4959
 8898TIP3    H248186   5.005   5.788  13.847 -0.5325  0.0125  1.8865
 8899TIP3   OH248187   5.891   5.373  12.588  0.1261 -0.2154  0.0251
 8899TIP3    H148188   5.854   5.361  12.676 -1.2230  0.0912 -0.4988
 8899TIP3    H248189   5.822   5.417  12.538  0.8208 -0.5542 -1.2467
 8900TIP3   OH248190   1.049   2.936   0.094 -0.1370 -0.1707 -0.1037
 8900TIP3    H148191   1.028   2.982   0.013  1.6854  0.2355 -0.3742
 8900TIP3    H248192   1.034   2.844   0.074 -0.9960  0.0446 -0.4686
 8901TIP3   OH248193   2.742   4.539  16.094  0.6200 -0.4506 -0.3304
 8901TIP3    H148194   2.687   4.461  16.089  0.3175 -0.3225  1.0254
 8901TIP3    H248195   2.719   4.589  16.015 -0.2542 -1.0117 -0.4396
 8902TIP3   OH248196   0.944   2.590   2.446 -0.2112  0.1004  0.1982
 8902TIP3    H148197   1.001   2.563   2.517  0.2076 -2.1432 -0.9399
 8902TIP3    H248198   0.993   2.658   2.399  0.0136  0.7121  1.3104
 8903TIP3   OH248199   4.933   1.408   5.110 -0.5740  0.3510  0.5409
 8903TIP3    H148200   4.931   1.313   5.124  0.0905  0.3202  0.4556
 8903TIP3    H248201   4.908   1.419   5.018 -1.2791  0.3087  0.7198
 8904TIP3   OH248202   6.335   0.329   2.382 -0.4507 -0.6613 -0.1694
 8904TIP3    H148203   6.252   0.370   2.357  1.1626  2.5664 -0.3980
 8904TIP3    H248204   6.318   0.294   2.470 -0.7260  4.2571  1.9159
 8905TIP3   OH248205   5.062   0.494   2.079 -0.4104 -0.3547 -0.2343
 8905TIP3    H148206   5.105   0.576   2.057 -0.5681 -0.2434 -0.1318
 8905TIP3    H248207   4.991   0.519   2.138  1.0209 -0.8136  1.7512
 8906TIP3   OH248208   4.318   3.035   4.045 -0.3904 -0.3661  0.0728
 8906TIP3    H148209   4.339   3.127   4.028 -3.3202  0.0502 -1.8357
 8906TIP3    H248210   4.256   3.038   4.118 -0.6102 -0.8003 -0.0931
 8907TIP3   OH248211   1.220   4.970  15.172 -0.0150  0.0310 -0.3914
 8907TIP3    H148212   1.286   4.922  15.221  0.1656 -0.1632 -0.8220
 8907TIP3    H248213   1.167   5.013  15.239  1.2513  1.1392 -0.0743
 8908TIP3   OH248214   2.369   4.728  10.968 -0.1008  0.5280 -0.1437
 8908TIP3    H148215   2.422   4.745  11.046  0.2268  3.3688 -0.9441
 8908TIP3    H248216   2.285   4.770  10.985 -1.2558 -1.7335  0.0257
 8909TIP3   OH248217   0.507   1.039  12.248  0.2887 -0.4201  0.2653
 8909TIP3    H148218   0.559   1.095  12.190 -0.9646 -0.2996 -0.7476
 8909TIP3    H248219   0.480   0.966  12.193 -2.2793  0.5147  0.2530
 8910TIP3   OH248220   4.473   4.351  12.340  0.4279  0.1373  0.2035
 8910TIP3    H148221   4.540   4.298  12.383 -0.1340 -0.9878 -0.2804
 8910TIP3    H248222   4.490   4.340  12.246  1.8993  2.8962  0.1018
 8911TIP3   OH248223   4.060   6.146   3.773  0.1400  1.1944 -0.4177
 8911TIP3    H148224   4.124   6.196   3.722  0.3482  1.1633 -0.1851
 8911TIP3    H248225   4.099   6.138   3.860  0.4742 -0.0478 -0.6661
 8912TIP3   OH248226   5.668   4.448  11.218 -0.2586 -0.2951 -0.2068
 8912TIP3    H148227   5.696   4.394  11.292 -1.8671 -1.2425 -0.2689
 8912TIP3    H248228   5.743   4.446  11.158  0.7452 -0.1906  1.0069
 8913TIP3   OH248229   2.385   6.101   3.644  0.3703  0.2439 -0.1721
 8913TIP3    H148230   2.416   6.024   3.596  1.6966  0.6986 -0.0853
 8913TIP3    H248231   2.353   6.066   3.727 -1.6380 -0.5105 -1.2487
 8914TIP3   OH248232   2.231   2.851   5.796 -0.4354  0.3955  0.3619
 8914TIP3    H148233   2.210   2.941   5.817  0.3941  0.7140 -0.1560
 8914TIP3    H248234   2.296   2.825   5.861  0.7099  0.7729 -0.6210
 8915TIP3   OH248235   6.421   2.566   2.944 -0.0529 -0.5114  0.6718
 8915TIP3    H148236   6.476   2.633   2.903 -1.1809 -0.7173 -1.2606
 8915TIP3    H248237   6.440   2.572   3.037 -0.8132  3.1815  0.6726
 8916TIP3   OH248238   3.459   4.691   0.373  0.5393 -0.1982  0.0646
 8916TIP3    H148239   3.397   4.641   0.319  1.7505  0.1150 -1.6756
 8916TIP3    H248240   3.406   4.757   0.417 -0.4105 -0.0728 -1.2343
 8917TIP3   OH248241   4.866   0.749  16.919  0.3102 -0.1386  0.3171
 8917TIP3    H148242   4.804   0.700  16.974  0.2674  0.2609  0.6249
 8917TIP3    H248243   4.860   0.839  16.950 -0.8695  0.3773 -1.4083
 8918TIP3   OH248244   5.032   3.117  13.799 -0.4076 -0.0681 -0.5914
 8918TIP3    H148245   5.004   3.101  13.709 -1.2478  0.8463 -0.5006
 8918TIP3    H248246   5.017   3.210  13.813  0.1868 -0.1027  0.3397
 8919TIP3   OH248247   2.971   5.256   0.561  0.5090  0.7594 -0.5306
 8919TIP3    H148248   3.032   5.248   0.488  0.6395  0.9906 -0.4507
 8919TIP3    H248249   2.985   5.346   0.593  2.3128 -0.1828  1.4158
 8920TIP3   OH248250   5.867   6.640  12.431 -0.1798  0.4185  0.4996
 8920TIP3    H148251   5.822   6.578  12.489 -0.5706 -1.5488 -1.8444
 8920TIP3    H248252   5.797   6.699  12.401 -0.1618  0.8118  1.2204
 8921TIP3   OH248253   2.866   0.521  13.778  0.2133 -0.3834 -0.7678
 8921TIP3    H148254   2.892   0.441  13.823  1.0473  0.4418  0.2582
 8921TIP3    H248255   2.814   0.491  13.704  0.3842 -1.8632 -0.3136
 8922TIP3   OH248256   5.429   0.717   3.396 -0.0640  0.0664  0.1549
 8922TIP3    H148257   5.497   0.758   3.450 -1.2985 -0.5444  2.2214
 8922TIP3    H248258   5.470   0.637   3.362  0.5931  0.2438  0.5229
 8923TIP3   OH248259   3.184   3.431  14.090 -0.0438 -0.1435  0.0325
 8923TIP3    H148260   3.213   3.522  14.086 -0.4179 -0.0651 -1.2742
 8923TIP3    H248261   3.263   3.381  14.109 -0.1720  0.6130  2.7630
 8924TIP3   OH248262   0.816   0.141  13.637 -0.2649 -0.2030  0.1626
 8924TIP3    H148263   0.723   0.133  13.616 -0.7658  1.8196  1.5227
 8924TIP3    H248264   0.836   0.061  13.686 -1.6250 -0.0205  1.0419
 8925TIP3   OH248265   5.076   3.153  10.629  0.0441 -0.3703 -0.1663
 8925TIP3    H148266   4.996   3.154  10.682 -0.1353  0.2775 -0.4464
 8925TIP3    H248267   5.045   3.169  10.540  0.3453 -1.4468 -0.4692
 8926TIP3   OH248268   4.795   6.564   0.870 -0.2716  0.2696  0.3224
 8926TIP3    H148269   4.791   6.498   0.801 -1.3975 -0.1235  0.7481
 8926TIP3    H248270   4.763   6.519   0.948 -0.3174  1.0993  0.7879
 8927TIP3   OH248271   6.443   5.163   2.911  0.1368 -0.3918  0.0957
 8927TIP3    H148272   6.483   5.246   2.885 -1.2711  0.2456 -0.1152
 8927TIP3    H248273   6.513   5.099   2.906  0.7951  0.4400 -1.5983
 8928TIP3   OH248274   0.158   6.541   1.776 -0.0353  0.6098  0.8273
 8928TIP3    H148275   0.148   6.593   1.696 -1.8655  0.0850  0.6950
 8928TIP3    H248276   0.168   6.451   1.744  0.0516  0.5026  1.1621
 8929TIP3   OH248277   1.297   0.993   0.118  0.5699 -0.3823  0.5394
 8929TIP3    H148278   1.341   1.066   0.162  0.8651  0.2827 -0.8037
 8929TIP3    H248279   1.226   1.034   0.069 -0.9627 -1.3428  1.9434
 8930TIP3   OH248280   6.074   5.382   0.651 -0.6748 -0.0592 -0.0139
 8930TIP3    H148281   6.040   5.439   0.582 -1.9739 -1.1811 -0.3272
 8930TIP3    H248282   6.139   5.328   0.606 -0.9676 -0.2687 -0.1869
 8931TIP3   OH248283   2.407   1.603   2.876  0.3065 -0.0300 -0.1293
 8931TIP3    H148284   2.375   1.527   2.828  0.0491  0.4949 -0.7959
 8931TIP3    H248285   2.502   1.592   2.879  0.2050 -0.7774  0.4671
 8932TIP3   OH248286   5.268   2.879  15.257 -0.0510 -0.1832  0.5487
 8932TIP3    H148287   5.339   2.840  15.205  0.8621  2.0565  0.0414
 8932TIP3    H248288   5.197   2.816  15.252  1.3302 -1.7127 -0.3358
 8933TIP3   OH248289   1.064   0.223  15.824  0.0924  0.2204  0.4784
 8933TIP3    H148290   0.987   0.278  15.836 -0.7812 -1.3398  2.2129
 8933TIP3    H248291   1.069   0.209  15.730  0.5015  3.4551 -0.0507
 8934TIP3   OH248292   5.892   0.361   4.231  0.1499  0.2058 -0.6192
 8934TIP3    H148293   5.805   0.363   4.192 -0.4994  0.1082  0.7730
 8934TIP3    H248294   5.932   0.444   4.207 -0.3084  0.2286 -1.3091
 8935TIP3   OH248295   5.223   1.636  10.952 -0.3159 -0.0897 -0.4793
 8935TIP3    H148296   5.192   1.578  10.883  1.2605 -0.7641 -0.6467
 8935TIP3    H248297   5.261   1.577  11.017  1.3383  0.7423 -0.6705
 8936TIP3   OH248298   4.601   0.287  16.938 -0.2850  0.0116 -0.0030
 8936TIP3    H148299   4.592   0.379  16.915  1.2923  0.1955  0.0428
 8936TIP3    H248300   4.568   0.240  16.862  1.0017  0.6279 -0.9642
 8937TIP3   OH248301   4.027   0.944   2.641 -0.0703  0.1895  0.4006
 8937TIP3    H148302   4.051   0.983   2.557 -1.9625  0.2269 -0.1264
 8937TIP3    H248303   4.056   1.009   2.706 -1.0198  1.3720 -0.3510
 8938TIP3   OH248304   0.743   4.690   3.478 -0.0104 -0.6387  0.2992
 8938TIP3    H148305   0.678   4.649   3.421 -0.6261  1.3600 -0.4804
 8938TIP3    H248306   0.761   4.624   3.545 -0.0353 -2.6663 -1.6003
 8939TIP3   OH248307   6.370   0.389   1.889 -0.6059 -0.4633  0.2108
 8939TIP3    H148308   6.353   0.348   1.804  0.0369  1.8618 -1.0729
 8939TIP3    H248309   6.462   0.369   1.908  0.0339  1.2395 -0.9462
 8940TIP3   OH248310   6.452   2.757   3.890  0.0633 -0.1918  0.4598
 8940TIP3    H148311   6.434   2.765   3.983 -1.1379  0.6930  0.1680
 8940TIP3    H248312   6.527   2.815   3.874  0.9813 -1.2035  1.0634
 8941TIP3   OH248313   3.259   2.298  15.110 -0.2784 -0.1911  0.3813
 8941TIP3    H148314   3.332   2.347  15.073 -1.4492  0.7311 -0.7386
 8941TIP3    H248315   3.181   2.347  15.084 -1.4327 -2.2970 -0.2707
 8942TIP3   OH248316   1.121   6.622  14.597  0.3307  0.5285 -0.1727
 8942TIP3    H148317   1.152   6.576  14.675  1.5922  0.9477 -0.4149
 8942TIP3    H248318   1.180   6.697  14.588 -0.8954  1.4678 -0.5262
 8943TIP3   OH248319   4.636   0.494  13.903  0.5011  0.2189  0.2431
 8943TIP3    H148320   4.605   0.502  13.812 -0.5414 -0.2151  0.5479
 8943TIP3    H248321   4.711   0.552  13.908 -1.3948  2.7724 -0.0231
 8944TIP3   OH248322   1.648   6.681  14.042  0.3389 -0.2851 -0.3738
 8944TIP3    H148323   1.741   6.663  14.043  0.1667 -1.1370  0.7312
 8944TIP3    H248324   1.635   6.743  14.115 -0.2338 -1.6358  0.6954
 8945TIP3   OH248325   6.391   3.336  13.777 -0.3381 -0.0802  0.3589
 8945TIP3    H148326   6.313   3.297  13.736 -0.9525  0.4190  1.0323
 8945TIP3    H248327   6.410   3.279  13.851  0.0198 -0.2795  0.1137
 8946TIP3   OH248328   1.741   1.100   2.737  0.8696 -0.1801  0.3307
 8946TIP3    H148329   1.738   1.084   2.831  2.2183 -2.7506 -0.0299
 8946TIP3    H248330   1.775   1.189   2.729 -0.8781  0.7253  2.2762
 8947TIP3   OH248331   2.751   3.888   6.400  0.1844  0.0419 -0.1812
 8947TIP3    H148332   2.706   3.804   6.413  0.7633 -0.2514 -0.0594
 8947TIP3    H248333   2.829   3.882   6.455  0.5510  0.4132 -0.6584
 8948TIP3   OH248334   6.202   1.090   2.342 -0.2572 -0.0545  0.0971
 8948TIP3    H148335   6.227   1.156   2.277 -1.0579 -0.2681 -0.4350
 8948TIP3    H248336   6.223   1.007   2.300 -0.8544 -0.1955  0.0788
 8949TIP3   OH248337   4.569   1.883  15.351  0.4059 -0.2434 -0.1176
 8949TIP3    H148338   4.504   1.820  15.320  0.1721 -1.0329  1.8967
 8949TIP3    H248339   4.646   1.867  15.298  0.3567 -2.2624  0.3988
 8950TIP3   OH248340   0.287   6.211   0.205  0.0117  0.1313  0.0734
 8950TIP3    H148341   0.208   6.249   0.242  0.8027  1.9892 -0.0838
 8950TIP3    H248342   0.260   6.176   0.120 -0.4761  1.4390 -0.3130
 8951TIP3   OH248343   3.488   3.691   6.249  0.0279 -0.1908  0.1546
 8951TIP3    H148344   3.454   3.781   6.244  0.1548 -0.1801 -0.7047
 8951TIP3    H248345   3.583   3.701   6.248  0.0425 -0.3554 -0.5326
 8952TIP3   OH248346   5.520   2.789   1.505 -0.1723  0.6222 -0.3708
 8952TIP3    H148347   5.526   2.800   1.410  0.0681 -0.5608 -0.4987
 8952TIP3    H248348   5.477   2.704   1.517  0.9684  0.1673  0.5816
 8953TIP3   OH248349   4.190   0.175   4.718 -0.0503 -0.0686  0.0459
 8953TIP3    H148350   4.251   0.247   4.732 -1.1157  0.9316 -0.3765
 8953TIP3    H248351   4.198   0.154   4.625  0.9262 -1.1329  0.3506
 8954TIP3   OH248352   3.370   3.772  12.935  0.0022 -0.2102 -0.1741
 8954TIP3    H148353   3.410   3.718  12.867  0.8418  0.3621 -0.1394
 8954TIP3    H248354   3.329   3.709  12.994 -0.3246 -0.7349 -0.9447
 8955TIP3   OH248355   2.049   3.631  13.708 -0.4828  0.2413 -0.5169
 8955TIP3    H148356   2.017   3.664  13.792 -0.4291 -0.1513 -0.3418
 8955TIP3    H248357   2.143   3.650  13.709 -0.3034 -0.6708 -0.0616
 8956TIP3   OH248358   1.058   4.862  11.687 -0.4363 -0.2418  0.0226
 8956TIP3    H148359   1.032   4.951  11.662  0.3515  0.2483  0.9190
 8956TIP3    H248360   1.151   4.858  11.667 -0.3478 -0.6831  0.5084
 8957TIP3   OH248361   5.657   5.940  14.432 -0.1626 -0.4297 -0.3915
 8957TIP3    H148362   5.736   5.885  14.431  0.0738 -0.1356  0.9967
 8957TIP3    H248363   5.645   5.965  14.341 -0.4459 -3.0157 -1.1268
 8958TIP3   OH248364   2.065   3.098   6.187  0.3475 -0.3837 -0.4512
 8958TIP3    H148365   2.151   3.132   6.212  0.4657 -0.0463 -1.2926
 8958TIP3    H248366   2.085   3.028   6.125  0.0573 -1.1344  0.2951
 8959TIP3   OH248367   0.820   5.642   3.899  0.1336 -0.4438  0.3831
 8959TIP3    H148368   0.730   5.672   3.911 -0.3030 -1.8170  0.6223
 8959TIP3    H248369   0.871   5.722   3.889 -0.9676  0.3818  1.2849
 8960TIP3   OH248370   1.213   5.873  12.046 -0.0002  0.4274  0.0138
 8960TIP3    H148371   1.194   5.928  11.970 -0.2724 -0.5163 -0.6126
 8960TIP3    H248372   1.301   5.899  12.073 -0.0875  1.0987 -0.3292
 8961TIP3   OH248373   3.318   0.958  15.631  0.0840  0.1407  0.7542
 8961TIP3    H148374   3.393   0.936  15.575  0.3699  0.4807  0.9972
 8961TIP3    H248375   3.270   0.876  15.640  1.1690 -0.4107  1.6886
 8962TIP3   OH248376   0.667   6.764   2.799 -0.2840  0.0179  0.0390
 8962TIP3    H148377   0.681   6.766   2.705  1.9347 -0.1140  0.3503
 8962TIP3    H248378   0.613   6.686   2.814 -0.2930 -0.1902 -1.0653
 8963TIP3   OH248379   3.867   5.813  11.827 -0.0455  0.6203  0.5055
 8963TIP3    H148380   3.881   5.859  11.744  0.1903  0.9411  0.7222
 8963TIP3    H248381   3.857   5.883  11.892 -1.2565  0.3941  0.5863
 8964TIP3   OH248382   1.412   2.297   2.975 -0.1667 -0.3108 -0.5381
 8964TIP3    H148383   1.441   2.316   2.885  0.5376 -0.7947 -0.4165
 8964TIP3    H248384   1.346   2.228   2.965 -0.7507  0.2731 -0.7555
 8965TIP3   OH248385   5.975   2.917  15.332 -0.2677  0.0203 -0.0968
 8965TIP3    H148386   6.039   2.926  15.262  0.0941  1.0864  0.3700
 8965TIP3    H248387   5.902   2.870  15.292 -0.3552  1.2237 -1.3717
 8966TIP3   OH248388   1.058   2.041  16.615 -0.1196  0.0634  0.2287
 8966TIP3    H148389   1.090   2.110  16.673  0.3961  0.4625 -0.5210
 8966TIP3    H248390   0.970   2.021  16.647  0.0185  0.5451  0.9125
 8967TIP3   OH248391   3.967   3.040   1.764  0.2761 -0.0823 -0.4695
 8967TIP3    H148392   3.988   2.984   1.689  1.0243 -0.0598 -0.2833
 8967TIP3    H248393   3.973   3.129   1.731  0.1815 -0.0842 -0.4912
 8968TIP3   OH248394   5.234   1.920   0.828  0.5897 -0.3587 -0.3009
 8968TIP3    H148395   5.219   1.836   0.785  0.1149  0.7505 -2.3593
 8968TIP3    H248396   5.242   1.983   0.756  1.8979  1.2118  1.1836
 8969TIP3   OH248397   6.676   4.028  16.615 -0.2550  0.1326  0.6054
 8969TIP3    H148398   6.695   3.969  16.542 -0.2746  0.0114  0.6981
 8969TIP3    H248399   6.727   3.993  16.688 -0.8696 -0.2183  0.8672
 8970TIP3   OH248400   3.491   2.007   4.933 -0.2449  0.3400 -0.0436
 8970TIP3    H148401   3.435   2.031   4.859  1.0302 -0.3249 -1.2611
 8970TIP3    H248402   3.557   2.076   4.937  0.4559 -0.3030 -0.3583
 8971TIP3   OH248403   2.213   4.332   1.713  0.0278 -0.2377 -0.0648
 8971TIP3    H148404   2.297   4.291   1.692  0.4571  0.4017  0.4009
 8971TIP3    H248405   2.153   4.258   1.725  0.5778 -0.7028 -0.1582
 8972TIP3   OH248406   5.373   2.601  12.654  0.7399  0.1245  0.5658
 8972TIP3    H148407   5.341   2.549  12.728  3.3366 -1.9201  0.3140
 8972TIP3    H248408   5.430   2.667  12.694  1.2648 -0.2792  0.4870
 8973TIP3   OH248409   4.826   2.683   3.654 -0.8203 -0.1438 -0.2145
 8973TIP3    H148410   4.754   2.675   3.591 -1.7705  1.0199  0.7134
 8973TIP3    H248411   4.876   2.758   3.623 -1.0465  0.1703  0.1862
 8974TIP3   OH248412   1.606   2.767   1.534 -0.2576  0.1672 -0.2904
 8974TIP3    H148413   1.563   2.720   1.463 -0.2711  2.2037 -1.6600
 8974TIP3    H248414   1.565   2.853   1.535  0.8943  0.7263  1.1082
 8975TIP3   OH248415   2.604   2.028   1.388  0.3720  0.0318  0.3347
 8975TIP3    H148416   2.580   2.015   1.296  0.3145 -1.2532  0.5330
 8975TIP3    H248417   2.628   2.121   1.393  1.6318 -0.1985 -1.2539
 8976TIP3   OH248418   6.384   0.044  14.476  0.0734 -0.6226 -0.1300
 8976TIP3    H148419   6.353   0.110  14.414 -0.6363 -1.9169 -1.1980
 8976TIP3    H248420   6.476   0.031  14.452 -0.6359 -2.3697 -2.1304
 8977TIP3   OH248421   3.517   4.422  15.358  0.3085 -0.5609 -0.2470
 8977TIP3    H148422   3.572   4.379  15.424  1.2689  2.1302  0.7998
 8977TIP3    H248423   3.428   4.405  15.387  0.7168  2.6576  3.2896
 8978TIP3   OH248424   6.133   3.125   2.265 -0.2558 -0.5357  0.0652
 8978TIP3    H148425   6.150   3.199   2.206 -0.1979  0.2504  1.0687
 8978TIP3    H248426   6.043   3.137   2.293 -0.4376 -1.1799 -0.2242
 8979TIP3   OH248427   6.005   2.604   1.501  0.3810  0.0328 -0.5203
 8979TIP3    H148428   5.916   2.626   1.472  0.5353  0.8481 -0.4010
 8979TIP3    H248429   6.061   2.632   1.428  0.6546  0.8259 -0.0169
 8980TIP3   OH248430   2.982   5.523  15.820  0.5711  0.5085 -0.3079
 8980TIP3    H148431   3.013   5.571  15.897  1.2329  2.7841 -1.9247
 8980TIP3    H248432   3.038   5.446  15.815 -0.2338 -0.3004  2.1106
 8981TIP3   OH248433   1.693   1.348   0.993  0.2612  0.2167  0.2274
 8981TIP3    H148434   1.624   1.412   1.009  1.3737  1.3920  0.3366
 8981TIP3    H248435   1.680   1.322   0.902  1.8774  3.1798 -0.9391
 8982TIP3   OH248436   1.305   4.003  13.629 -0.0210 -0.3447 -0.2688
 8982TIP3    H148437   1.269   4.085  13.593 -0.3990 -0.2980  0.2174
 8982TIP3    H248438   1.229   3.948  13.644  0.0726 -0.1086  1.1134
 8983TIP3   OH248439   4.174   6.090   4.631  0.1497  0.5333  0.0908
 8983TIP3    H148440   4.154   6.069   4.540  0.7236 -0.4211  0.1693
 8983TIP3    H248441   4.269   6.078   4.638  0.3193  1.9655  0.4736
 8984TIP3   OH248442   5.140   2.552  10.602 -0.5925 -0.2103  0.1696
 8984TIP3    H148443   5.066   2.612  10.599 -1.1625 -0.9484 -0.7003
 8984TIP3    H248444   5.215   2.605  10.575 -0.9916  0.2569 -0.0168
 8985TIP3   OH248445   5.369   2.917   2.696 -0.3473  0.4391 -0.0361
 8985TIP3    H148446   5.444   2.928   2.753  0.3446  3.3388 -1.3839
 8985TIP3    H248447   5.315   2.995   2.712 -1.8580 -0.4166 -0.8249
 8986TIP3   OH248448   3.895   0.854   5.130  0.1080 -0.2630  0.4195
 8986TIP3    H148449   3.905   0.926   5.068 -0.2543 -1.1014 -0.6323
 8986TIP3    H248450   3.890   0.896   5.216  0.1719  0.9381 -0.1611
 8987TIP3   OH248451   3.168   3.294   2.213 -0.6598  0.0884  0.2874
 8987TIP3    H148452   3.214   3.339   2.283 -1.7013  1.6106  0.0307
 8987TIP3    H248453   3.235   3.242   2.168  0.2207  0.0227  1.6751
 8988TIP3   OH248454   2.869   5.832  12.409 -0.4940  0.3740  0.0278
 8988TIP3    H148455   2.810   5.770  12.366  2.1034 -0.5078 -2.3879
 8988TIP3    H248456   2.907   5.882  12.338  2.0216  0.6252  1.4929
 8989TIP3   OH248457   1.379   3.834  11.578 -0.1966  0.6825 -0.1848
 8989TIP3    H148458   1.350   3.900  11.515 -0.6177  1.4973  0.8322
 8989TIP3    H248459   1.410   3.885  11.653 -0.4066 -0.2697  0.5641
 8990TIP3   OH248460   1.294   4.478   3.745 -0.3155 -0.3714  0.4754
 8990TIP3    H148461   1.290   4.425   3.825  1.6493 -1.9364 -0.4100
 8990TIP3    H248462   1.329   4.562   3.773 -0.7645 -0.4952  1.4323
 8991TIP3   OH248463   2.164   5.977  14.610 -0.0898 -0.2836  0.3043
 8991TIP3    H148464   2.231   5.990  14.544  0.6232 -1.5360  0.7443
 8991TIP3    H248465   2.125   6.063  14.624  1.9785  0.6171  0.6178
 8992TIP3   OH248466   5.516   1.385  12.188  0.0332 -0.1229 -0.2569
 8992TIP3    H148467   5.497   1.311  12.247 -1.3847 -0.3725 -1.0015
 8992TIP3    H248468   5.493   1.462  12.238 -0.3505 -0.2946 -0.1640
 8993TIP3   OH248469   4.162   2.653   5.465  0.0424  0.2790  0.6137
 8993TIP3    H148470   4.197   2.634   5.552  2.9407  0.8915 -0.3531
 8993TIP3    H248471   4.126   2.570   5.435 -0.8215  0.0177  2.2913
 8994TIP3   OH248472   3.165   1.662  13.763 -1.1841 -0.1784  0.1403
 8994TIP3    H148473   3.226   1.725  13.723 -0.3074 -0.2624  1.2894
 8994TIP3    H248474   3.221   1.587  13.786 -0.9308  1.2358  4.5889
 8995TIP3   OH248475   2.499   3.917   4.594  0.5850 -0.0641  0.4944
 8995TIP3    H148476   2.421   3.954   4.637  0.0581 -0.7058  0.1018
 8995TIP3    H248477   2.507   3.965   4.512 -0.0782 -0.7792  0.0009
 8996TIP3   OH248478   6.049   1.163   3.890 -0.6770  0.1915 -0.3602
 8996TIP3    H148479   6.075   1.191   3.978 -0.6356 -0.5875 -0.1193
 8996TIP3    H248480   5.956   1.142   3.899  0.0040 -2.7186  0.2253
 8997TIP3   OH248481   0.931   2.670  12.617 -0.0379 -0.7975  0.3470
 8997TIP3    H148482   0.901   2.758  12.637  0.6331 -0.4551 -0.1522
 8997TIP3    H248483   1.021   2.667  12.651 -0.1386 -1.3702  0.5813
 8998TIP3   OH248484   1.597   1.609   6.439  0.0387 -0.8445 -0.4065
 8998TIP3    H148485   1.624   1.700   6.447 -0.6031 -0.6177 -0.8082
 8998TIP3    H248486   1.676   1.559   6.459 -0.0893 -0.2352  1.7629
 8999TIP3   OH248487   2.083   3.014  16.219  0.3054  0.3155 -0.4865
 8999TIP3    H148488   2.056   3.079  16.154 -0.2557  0.0891 -0.4832
 8999TIP3    H248489   2.055   2.930  16.182 -1.4987  0.3297  0.7937
 9000TIP3   OH248490   5.734   2.227  11.571  0.4911  0.2461 -0.2535
 9000TIP3    H148491   5.658   2.221  11.513  1.0725  0.7068 -1.0724
 9000TIP3    H248492   5.807   2.246  11.513  0.9935  1.2703  0.6997
 9001TIP3   OH248493   6.055   3.711  11.475  0.4837 -0.5000 -0.7888
 9001TIP3    H148494   6.095   3.704  11.562  1.0130  0.4877 -0.9455
 9001TIP3    H248495   6.087   3.795  11.441  0.0173 -0.7323 -1.8018
 9002TIP3   OH248496   5.379   2.421  16.341  0.1132 -0.2713  0.2175
 9002TIP3    H148497   5.315   2.431  16.271  0.2033  1.8392  0.4149
 9002TIP3    H248498   5.353   2.485  16.407  2.6848  0.9120  0.1126
 9003TIP3   OH248499   1.495   6.092   3.951  0.0271 -0.2087  0.2668
 9003TIP3    H148500   1.557   6.155   3.915  0.5473 -1.0388 -0.3108
 9003TIP3    H248501   1.547   6.038   4.011 -0.8344  1.1750  2.3095
 9004TIP3   OH248502   6.623   0.352  13.630  0.0483  0.0458 -0.0392
 9004TIP3    H148503   6.571   0.297  13.572 -0.4386  1.2449 -0.7643
 9004TIP3    H248504   6.628   0.437  13.585  1.2275  0.4447  0.8008
 9005TIP3   OH248505   1.069   4.755   3.981  0.4161 -0.2562  0.4601
 9005TIP3    H148506   1.015   4.756   4.060  0.4221 -0.9523  0.4846
 9005TIP3    H248507   1.159   4.751   4.012  0.3593 -2.5868  0.4528
 9006TIP3   OH248508   4.677   3.045   5.331  0.5336  0.2175 -0.0605
 9006TIP3    H148509   4.768   3.041   5.301  0.1909  1.7646 -1.3989
 9006TIP3    H248510   4.663   3.137   5.353 -1.2492  0.3808 -1.7159
 9007TIP3   OH248511   6.179   4.739   2.221  0.3911  0.4619  0.1456
 9007TIP3    H148512   6.218   4.725   2.307  0.3490  0.2669  0.1317
 9007TIP3    H248513   6.145   4.828   2.225  0.4943  0.4955  0.2909
 9008TIP3   OH248514   6.058   1.458  11.428  0.0305 -0.1508  0.0843
 9008TIP3    H148515   6.076   1.527  11.492  0.7255 -0.1353 -0.1284
 9008TIP3    H248516   6.144   1.428  11.400 -0.2663 -1.4988  0.5866
 9009TIP3   OH248517   4.914   0.208  12.941 -0.1952 -0.0300 -0.1210
 9009TIP3    H148518   4.959   0.248  13.015 -0.2153  2.5097 -1.4524
 9009TIP3    H248519   4.866   0.135  12.980  0.6447  0.5927  2.1960
 9010TIP3   OH248520   6.512   6.769  12.785  0.0029  0.2052 -0.4043
 9010TIP3    H148521   6.425   6.770  12.825  0.6277 -0.2118  1.0085
 9010TIP3    H248522   6.528   6.860  12.760 -0.8756  0.2640 -0.7917
 9011TIP3   OH248523   5.452   2.327   2.270 -0.1200  0.0833 -0.5008
 9011TIP3    H148524   5.431   2.239   2.238  0.6892 -0.5242  0.6053
 9011TIP3    H248525   5.387   2.384   2.229 -0.9905 -1.1100 -0.7858
 9012TIP3   OH248526   0.222   0.657  15.053  0.9413 -0.7987  0.2197
 9012TIP3    H148527   0.272   0.701  15.123 -0.8124  2.6517 -0.5691
 9012TIP3    H248528   0.275   0.670  14.974  1.7409 -2.5600  0.4536
 9013TIP3   OH248529   1.250   6.808   6.297 -0.2804 -0.1018 -0.7424
 9013TIP3    H148530   1.198   6.818   6.377  0.1749 -0.0609 -0.4526
 9013TIP3    H248531   1.324   6.868   6.308  0.0582 -0.4721 -0.9662
 9014TIP3   OH248532   6.402   4.215  16.862  0.7601 -0.2493 -0.4324
 9014TIP3    H148533   6.429   4.148  16.799  0.3426  1.3744 -2.3890
 9014TIP3    H248534   6.484   4.249  16.897  0.9750 -2.6507  1.6122
 9015TIP3   OH248535   3.961   1.538   2.112 -0.0946 -0.1355  0.0314
 9015TIP3    H148536   4.043   1.586   2.124  0.5777 -1.2850  0.0953
 9015TIP3    H248537   3.894   1.606   2.105  0.7464  0.7893  0.8743
 9016TIP3   OH248538   1.213   0.320  13.186  0.2174  0.2426 -0.0865
 9016TIP3    H148539   1.276   0.390  13.170 -0.3024  1.1692  1.8032
 9016TIP3    H248540   1.156   0.321  13.108 -0.6429  2.8632  0.5188
 9017TIP3   OH248541   1.044   2.525  16.242  0.5242  0.8499 -0.0303
 9017TIP3    H148542   0.949   2.524  16.250  0.3852 -1.6399 -1.7726
 9017TIP3    H248543   1.075   2.527  16.333 -1.1588  2.1617  0.5425
 9018TIP3   OH248544   6.645   1.672   1.839 -0.2892 -0.2688 -0.2211
 9018TIP3    H148545   6.623   1.581   1.859  1.9149 -0.8528 -0.3427
 9018TIP3    H248546   6.695   1.667   1.758 -0.7688  1.1323 -0.6139
 9019TIP3   OH248547   1.727   2.717   5.085 -0.1656  0.8651 -0.1552
 9019TIP3    H148548   1.738   2.692   4.994  2.0104  2.3482 -0.3434
 9019TIP3    H248549   1.633   2.730   5.096 -0.3778  1.1999 -2.3206
 9020TIP3   OH248550   1.993   4.114  10.529 -0.2032 -0.3975 -0.5734
 9020TIP3    H148551   2.018   4.082  10.442 -1.5259  1.3887 -1.6652
 9020TIP3    H248552   1.926   4.181  10.511  0.1252  0.6071  1.7774
 9021TIP3   OH248553   6.281   4.680  11.773 -0.2856 -0.4692  0.9890
 9021TIP3    H148554   6.186   4.681  11.768 -0.2369 -0.3320  0.0164
 9021TIP3    H248555   6.303   4.591  11.801 -0.6149 -1.1396 -0.8234
 9022TIP3   OH248556   2.859   1.867   3.177 -0.5170 -0.4860  0.5296
 9022TIP3    H148557   2.877   1.779   3.143  1.2379 -0.8223  2.2457
 9022TIP3    H248558   2.940   1.916   3.159 -2.0472  1.2548 -1.8433
 9023TIP3   OH248559   5.328   1.291   1.264  0.0584  0.0755  0.4590
 9023TIP3    H148560   5.359   1.280   1.174  0.9796 -3.1182  1.0850
 9023TIP3    H248561   5.402   1.331   1.310  0.3750 -0.2456  0.2368
 9024TIP3   OH248562   0.484   3.165  10.983 -0.0276  0.3877 -0.9136
 9024TIP3    H148563   0.434   3.227  10.929  0.1667  0.9070 -0.4973
 9024TIP3    H248564   0.556   3.217  11.018 -1.2317  0.5259  1.4138
 9025TIP3   OH248565   2.126   6.522   2.110 -0.4037 -0.3872 -0.4250
 9025TIP3    H148566   2.203   6.468   2.094 -0.3109 -0.3534 -0.1116
 9025TIP3    H248567   2.051   6.465   2.093 -0.3163 -0.2109 -1.4343
 9026TIP3   OH248568   0.177   6.305  16.940  0.1515  0.3205  0.2973
 9026TIP3    H148569   0.136   6.292  16.855 -1.1813  1.5290  0.7426
 9026TIP3    H248570   0.239   6.233  16.948 -0.3235 -0.2826 -1.3235
 9027TIP3   OH248571   3.510   2.127   1.380 -0.4150  0.0062 -0.6721
 9027TIP3    H148572   3.452   2.127   1.304 -1.0873  1.1417 -0.1751
 9027TIP3    H248573   3.545   2.038   1.384 -0.4020 -0.0653 -2.2808
 9028TIP3   OH248574   5.045   1.197  11.496 -0.1857 -0.2011  0.0183
 9028TIP3    H148575   5.138   1.189  11.477 -0.8728 -1.1312 -3.1057
 9028TIP3    H248576   5.036   1.284  11.534  1.4346  1.3262 -2.9890
 9029TIP3   OH248577   2.065   0.434  16.420 -0.3402  0.1171 -0.4608
 9029TIP3    H148578   2.103   0.456  16.335  0.0408  0.3768 -0.2258
 9029TIP3    H248579   2.072   0.514  16.472  1.2467 -0.5856  0.4707
 9030TIP3   OH248580   2.361   2.349  13.590 -0.3566 -0.1459 -0.1075
 9030TIP3    H148581   2.268   2.372  13.591 -0.8154 -1.7654 -1.9074
 9030TIP3    H248582   2.387   2.348  13.682 -1.8629  1.2463  0.3556
 9031TIP3   OH248583   1.635   3.891  15.066 -0.2916  0.6311  0.5631
 9031TIP3    H148584   1.610   3.958  15.002  0.1105  1.1672  0.9654
 9031TIP3    H248585   1.643   3.810  15.014  0.4105  1.1379 -0.1397
 9032TIP3   OH248586   2.754   6.796  10.816  0.1792  0.6140 -0.4027
 9032TIP3    H148587   2.776   6.772  10.727 -1.3108  1.8388 -1.1257
 9032TIP3    H248588   2.676   6.745  10.836 -0.5886  1.7464 -0.4794
 9033TIP3   OH248589   0.308   2.031   1.709 -0.0287  0.1267 -0.4698
 9033TIP3    H148590   0.296   2.121   1.740 -2.8228  0.0810 -1.2785
 9033TIP3    H248591   0.402   2.023   1.695  0.4011  2.5518  0.7254
 9034TIP3   OH248592   1.405   5.529   2.528  0.2055 -0.0966 -0.2299
 9034TIP3    H148593   1.315   5.549   2.500  0.7254  0.2075 -1.7647
 9034TIP3    H248594   1.436   5.464   2.465  0.2525 -2.0520  1.7510
 9035TIP3   OH248595   0.375   6.134  14.419  0.2676 -0.5232  0.1252
 9035TIP3    H148596   0.356   6.130  14.325  0.0598 -1.9354  0.2186
 9035TIP3    H248597   0.467   6.160  14.423 -0.7249  3.4916 -0.3662
 9036TIP3   OH248598   4.258   5.633  14.624 -0.0864 -0.2122  0.1089
 9036TIP3    H148599   4.303   5.566  14.572 -1.3647 -1.4230  0.5736
 9036TIP3    H248600   4.262   5.712  14.568 -0.1588 -1.1227 -1.2074
 9037TIP3   OH248601   1.863   1.839   5.199 -0.3591 -0.3541  1.0907
 9037TIP3    H148602   1.892   1.748   5.187 -3.7360 -1.4362  0.5971
 9037TIP3    H248603   1.851   1.847   5.293  0.0994 -0.3513  1.1524
 9038TIP3   OH248604   4.827   3.056   1.176 -0.1956 -0.5139 -0.1220
 9038TIP3    H148605   4.741   3.015   1.166 -0.1081 -0.5728 -0.6154
 9038TIP3    H248606   4.879   3.019   1.105  0.4085 -0.9373  0.5364
 9039TIP3   OH248607   3.276   1.860  11.657  0.2839 -0.1847  0.2587
 9039TIP3    H148608   3.368   1.887  11.651  0.6450 -1.3185  0.4639
 9039TIP3    H248609   3.231   1.934  11.697  1.3104 -0.0396  1.1685
 9040TIP3   OH248610   5.625   1.925   2.318  0.5306 -0.1057  0.5475
 9040TIP3    H148611   5.685   1.855   2.344  0.3176 -0.3375  0.4133
 9040TIP3    H248612   5.589   1.896   2.234 -0.6603 -0.5184  1.1900
 9041TIP3   OH248613   1.526   1.094   1.621 -0.1416 -0.2298 -0.3099
 9041TIP3    H148614   1.480   1.110   1.703 -3.7380 -1.9086 -1.8352
 9041TIP3    H248615   1.543   1.000   1.622 -0.2798 -0.2724 -1.4861
 9042TIP3   OH248616   3.056   5.306   1.728 -0.2248  0.0561 -0.4458
 9042TIP3    H148617   3.137   5.263   1.755 -0.1754 -0.3343 -1.2287
 9042TIP3    H248618   3.083   5.392   1.697 -0.0348 -0.3495 -1.3927
 9043TIP3   OH248619   2.319   4.894  14.031 -0.0829  0.3453  0.0051
 9043TIP3    H148620   2.381   4.831  14.067  0.9090  1.2410 -0.1165
 9043TIP3    H248621   2.362   4.927  13.952 -0.6966  0.9947 -0.0619
 9044TIP3   OH248622   0.042   1.989   0.756  0.1347 -0.0594 -0.5515
 9044TIP3    H148623   0.007   1.951   0.676  1.9094 -0.1092 -1.3073
 9044TIP3    H248624   0.023   2.083   0.748  0.8951  0.0239 -1.3143
 9045TIP3   OH248625   3.167   5.169  16.321  0.1606 -0.3332 -0.7045
 9045TIP3    H148626   3.101   5.110  16.285 -0.4969  0.5569 -0.9702
 9045TIP3    H248627   3.128   5.256  16.316  1.6740  0.3137 -1.6304
 9046TIP3   OH248628   4.128   3.533   3.766 -0.0492 -0.4473 -0.2853
 9046TIP3    H148629   4.085   3.532   3.852 -0.6420  0.6236 -0.5670
 9046TIP3    H248630   4.213   3.492   3.782 -0.3328 -0.6692  0.7187
 9047TIP3   OH248631   5.831   2.760  15.564  0.5071 -0.1892  0.1871
 9047TIP3    H148632   5.839   2.692  15.497  2.6413 -0.7207  0.9376
 9047TIP3    H248633   5.892   2.829  15.537 -1.6385  1.4681 -0.5708
 9048TIP3   OH248634   2.083   5.962  13.181  0.5749 -0.1201 -0.6105
 9048TIP3    H148635   2.038   6.046  13.192 -0.3929 -0.6159 -0.7021
 9048TIP3    H248636   2.040   5.904  13.243  1.8820 -0.3049  0.1232
 9049TIP3   OH248637   2.762   1.151   4.499 -0.2494 -0.1581 -0.7654
 9049TIP3    H148638   2.798   1.068   4.468  1.1388 -0.0382  0.4449
 9049TIP3    H248639   2.679   1.127   4.541 -0.7298 -0.6852 -2.0001
 9050TIP3   OH248640   4.209   2.388   3.334 -0.9583 -0.1956  0.6583
 9050TIP3    H148641   4.194   2.355   3.422 -0.7803 -0.3583  0.6275
 9050TIP3    H248642   4.270   2.461   3.345 -0.8192 -0.3102  0.6549
 9051TIP3   OH248643   4.013   6.112  11.427  0.3904  0.1176 -0.0674
 9051TIP3    H148644   4.026   6.184  11.365 -0.7548  0.3498 -0.0517
 9051TIP3    H248645   4.060   6.140  11.506 -0.3654  1.0377  0.0726
 9052TIP3   OH248646   5.022   1.677  15.580  0.6041  0.4753  0.0913
 9052TIP3    H148647   4.966   1.728  15.522 -1.9602 -0.5085  1.6017
 9052TIP3    H248648   5.078   1.741  15.623 -0.5727  1.7066 -0.1804
 9053TIP3   OH248649   5.313   1.610  15.571 -0.1130 -0.5060  0.1101
 9053TIP3    H148650   5.227   1.586  15.535  0.0814 -1.1461  0.0682
 9053TIP3    H248651   5.363   1.528  15.570 -0.1501 -0.5927  1.9840
 9054TIP3   OH248652   3.509   2.387  12.749  0.1357  0.4761 -0.1546
 9054TIP3    H148653   3.571   2.317  12.728 -0.9015 -1.0450  1.7012
 9054TIP3    H248654   3.477   2.417  12.664  1.0447 -0.8889 -1.0118
 9055TIP3   OH248655   0.681   2.588  13.073  0.5394 -0.0081 -0.6183
 9055TIP3    H148656   0.703   2.555  12.985  2.0708  0.7839 -0.5554
 9055TIP3    H248657   0.627   2.665  13.056  0.8137  0.1320 -0.8635
 9056TIP3   OH248658   5.988   1.547   3.958  0.2645 -0.7176  0.1554
 9056TIP3    H148659   5.984   1.627   3.906 -0.7127 -1.2418 -0.6008
 9056TIP3    H248660   5.927   1.562   4.030  0.6869 -0.4713  0.4624
 9057TIP3   OH248661   1.588   1.339  16.047  0.1355  0.3683 -0.3002
 9057TIP3    H148662   1.524   1.338  15.977  0.7357 -1.4812 -0.8772
 9057TIP3    H248663   1.560   1.269  16.106  0.2686  1.1518  0.7020
 9058TIP3   OH248664   2.541   3.838  17.265 -0.2390 -0.0888 -0.9644
 9058TIP3    H148665   2.488   3.782  17.209 -1.8558  0.1175  0.3437
 9058TIP3    H248666   2.478   3.884  17.320  1.2319  0.9490 -0.1105
 9059TIP3   OH248667   4.527   5.439  12.624  0.0688  0.0617 -0.5532
 9059TIP3    H148668   4.528   5.367  12.687 -2.7907 -0.0419 -0.5857
 9059TIP3    H248669   4.575   5.510  12.667  0.1903 -0.8029  0.7479
 9060TIP3   OH248670   4.172   5.944   3.168 -0.4475 -0.4404 -0.1071
 9060TIP3    H148671   4.249   5.919   3.219  0.0351 -0.9208 -1.0544
 9060TIP3    H248672   4.114   5.868   3.174 -1.6993  0.6237  2.1653
 9061TIP3   OH248673   6.509   1.240   4.381  0.3343 -0.3372 -0.1202
 9061TIP3    H148674   6.425   1.275   4.351  1.1069  1.0758 -0.6808
 9061TIP3    H248675   6.549   1.203   4.303  1.1019  0.7903 -0.2730
 9062TIP3   OH248676   2.043   2.527  14.626 -0.4202  0.3628 -0.0274
 9062TIP3    H148677   2.066   2.473  14.702 -0.5549  0.6963  0.2540
 9062TIP3    H248678   2.057   2.470  14.551  1.3649  0.5589  0.1374
 9063TIP3   OH248679   1.023   5.994  12.960  0.1764  0.1528  0.3840
 9063TIP3    H148680   1.046   5.904  12.984  3.0277  0.5588 -0.6070
 9063TIP3    H248681   1.045   5.999  12.867  0.0159  1.8745  0.4390
 9064TIP3   OH248682   1.205   0.624   4.271 -0.2592  0.3268  0.1779
 9064TIP3    H148683   1.244   0.563   4.209 -1.2388 -0.1594  0.0163
 9064TIP3    H248684   1.117   0.640   4.237  0.0796  2.0494  0.0787
 9065TIP3   OH248685   0.474   3.103   1.451 -0.6534 -0.7009  0.3437
 9065TIP3    H148686   0.530   3.073   1.380 -0.5430  0.2461  0.0299
 9065TIP3    H248687   0.496   3.046   1.525 -0.5079 -1.4426 -0.2670
 9066TIP3   OH248688   6.499   2.863   1.230 -0.2050 -0.1474 -0.4010
 9066TIP3    H148689   6.428   2.861   1.166 -1.8323 -1.1423  1.3892
 9066TIP3    H248690   6.465   2.917   1.301  0.9231 -0.4472  0.3698
 9067TIP3   OH248691   3.183   5.209   0.720  0.5561 -0.3599  0.6334
 9067TIP3    H148692   3.104   5.182   0.674  0.0692 -1.6115  2.1784
 9067TIP3    H248693   3.153   5.276   0.781  1.1800  1.1969 -0.7261
 9068TIP3   OH248694   6.648   4.984   5.035 -0.1125 -0.1185  1.0476
 9068TIP3    H148695   6.558   4.954   5.025 -0.1616  0.6481 -1.1839
 9068TIP3    H248696   6.659   5.050   4.966  2.0433  0.0392  1.5000
 9069TIP3   OH248697   0.798   1.553  13.588 -0.3685  0.1171 -0.6886
 9069TIP3    H148698   0.759   1.614  13.651  0.0549 -0.0725 -0.2371
 9069TIP3    H248699   0.847   1.491  13.642  0.4379  0.2698 -1.2379
 9070TIP3   OH248700   6.613   5.818  12.236  0.9736 -0.1075  0.4146
 9070TIP3    H148701   6.530   5.850  12.200  1.8527  0.4779 -1.1556
 9070TIP3    H248702   6.590   5.737  12.281 -0.7377  0.9754  1.5480
 9071TIP3   OH248703   2.880   4.211  15.154 -0.3062  0.0347 -0.4024
 9071TIP3    H148704   2.925   4.276  15.099 -1.5682 -0.5765 -2.1976
 9071TIP3    H248705   2.909   4.127  15.120 -0.9321 -0.3515  0.0149
 9072TIP3   OH248706   6.687   2.053   5.476  0.0434 -0.3068 -0.0840
 9072TIP3    H148707   6.699   2.125   5.414 -0.6943 -0.1933 -0.1098
 9072TIP3    H248708   6.737   2.079   5.553 -0.1172  0.1764 -0.1417
 9073TIP3   OH248709   2.787   0.812   2.158 -0.0472 -0.3781 -0.1571
 9073TIP3    H148710   2.862   0.865   2.130  0.2661 -0.9396 -0.3948
 9073TIP3    H248711   2.803   0.726   2.120 -0.6631 -0.5864  0.0461
 9074TIP3   OH248712   6.430   4.263  12.479  0.0472 -0.0897 -0.3833
 9074TIP3    H148713   6.388   4.332  12.428 -0.9595 -0.5871 -0.2404
 9074TIP3    H248714   6.465   4.203  12.413 -0.4453 -0.2554 -0.4942
 9075TIP3   OH248715   3.153   6.675  12.827  0.0098  0.1240  0.5142
 9075TIP3    H148716   3.164   6.702  12.736  1.2603  2.2594  1.2827
 9075TIP3    H248717   3.192   6.588  12.831  2.1600  1.0062 -0.4565
 9076TIP3   OH248718   2.401   0.234   5.473  0.3143  0.0880  0.9550
 9076TIP3    H148719   2.452   0.154   5.468  1.9331  1.1112  0.5345
 9076TIP3    H248720   2.335   0.225   5.404  2.4414  0.4026 -1.2095
 9077TIP3   OH248721   0.319   1.934   0.107  0.2130  0.6580 -0.2573
 9077TIP3    H148722   0.335   2.008   0.049  2.1973 -1.3711 -2.4135
 9077TIP3    H248723   0.395   1.932   0.165 -1.0131  1.7334  1.4280
 9078TIP3   OH248724   2.628   5.919   2.745 -0.0511 -0.3025  0.1178
 9078TIP3    H148725   2.709   5.965   2.770 -0.7720 -0.3327  2.6246
 9078TIP3    H248726   2.653   5.868   2.668  2.3836 -0.4009  0.9094
 9079TIP3   OH248727   5.449   0.333   1.883 -0.6052 -0.2067  0.0893
 9079TIP3    H148728   5.450   0.346   1.788 -0.3073 -0.3801  0.0662
 9079TIP3    H248729   5.381   0.392   1.915 -1.6808 -1.1739 -0.3773
 9080TIP3   OH248730   5.898   3.782   5.154 -0.5084  0.3920  0.9006
 9080TIP3    H148731   5.972   3.833   5.122 -1.6967  1.4178 -0.2280
 9080TIP3    H248732   5.825   3.843   5.159 -2.0368 -1.2350 -0.7719
 9081TIP3   OH248733   1.653   3.959   3.201 -0.4169 -0.1785 -0.3471
 9081TIP3    H148734   1.599   3.882   3.186 -0.8189  0.2250 -1.0230
 9081TIP3    H248735   1.604   4.031   3.160  0.6750  0.1746 -1.0692
 9082TIP3   OH248736   5.005   1.995  11.032  0.0375 -0.7598 -0.2099
 9082TIP3    H148737   5.093   2.030  11.047 -0.5671  0.0198  1.6609
 9082TIP3    H248738   5.011   1.951  10.947  2.2617 -0.8338 -0.0466
 9083TIP3   OH248739   1.087   4.452  12.006 -0.2658  0.4973  0.2287
 9083TIP3    H148740   1.059   4.403  11.928 -0.2999 -1.1576  1.2573
 9083TIP3    H248741   1.029   4.421  12.076 -0.4221  2.1776  0.8757
 9084TIP3   OH248742   3.719   2.594   1.586  0.0482 -0.3451  0.0918
 9084TIP3    H148743   3.809   2.623   1.573 -0.4928  2.0967  1.4789
 9084TIP3    H248744   3.723   2.534   1.661  0.6578 -1.1018 -0.5389
 9085TIP3   OH248745   3.683   2.229   5.026  0.2665 -0.0623 -0.1810
 9085TIP3    H148746   3.765   2.189   4.998  0.5367  0.9551 -0.8948
 9085TIP3    H248747   3.706   2.320   5.046 -0.4931 -0.0281  0.5859
 9086TIP3   OH248748   4.047   3.079   6.465  0.4364 -0.1884 -0.0888
 9086TIP3    H148749   3.959   3.055   6.493 -0.0446  0.2417 -1.1956
 9086TIP3    H248750   4.094   2.996   6.457 -0.8944 -0.7364 -2.8499
 9087TIP3   OH248751   5.284   5.833  13.989 -0.5172  0.1247 -0.3060
 9087TIP3    H148752   5.191   5.829  13.965 -0.5089 -3.8152 -0.0447
 9087TIP3    H248753   5.290   5.778  14.067  2.0269  0.3633 -0.3155
 9088TIP3   OH248754   0.093   5.551   2.733 -0.4000 -0.4178 -0.8686
 9088TIP3    H148755   0.068   5.595   2.651 -0.1965 -0.6351 -1.0498
 9088TIP3    H248756   0.186   5.531   2.722  0.0243  1.0280  0.0982
 9089TIP3   OH248757   3.909   2.602   4.817 -0.1314  0.5730 -0.0965
 9089TIP3    H148758   3.951   2.673   4.865 -0.1313 -0.7380  1.9385
 9089TIP3    H248759   3.858   2.555   4.884 -1.9677  0.0244 -1.8235
 9090TIP3   OH248760   0.218   2.118  16.963 -0.2461 -0.0747 -0.3941
 9090TIP3    H148761   0.221   2.045  17.025  1.2747 -1.8071 -2.4441
 9090TIP3    H248762   0.126   2.142  16.959 -0.8191 -2.1032  0.0829
 9091TIP3   OH248763   2.403   1.145   4.763  0.3178 -0.3144 -0.2085
 9091TIP3    H148764   2.384   1.059   4.726 -0.3419 -0.1969 -0.1432
 9091TIP3    H248765   2.498   1.143   4.779  0.4533 -0.7092 -1.0090
 9092TIP3   OH248766   3.319   5.996   2.542 -0.2104 -0.0404 -0.1001
 9092TIP3    H148767   3.305   6.078   2.588 -1.3995 -0.1912 -0.1884
 9092TIP3    H248768   3.328   5.930   2.611  0.0794  0.0578 -0.0441
 9093TIP3   OH248769   3.837   0.729  11.420 -0.0560 -0.7232 -0.4984
 9093TIP3    H148770   3.859   0.799  11.359 -0.5120 -2.2682 -2.4982
 9093TIP3    H248771   3.840   0.649  11.366  0.9669 -2.2999  1.8196
 9094TIP3   OH248772   1.454   1.772  14.833 -0.1402  0.7836 -0.0065
 9094TIP3    H148773   1.363   1.745  14.841  0.0842  0.3451  1.0189
 9094TIP3    H248774   1.484   1.730  14.752 -0.1977 -0.8836  0.8309
 9095TIP3   OH248775   0.480   2.242   3.812 -0.3139 -0.5850 -0.8685
 9095TIP3    H148776   0.491   2.253   3.717 -0.7158  0.3339 -0.8136
 9095TIP3    H248777   0.385   2.233   3.823 -0.1039 -3.0349 -0.7870
 9096TIP3   OH248778   5.359   2.595  14.445  0.0658 -0.2627 -0.1769
 9096TIP3    H148779   5.410   2.536  14.501 -0.5420 -0.0685  0.6011
 9096TIP3    H248780   5.281   2.543  14.421 -0.5971  0.3063  0.7261
 9097TIP3   OH248781   0.244   4.040  13.807 -0.5453 -0.0995  0.1612
 9097TIP3    H148782   0.306   4.104  13.770 -1.3928  0.0090 -1.0851
 9097TIP3    H248783   0.282   4.017  13.891  1.7252 -0.8026 -1.0225
 9098TIP3   OH248784   0.606   5.676  12.876  0.6334 -0.0108 -0.2558
 9098TIP3    H148785   0.511   5.679  12.884  0.5933 -1.1636 -0.2528
 9098TIP3    H248786   0.634   5.765  12.897 -0.3937  0.1828  0.3377
 9099TIP3   OH248787   2.963   4.810   5.506 -0.2769 -0.4401 -0.8201
 9099TIP3    H148788   2.893   4.758   5.547 -0.0818 -0.5478 -0.6166
 9099TIP3    H248789   2.920   4.889   5.475 -0.2365  0.1679  0.6135
 9100TIP3   OH248790   4.411   2.985   6.333 -0.9123  0.7008 -0.2055
 9100TIP3    H148791   4.495   2.940   6.338 -1.2157  0.3128  1.8080
 9100TIP3    H248792   4.433   3.077   6.328 -0.3407  0.5067 -1.3159
 9101TIP3   OH248793   0.699   3.524   4.863 -0.4265 -0.4523  0.1768
 9101TIP3    H148794   0.710   3.452   4.924 -0.2537 -0.5263  0.0578
 9101TIP3    H248795   0.609   3.517   4.833 -0.1186 -1.2117 -0.5919
 9102TIP3   OH248796   4.466   5.912   2.834  0.0311  0.6779  0.5330
 9102TIP3    H148797   4.385   5.962   2.846  0.2795  1.0321  0.7326
 9102TIP3    H248798   4.477   5.906   2.739 -0.8062 -0.3107  0.4858
 9103TIP3   OH248799   5.974   0.054  15.271 -0.3091 -0.0851  0.3211
 9103TIP3    H148800   5.889   0.098  15.265  0.2279  0.8028 -1.1220
 9103TIP3    H248801   6.038   0.125  15.264  0.5664 -0.6903  1.8962
 9104TIP3   OH248802   3.484   1.182  10.997  0.0575 -0.1754 -0.2268
 9104TIP3    H148803   3.506   1.138  10.914  0.2591  1.1430 -0.8891
 9104TIP3    H248804   3.544   1.144  11.061  0.4592 -0.6236 -0.8588
 9105TIP3   OH248805   2.851   0.005   5.314 -0.1087  0.1870  0.1085
 9105TIP3    H148806   2.838  -0.069   5.374 -0.3711 -1.2940 -1.7298
 9105TIP3    H248807   2.870  -0.036   5.230  2.1083  2.2502 -0.4250
 9106TIP3   OH248808   0.515   2.235   3.066 -0.2629 -0.2384  0.0689
 9106TIP3    H148809   0.426   2.222   3.099  0.1755 -0.4809  1.1518
 9106TIP3    H248810   0.521   2.330   3.052 -1.2482 -0.3974 -1.6189
 9107TIP3   OH248811   0.989   4.017  10.833 -0.0775  0.0869 -0.0966
 9107TIP3    H148812   1.064   3.983  10.880  1.4715  1.3567 -1.5724
 9107TIP3    H248813   0.944   4.073  10.896  2.1787  2.0673 -0.1861
 9108TIP3   OH248814   5.190   5.905   6.739  0.2683 -0.4913 -0.3549
 9108TIP3    H148815   5.140   5.825   6.723 -0.6221  0.0475 -0.2564
 9108TIP3    H248816   5.194   5.948   6.654  0.1963 -0.3171 -0.2693
 9109TIP3   OH248817   1.144   1.043  10.852 -0.7877 -0.3040 -0.0870
 9109TIP3    H148818   1.095   1.099  10.913  0.0119 -3.2132  3.3789
 9109TIP3    H248819   1.086   0.969  10.836  0.1191 -0.8778 -0.7682
 9110TIP3   OH248820   1.692   4.998   0.531 -0.9898 -0.9786 -0.0231
 9110TIP3    H148821   1.733   4.997   0.444  0.6490  1.1495  0.6838
 9110TIP3    H248822   1.746   4.938   0.583 -0.1779  0.0154  0.2897
 9111TIP3   OH248823   0.858   3.642  12.432 -0.5569 -0.1932  0.1479
 9111TIP3    H148824   0.772   3.680  12.414 -1.1270 -1.3619  0.3670
 9111TIP3    H248825   0.910   3.664  12.354 -0.4964  2.0602  0.7726
 9112TIP3   OH248826   1.444   5.699  11.859 -0.3203  0.2875 -0.5476
 9112TIP3    H148827   1.430   5.789  11.830 -0.4367  0.6567  0.6345
 9112TIP3    H248828   1.420   5.699  11.952  1.0420 -0.6319 -0.1806
 9113TIP3   OH248829   6.697   5.891   4.948 -0.0401 -0.2715 -0.0063
 9113TIP3    H148830   6.692   5.797   4.963 -0.3636 -0.5203 -1.6195
 9113TIP3    H248831   6.791   5.910   4.941 -0.0154 -0.6784 -0.8546
 9114TIP3   OH248832   6.018   4.169   5.618 -0.4790  0.5352 -0.0184
 9114TIP3    H148833   6.097   4.198   5.572 -0.7726 -0.6889 -1.3418
 9114TIP3    H248834   6.017   4.220   5.699  1.3602  0.9743 -0.2495
 9115TIP3   OH248835   0.623   3.699  11.320 -0.1798  0.0123  0.0382
 9115TIP3    H148836   0.555   3.766  11.310  0.1524  0.4956  0.8965
 9115TIP3    H248837   0.673   3.703  11.238  1.2038  2.4027  0.9304
 9116TIP3   OH248838   4.822   0.476  17.121  0.1043  0.3648 -0.0819
 9116TIP3    H148839   4.858   0.415  17.057 -1.5931 -2.4855  1.5961
 9116TIP3    H248840   4.861   0.449  17.204  0.5852  2.6338  0.4694
 9117TIP3   OH248841   3.982   2.741   5.212 -0.1665  0.4345 -0.0145
 9117TIP3    H148842   3.892   2.771   5.224 -0.5835 -0.8505  0.1400
 9117TIP3    H248843   3.987   2.660   5.262  1.1319  0.5791  0.1075
 9118TIP3   OH248844   6.726   3.687   3.304 -0.1694 -0.4390  0.4269
 9118TIP3    H148845   6.794   3.754   3.302  0.4563 -1.0920 -2.0428
 9118TIP3    H248846   6.644   3.737   3.310  0.2957  0.5368 -1.1271
 9119TIP3   OH248847   1.277   4.922  12.202  0.7746  0.0915  0.4686
 9119TIP3    H148848   1.237   4.978  12.268 -0.9893  1.2656 -1.5142
 9119TIP3    H248849   1.355   4.970  12.174 -0.6406  1.5741 -1.1072
 9120TIP3   OH248850   4.199   5.021  15.246  0.1784 -0.1504  0.0754
 9120TIP3    H148851   4.158   4.938  15.220 -1.5557  0.9232 -0.6754
 9120TIP3    H248852   4.222   5.008  15.338 -0.1457 -1.4415 -0.0144
 9121TIP3   OH248853   1.434   5.537  16.326  0.2947  0.3405 -0.2679
 9121TIP3    H148854   1.381   5.506  16.399  0.0799  0.2970 -0.4433
 9121TIP3    H248855   1.483   5.460  16.297  2.1024  0.8380  1.2996
 9122TIP3   OH248856   1.700   1.347  12.815 -0.0918 -0.0385  0.0710
 9122TIP3    H148857   1.680   1.441  12.819 -1.1222 -0.2792  1.0966
 9122TIP3    H248858   1.795   1.342  12.815 -0.0344  1.0075  0.0564
 9123TIP3   OH248859   5.571   6.635   4.793 -0.4623 -0.2228 -0.1518
 9123TIP3    H148860   5.578   6.547   4.830  0.2118 -0.9950 -2.0601
 9123TIP3    H248861   5.601   6.693   4.863  1.3841 -1.6951  0.3128
 9124TIP3   OH248862   6.396   1.765   1.901  0.1704  0.3160 -0.1826
 9124TIP3    H148863   6.418   1.855   1.878  1.2794  0.3824  1.0829
 9124TIP3    H248864   6.480   1.719   1.901 -0.2569 -0.4710  0.2577
 9125TIP3   OH248865   3.382   6.717   5.268  0.1884 -0.8104  0.1437
 9125TIP3    H148866   3.293   6.697   5.238 -0.4160 -0.0388  1.3994
 9125TIP3    H248867   3.416   6.633   5.299 -0.8046 -0.7457  1.4505
 9126TIP3   OH248868   6.219   6.162  16.141 -0.4619  0.2528 -0.1941
 9126TIP3    H148869   6.312   6.145  16.131  0.0189  1.7033  1.5492
 9126TIP3    H248870   6.201   6.234  16.081 -0.8139 -0.9912 -1.6324
 9127TIP3   OH248871   6.169   4.353  16.851 -0.2612 -0.7644  0.7903
 9127TIP3    H148872   6.107   4.326  16.919 -0.6730 -0.6077  0.4820
 9127TIP3    H248873   6.243   4.293  16.861 -0.9711 -1.7241  0.4134
 9128TIP3   OH248874   4.609   5.659  10.646  0.4547  0.7510  0.7190
 9128TIP3    H148875   4.528   5.646  10.696  0.9836  1.4478  1.7625
 9128TIP3    H248876   4.593   5.740  10.596 -0.5489 -0.6051 -1.2197
 9129TIP3   OH248877   1.658   5.760  14.552  0.1650 -0.1997  0.0913
 9129TIP3    H148878   1.661   5.693  14.484 -0.0558 -0.8465  0.7063
 9129TIP3    H248879   1.648   5.710  14.634  2.1849  0.4622  0.7593
 9130TIP3   OH248880   5.502   3.480  14.379 -0.2205 -0.2671 -0.3260
 9130TIP3    H148881   5.532   3.389  14.382  1.0017  0.1465  0.3000
 9130TIP3    H248882   5.574   3.530  14.416 -1.2880  0.8591  0.2636
 9131TIP3   OH248883   2.500   6.205  14.081  0.2211  0.5277  0.7298
 9131TIP3    H148884   2.555   6.283  14.079  0.9586 -0.0290 -1.1555
 9131TIP3    H248885   2.430   6.223  14.019  0.4424 -0.3311  0.2166
 9132TIP3   OH248886   0.159   5.492  16.407  0.2393 -0.2751 -0.7313
 9132TIP3    H148887   0.109   5.422  16.448  1.9266 -1.7767 -1.2140
 9132TIP3    H248888   0.093   5.542  16.358 -1.0657 -1.1150  0.1411
 9133TIP3   OH248889   5.686   0.142   4.954  0.1423  0.1405  0.0148
 9133TIP3    H148890   5.699   0.109   5.043 -2.1086  0.9651  0.6625
 9133TIP3    H248891   5.760   0.105   4.905  1.2613 -0.5551  2.1351
 9134TIP3   OH248892   1.489   3.050   3.777  0.4322  0.1123 -0.6456
 9134TIP3    H148893   1.448   3.131   3.808  1.6848 -0.2693  2.1570
 9134TIP3    H248894   1.424   3.012   3.718 -2.3074  0.7002  1.8758
 9135TIP3   OH248895   0.217   1.705  10.480  0.2305 -0.2651 -0.1101
 9135TIP3    H148896   0.275   1.631  10.463  0.4658  0.0630 -0.7687
 9135TIP3    H248897   0.252   1.775  10.425 -0.7306 -0.0326 -0.4361
 9136TIP3   OH248898   2.401   0.453   2.122  0.0525  0.5548  0.3798
 9136TIP3    H148899   2.407   0.548   2.118 -3.0917  0.7947  0.4097
 9136TIP3    H248900   2.447   0.429   2.202  1.7099  1.9433 -0.1277
 9137TIP3   OH248901   6.153   0.670   3.656  0.5801  0.2342  0.2548
 9137TIP3    H148902   6.068   0.713   3.658  0.3619 -0.2455  1.9358
 9137TIP3    H248903   6.214   0.738   3.627 -0.0868  1.0724  0.8008
 9138TIP3   OH248904   5.605   2.570   1.817 -0.1732  0.1760 -0.0936
 9138TIP3    H148905   5.690   2.533   1.792  0.7091  1.4054  1.0032
 9138TIP3    H248906   5.546   2.543   1.747  1.1220 -0.7162 -0.8668
 9139TIP3   OH248907   4.576   6.296  10.856 -0.4523 -0.4348 -0.3045
 9139TIP3    H148908   4.610   6.379  10.823 -1.7345 -0.5566 -2.0005
 9139TIP3    H248909   4.492   6.319  10.895  0.8431 -0.3691  2.5961
 9140TIP3   OH248910   6.500   4.166   3.398  0.4435 -0.4992  0.2215
 9140TIP3    H148911   6.421   4.117   3.377 -1.6499  3.0347 -0.5716
 9140TIP3    H248912   6.518   4.217   3.319  3.2287 -0.8470  0.5856
 9141TIP3   OH248913   2.279   4.739   4.454 -0.0754 -0.1631 -0.2738
 9141TIP3    H148914   2.266   4.830   4.479 -0.0969 -0.4663  0.8579
 9141TIP3    H248915   2.193   4.709   4.426 -0.0696  0.1605 -0.6397
 9142TIP3   OH248916   6.242   0.100   6.254  0.2808 -0.7010  0.2018
 9142TIP3    H148917   6.326   0.121   6.295 -0.3060 -1.2568  1.7398
 9142TIP3    H248918   6.212   0.183   6.217  0.6580 -0.0742  1.2505
 9143TIP3   OH248919   2.444   3.268  10.976  0.4336  0.3922 -0.4625
 9143TIP3    H148920   2.387   3.237  10.906 -2.1388  1.4176  1.0998
 9143TIP3    H248921   2.472   3.355  10.947 -4.6330  2.9996  1.8289
 9144TIP3   OH248922   0.249   5.835   2.876 -0.9255 -0.1490 -0.1932
 9144TIP3    H148923   0.189   5.904   2.848 -0.4207  1.8545  3.3376
 9144TIP3    H248924   0.192   5.758   2.888 -1.8144  0.1503 -2.2747
 9145TIP3   OH248925   4.153   2.408  14.787 -0.0106 -0.8329 -0.0448
 9145TIP3    H148926   4.151   2.501  14.765 -1.0419 -0.2398  2.4586
 9145TIP3    H248927   4.245   2.383  14.778  0.5227  0.7898  0.7898
 9146TIP3   OH248928   3.849   0.897   5.391 -0.2308  0.0961 -0.3084
 9146TIP3    H148929   3.761   0.915   5.357 -0.2878 -1.0752 -0.7883
 9146TIP3    H248930   3.871   0.976   5.441 -1.4553  0.4957 -0.3711
 9147TIP3   OH248931   0.093   2.885   6.758  0.1626  0.2770  0.1701
 9147TIP3    H148932   0.119   2.952   6.821  1.1132  0.8615 -0.8073
 9147TIP3    H248933   0.062   2.812   6.811  1.3050  0.6000  1.3285
 9148TIP3   OH248934   2.624   4.937  16.998  0.0906  0.0588  0.2194
 9148TIP3    H148935   2.616   4.916  16.905 -1.2815  2.4865 -0.2635
 9148TIP3    H248936   2.690   4.876  17.031  0.3519 -1.0653 -2.2612
 9149TIP3   OH248937   2.814   3.074   5.488  0.2839 -0.6953 -0.5373
 9149TIP3    H148938   2.810   3.111   5.400 -0.8677  0.4182 -0.0406
 9149TIP3    H248939   2.902   3.093   5.519 -0.1345  1.2164 -0.4815
 9150TIP3   OH248940   2.417   5.178  13.617 -0.8263  0.9041 -0.3745
 9150TIP3    H148941   2.399   5.259  13.663 -0.4212  1.0923 -0.5461
 9150TIP3    H248942   2.495   5.196  13.565  0.4257 -0.1707  1.0736
 9151TIP3   OH248943   0.705   4.111   6.774 -0.0845  0.1306  0.5043
 9151TIP3    H148944   0.612   4.112   6.749  0.3671  1.8438 -1.1853
 9151TIP3    H248945   0.727   4.018   6.778 -1.7829 -0.2985  0.5978
 9152TIP3   OH248946   2.493   6.363   0.153 -0.2423 -0.1119 -0.5700
 9152TIP3    H148947   2.474   6.372   0.059  3.1691  1.9884 -1.1588
 9152TIP3    H248948   2.536   6.446   0.176  1.1810 -1.5903  2.2677
 9153TIP3   OH248949   5.503   0.400  13.181  0.0406  0.6458  0.3282
 9153TIP3    H148950   5.450   0.321  13.193 -0.1823  0.7380 -0.0179
 9153TIP3    H248951   5.572   0.375  13.120 -0.3358  0.8529 -0.1891
 9154TIP3   OH248952   6.221   2.085  12.581  0.2089  0.2499 -0.3171
 9154TIP3    H148953   6.133   2.059  12.609  0.8286  1.4338  2.9314
 9154TIP3    H248954   6.226   2.179  12.601  1.5511  0.6204 -2.2728
 9155TIP3   OH248955   4.227   4.207   4.619 -0.1396 -0.3595  0.6833
 9155TIP3    H148956   4.157   4.143   4.632 -0.6556  0.1571  0.4856
 9155TIP3    H248957   4.184   4.292   4.631  0.5665 -0.0545  1.0744
 9156TIP3   OH248958   2.021   4.400  13.845 -0.6560 -0.3731  0.6198
 9156TIP3    H148959   1.945   4.359  13.885 -0.3572 -2.7003 -1.0719
 9156TIP3    H248960   2.093   4.383  13.906 -1.0838  0.0840  1.2557
 9157TIP3   OH248961   5.482   2.184  11.422  0.3503 -0.2931  0.2750
 9157TIP3    H148962   5.460   2.142  11.339  0.0989  1.5899 -0.6222
 9157TIP3    H248963   5.414   2.155  11.483 -0.4250 -0.3484 -0.6076
 9158TIP3   OH248964   1.071   6.305   0.411  0.1962 -0.2024 -0.1646
 9158TIP3    H148965   0.999   6.366   0.423  0.6320  0.0042  1.4491
 9158TIP3    H248966   1.041   6.224   0.453  0.0561 -0.7884 -1.3556
 9159TIP3   OH248967   2.017   1.076  13.474 -0.3650 -0.0507 -0.8625
 9159TIP3    H148968   2.030   1.169  13.494  2.6814 -0.4893 -0.6460
 9159TIP3    H248969   2.104   1.043  13.454 -1.3143 -3.0304 -0.2867
 9160TIP3   OH248970   5.950   5.779   4.224  0.2888 -0.2198  0.2982
 9160TIP3    H148971   5.859   5.783   4.255  0.8988  0.5390  2.1075
 9160TIP3    H248972   5.958   5.693   4.183 -1.6115  0.2450 -1.0861
 9161TIP3   OH248973   0.331   6.252   4.928 -0.0171  0.5420 -0.1012
 9161TIP3    H148974   0.286   6.332   4.898  0.3403  1.1053  0.8452
 9161TIP3    H248975   0.376   6.278   5.008  0.5079 -0.4941 -0.0463
 9162TIP3   OH248976   3.636   3.921  13.355  0.1469  0.4282 -0.3075
 9162TIP3    H148977   3.719   3.876  13.369  0.1103  0.4808  0.0935
 9162TIP3    H248978   3.650   3.975  13.277  1.2406  2.2278  1.0997
 9163TIP3   OH248979   0.117   4.556  11.717 -0.2679 -0.0100  0.3245
 9163TIP3    H148980   0.064   4.532  11.792 -0.1281 -1.3304  0.0146
 9163TIP3    H248981   0.091   4.494  11.648  1.1507 -0.2239 -0.0384
 9164TIP3   OH248982   1.308   2.406   5.720 -0.0187  0.1951 -0.4196
 9164TIP3    H148983   1.252   2.329   5.728  0.9025 -0.2571  2.2661
 9164TIP3    H248984   1.286   2.443   5.634 -3.2664 -0.8493 -0.1135
 9165TIP3   OH248985   6.239   0.660  12.917 -0.1217 -0.1484  0.5037
 9165TIP3    H148986   6.189   0.580  12.936 -1.7669  0.6512 -0.3393
 9165TIP3    H248987   6.261   0.696  13.003 -2.8513  0.6009  0.9307
 9166TIP3   OH248988   5.956   1.098  10.806  0.2499  0.0463  0.1572
 9166TIP3    H148989   6.040   1.137  10.782  0.4573 -0.2656  0.3578
 9166TIP3    H248990   5.935   1.039  10.734  0.7898 -0.7646  0.6542
 9167TIP3   OH248991   6.126   2.045   1.664  0.5285  0.1492  0.4418
 9167TIP3    H148992   6.137   2.114   1.599 -0.5889 -0.4740 -0.4164
 9167TIP3    H248993   6.104   2.092   1.745 -0.6535  0.7695 -0.2344
 9168TIP3   OH248994   0.625   6.641  14.296  0.3336 -0.2485  0.2542
 9168TIP3    H148995   0.677   6.673  14.369  1.6395  0.4567 -0.9793
 9168TIP3    H248996   0.546   6.695  14.298 -0.3845 -1.2767  2.0779
 9169TIP3   OH248997   4.658   1.197   1.037 -0.1770  0.2046  0.4086
 9169TIP3    H148998   4.638   1.261   1.105 -0.5297  1.5235 -0.8996
 9169TIP3    H248999   4.573   1.172   1.001  0.1041  1.1923 -1.0145
 9170TIP3   OH249000   2.750   1.366  15.827 -0.0394  0.4504  0.1202
 9170TIP3    H149001   2.827   1.348  15.773  0.3298  1.6095  0.2493
 9170TIP3    H249002   2.680   1.383  15.763 -0.6576 -2.3846 -0.0222
 9171TIP3   OH249003   6.003   2.531   4.730  0.3519  0.0552 -0.3006
 9171TIP3    H149004   6.001   2.442   4.695 -0.4815  0.2659 -0.8025
 9171TIP3    H249005   6.011   2.518   4.825 -1.0908 -0.5907 -0.2465
 9172TIP3   OH249006   5.671   4.221   2.435 -0.7192  0.3363 -0.0865
 9172TIP3    H149007   5.647   4.170   2.512  1.4750  0.3508  0.6482
 9172TIP3    H249008   5.670   4.312   2.465  1.7617  0.2242  0.4104
 9173TIP3   OH249009   2.374   0.641  11.556 -0.1981  0.1070 -0.4523
 9173TIP3    H149010   2.316   0.629  11.481 -1.1004 -0.8245  0.3691
 9173TIP3    H249011   2.333   0.589  11.626  0.3917  1.2832  0.7944
 9174TIP3   OH249012   5.491   0.938   3.075  0.1571  0.5443 -0.0857
 9174TIP3    H149013   5.530   1.000   3.137  1.5341 -0.9366  0.5513
 9174TIP3    H249014   5.556   0.931   3.005 -0.7395  1.0726 -0.9916
 9175TIP3   OH249015   3.482   1.609   6.347 -0.2036  0.0997  0.1638
 9175TIP3    H149016   3.397   1.589   6.385  0.1669  0.0037  0.9450
 9175TIP3    H249017   3.507   1.694   6.385  0.8158 -0.6702  1.2694
 9176TIP3   OH249018   2.192   1.984   5.242  0.8659 -0.3317 -0.5628
 9176TIP3    H149019   2.123   2.003   5.178 -1.0688 -1.0028  1.2803
 9176TIP3    H249020   2.264   2.041   5.216 -0.4845  0.6191 -2.3542
 9177TIP3   OH249021   0.099   1.341  16.892 -0.1885 -0.3704 -0.4143
 9177TIP3    H149022   0.108   1.432  16.864 -1.3601 -0.4526 -1.0908
 9177TIP3    H249023   0.007   1.332  16.917  0.3314 -0.8915  1.3972
 9178TIP3   OH249024   4.646   2.066  10.362 -0.1272  0.0489 -0.3423
 9178TIP3    H149025   4.725   2.042  10.315  0.7507 -0.6683  1.4659
 9178TIP3    H249026   4.673   2.136  10.421 -0.3478 -1.4976  1.6678
 9179TIP3   OH249027   0.941   5.679  16.691 -0.2924  0.4612 -0.2211
 9179TIP3    H149028   0.900   5.762  16.713 -0.9949 -0.1127  0.6639
 9179TIP3    H249029   0.903   5.616  16.753  0.3052 -0.4947 -0.8127
 9180TIP3   OH249030   1.508   6.781  11.690  0.0195 -0.1609  0.6321
 9180TIP3    H149031   1.505   6.876  11.701  1.1406  0.1610 -1.6419
 9180TIP3    H249032   1.432   6.761  11.635 -0.9556 -0.7534  2.1714
 9181TIP3   OH249033   5.569   1.406  14.778  0.1740 -0.4771 -0.1502
 9181TIP3    H149034   5.498   1.433  14.837  0.5566  0.1225  0.0362
 9181TIP3    H249035   5.564   1.468  14.705 -0.1154 -1.0414 -0.6148
 9182TIP3   OH249036   1.318   0.929   0.951 -0.3126  0.3381  0.2024
 9182TIP3    H149037   1.344   0.860   0.889 -0.4308 -1.2674  1.9142
 9182TIP3    H249038   1.377   1.002   0.931  1.9795 -1.3849  0.4952
 9183TIP3   OH249039   5.577   0.050   6.096 -0.4959 -0.7970 -0.2109
 9183TIP3    H149040   5.490   0.011   6.088  0.3328 -2.5568 -1.0498
 9183TIP3    H249041   5.583   0.077   6.187 -1.6287 -1.3867  0.0525
 9184TIP3   OH249042   2.796   2.760  13.869 -0.1033  0.8110 -0.4891
 9184TIP3    H149043   2.701   2.775  13.872 -0.2327 -0.0873  0.9356
 9184TIP3    H249044   2.814   2.738  13.778 -1.9609 -3.0882 -0.0121
 9185TIP3   OH249045   3.107   4.179   3.609 -0.1819 -0.4501 -0.2392
 9185TIP3    H149046   3.030   4.231   3.585  2.5839  2.8603 -2.3977
 9185TIP3    H249047   3.147   4.156   3.525  3.8284  2.1368  0.8302
 9186TIP3   OH249048   5.184   2.318   5.289  0.1111  0.0087  0.7507
 9186TIP3    H149049   5.187   2.409   5.319 -0.0441 -0.2361  1.5280
 9186TIP3    H249050   5.101   2.285   5.322  0.5505 -0.6611  1.2090
 9187TIP3   OH249051   4.779   1.107   6.511 -0.1028 -0.0757  0.3743
 9187TIP3    H149052   4.702   1.115   6.568 -0.4074 -1.5674  0.1816
 9187TIP3    H249053   4.759   1.032   6.455  1.7147 -0.7675  0.6434
 9188TIP3   OH249054   5.396   2.026   3.115  0.5469  0.5439 -0.1759
 9188TIP3    H149055   5.332   2.084   3.074  0.6553 -0.9860 -2.6090
 9188TIP3    H249056   5.480   2.052   3.077  0.6003 -1.1718 -1.2815
 9189TIP3   OH249057   6.033   2.906   4.194  0.5366  0.2262 -0.2138
 9189TIP3    H149058   5.945   2.884   4.164  0.8550 -1.5166  0.0988
 9189TIP3    H249059   6.027   2.906   4.289  1.1047 -0.8911 -0.1726
 9190TIP3   OH249060   2.402   5.066   5.059  0.3311  0.2559  0.2024
 9190TIP3    H149061   2.398   5.040   4.967  2.0112 -1.4254  0.5776
 9190TIP3    H249062   2.334   5.014   5.101  1.4301 -1.0544  0.3748
 9191TIP3   OH249063   4.191   0.519   1.366  0.8974  0.3260  0.1009
 9191TIP3    H149064   4.219   0.611   1.370  2.6115 -0.2302  1.7897
 9191TIP3    H249065   4.254   0.473   1.421  0.9383 -2.1000 -1.8948
 9192TIP3   OH249066   0.648   5.013  15.434  0.0540 -0.1489 -0.4715
 9192TIP3    H149067   0.602   5.073  15.374 -1.4160  1.1219  1.8734
 9192TIP3    H249068   0.741   5.036  15.423 -0.3708  1.5292 -0.7077
 9193TIP3   OH249069   5.839   2.278  11.160  0.0640 -0.0547  0.2221
 9193TIP3    H149070   5.841   2.372  11.144  0.4561 -0.1773 -0.4834
 9193TIP3    H249071   5.752   2.251  11.133  0.5004 -0.1530 -1.1496
 9194TIP3   OH249072   6.018   2.348  10.552 -0.5032  0.2109 -0.3086
 9194TIP3    H149073   6.081   2.418  10.535 -1.0389  0.5217 -1.0491
 9194TIP3    H249074   6.050   2.274  10.501 -0.6665  0.3390 -0.6050
 9195TIP3   OH249075   5.878   0.035  11.544 -0.2866 -0.5549 -0.2514
 9195TIP3    H149076   5.966   0.022  11.579 -0.6048 -0.6561  0.5102
 9195TIP3    H249077   5.820  -0.006  11.608 -0.8305 -1.3650 -1.2319
 9196TIP3   OH249078   1.100   5.400  15.317  0.1262  0.3345 -0.3004
 9196TIP3    H149079   1.141   5.414  15.231  0.5234  0.9068 -0.0223
 9196TIP3    H249080   1.135   5.471  15.371 -1.4400  1.0052 -0.1342
 9197TIP3   OH249081   4.454   6.276  12.468  0.1078  0.3667 -0.2948
 9197TIP3    H149082   4.428   6.333  12.540  1.0328  1.2783 -0.6694
 9197TIP3    H249083   4.393   6.297  12.397 -1.1301 -0.8942  0.3660
 9198TIP3   OH249084   1.762   4.149   6.245 -0.5519  0.2345  0.3855
 9198TIP3    H149085   1.824   4.191   6.305 -1.3426 -1.1539  2.1955
 9198TIP3    H249086   1.816   4.090   6.193 -0.1199  0.1967  0.8731
 9199TIP3   OH249087   3.313   6.350  16.015  0.4611 -0.4071  0.2762
 9199TIP3    H149088   3.288   6.341  15.923  1.1926  0.4952 -0.0198
 9199TIP3    H249089   3.238   6.392  16.057  1.3533  2.1207 -0.5646
 9200TIP3   OH249090   5.831   0.517  12.593  0.1427  0.1835  0.1470
 9200TIP3    H149091   5.800   0.537  12.505 -1.6131 -0.9235  0.4908
 9200TIP3    H249092   5.925   0.533  12.590  0.2404 -0.8037 -2.1894
 9201TIP3   OH249093   5.562   1.242   2.713 -0.2065 -0.7331  0.4812
 9201TIP3    H149094   5.656   1.236   2.729 -0.5891 -2.3285  2.2937
 9201TIP3    H249095   5.553   1.233   2.618  1.5630  1.0992  0.1019
 9202TIP3   OH249096   1.716   4.984  11.432  0.9078  0.1884  0.5390
 9202TIP3    H149097   1.720   5.018  11.521  1.3171 -0.7135  0.8761
 9202TIP3    H249098   1.713   4.889  11.443  2.1486  0.0195 -0.4374
 9203TIP3   OH249099   0.992   0.377   4.482 -0.2688 -0.1612  0.1690
 9203TIP3    H149100   1.016   0.285   4.479  1.5031  0.1497  2.7307
 9203TIP3    H249101   0.904   0.381   4.444 -0.8201 -3.0733  1.0697
 9204TIP3   OH249102   2.851   1.438   4.280 -0.3557 -0.1013  0.1198
 9204TIP3    H149103   2.822   1.527   4.259 -1.1615 -0.3838  0.0086
 9204TIP3    H249104   2.772   1.385   4.271 -0.0112 -0.7280  0.7868
 9205TIP3   OH249105   3.592   4.066  16.132 -0.0700 -0.2023  0.3978
 9205TIP3    H149106   3.509   4.080  16.177  0.7041 -1.1848  2.1623
 9205TIP3    H249107   3.658   4.068  16.201  1.3294 -0.0055 -0.9113
 9206TIP3   OH249108   0.820   1.279  13.160 -0.4979 -0.4974 -0.2935
 9206TIP3    H149109   0.751   1.316  13.104 -0.0602 -1.6148 -1.6154
 9206TIP3    H249110   0.808   1.185  13.153 -0.1466 -0.6573  1.1755
 9207TIP3   OH249111   6.108   6.587  11.173 -0.0395 -0.4996 -0.2253
 9207TIP3    H149112   6.032   6.640  11.149 -0.6360 -1.2151  0.0385
 9207TIP3    H249113   6.181   6.648  11.174 -0.7137  0.3084  0.0534
 9208TIP3   OH249114   2.125   6.026  16.529 -0.6375  0.7643 -0.2470
 9208TIP3    H149115   2.092   5.969  16.460  0.4046 -1.4090  0.9635
 9208TIP3    H249116   2.214   6.047  16.502 -0.3604  0.2221  0.2230
 9209TIP3   OH249117   4.190   0.830  11.413  0.0116 -0.0584  0.0554
 9209TIP3    H149118   4.122   0.867  11.469 -0.1322  1.5460 -1.1235
 9209TIP3    H249119   4.272   0.858  11.452 -0.0205 -1.1752  0.9356
 9210TIP3   OH249120   6.372   4.760   2.015 -0.1881  0.4688 -0.3984
 9210TIP3    H149121   6.306   4.824   2.041  0.0155  0.4543  0.1674
 9210TIP3    H249122   6.355   4.744   1.922 -0.4714  1.0653 -0.4526
 9211TIP3   OH249123   3.806   4.014   6.409  0.3564 -0.1089 -0.6792
 9211TIP3    H149124   3.871   4.083   6.402  0.8947 -0.3777  1.3513
 9211TIP3    H249125   3.778   4.016   6.501 -0.8831 -1.4433 -1.0011
 9212TIP3   OH249126   4.037   0.615   3.333 -0.8384  0.6747  0.0180
 9212TIP3    H149127   4.069   0.571   3.412 -0.3081  0.1163 -0.4915
 9212TIP3    H249128   3.942   0.609   3.339 -0.8187  1.3149  0.9892
 9213TIP3   OH249129   0.304   2.294  13.649  0.5962 -0.4356 -0.4363
 9213TIP3    H149130   0.231   2.356  13.650  1.0309  0.1194 -1.6136
 9213TIP3    H249131   0.292   2.244  13.568  1.3541 -0.5378 -0.4933
 9214TIP3   OH249132   4.671   4.112   3.040  0.0817  0.3575  0.3541
 9214TIP3    H149133   4.716   4.055   2.978  0.1904 -0.9348  1.5955
 9214TIP3    H249134   4.707   4.199   3.022 -0.3005  0.1072 -1.7574
 9215TIP3   OH249135   6.540   4.597  11.350 -0.4383 -0.5430  0.2184
 9215TIP3    H149136   6.529   4.596  11.255  0.1048  1.6953  0.1007
 9215TIP3    H249137   6.597   4.522  11.369 -0.2786 -0.8070 -1.2546
 9216TIP3   OH249138   2.469   1.904   5.403 -0.1041 -0.6371  0.2336
 9216TIP3    H149139   2.550   1.877   5.361 -1.0829 -3.1661 -0.1196
 9216TIP3    H249140   2.497   1.954   5.480  1.7780 -1.7717  0.2934
 9217TIP3   OH249141   3.094   2.237  14.635 -0.1699 -0.3322  0.0377
 9217TIP3    H149142   3.036   2.183  14.688  0.1232  0.0231  0.7280
 9217TIP3    H249143   3.105   2.188  14.554 -1.0072 -0.6562  0.1091
 9218TIP3   OH249144   2.774   6.412   2.538 -0.0709 -0.0955 -0.2091
 9218TIP3    H149145   2.721   6.382   2.613  0.5486  0.7182  0.5672
 9218TIP3    H249146   2.725   6.384   2.461 -0.2464 -1.7881  0.5027
 9219TIP3   OH249147   0.015   4.410   0.978 -0.5425 -0.0448 -0.5992
 9219TIP3    H149148   0.092   4.459   1.006  0.0386 -2.0280  1.4177
 9219TIP3    H249149  -0.024   4.464   0.909  3.0397  0.6727 -2.1707
 9220TIP3   OH249150   1.743   4.914   4.878 -0.4270  0.6905  0.0648
 9220TIP3    H149151   1.747   4.844   4.943 -0.9272 -0.5444 -1.2050
 9220TIP3    H249152   1.826   4.960   4.888  1.1092 -1.7481 -0.8644
 9221TIP3   OH249153   5.507   3.913  15.279 -0.4709 -0.4747  0.2493
 9221TIP3    H149154   5.454   3.834  15.272 -0.2183 -0.5298 -1.1062
 9221TIP3    H249155   5.516   3.945  15.189  1.5184 -0.2910  0.4810
 9222TIP3   OH249156   2.511   0.265   6.411  0.6387 -0.3643  0.0894
 9222TIP3    H149157   2.537   0.353   6.437  2.2855 -0.6625 -0.5285
 9222TIP3    H249158   2.471   0.227   6.489  0.1137  0.8506  0.4143
 9223TIP3   OH249159   3.358   4.578   0.841 -0.0022  0.2406  0.3399
 9223TIP3    H149160   3.446   4.558   0.809  0.2626  1.0664  0.5337
 9223TIP3    H249161   3.330   4.498   0.886  0.4970 -0.1554 -0.0457
 9224TIP3   OH249162   3.723   2.888   1.123 -0.2386  0.5693 -0.1721
 9224TIP3    H149163   3.706   2.829   1.196  0.1920  0.1735 -0.3966
 9224TIP3    H249164   3.640   2.892   1.076 -0.3260  0.3010 -0.0419
 9225TIP3   OH249165   0.479   6.377   1.701  0.0952 -0.1397  0.0870
 9225TIP3    H149166   0.558   6.407   1.747 -0.6166 -0.6715  1.7064
 9225TIP3    H249167   0.408   6.428   1.740 -0.7185 -1.6897  0.7045
 9226TIP3   OH249168   2.215   0.024  13.031 -0.2172  0.2395 -0.1664
 9226TIP3    H149169   2.208   0.074  13.112 -0.9711 -1.5398  0.9112
 9226TIP3    H249170   2.127  -0.012  13.017  0.1244 -0.1839 -1.3000
 9227TIP3   OH249171   4.700   5.107   1.136 -0.2481  0.4588  0.4206
 9227TIP3    H149172   4.783   5.153   1.126 -0.4591  1.1192  1.5837
 9227TIP3    H249173   4.635   5.163   1.094  0.4627 -2.1537 -4.5584
 9228TIP3   OH249174   6.473   0.079   4.565  0.0537  0.1009  0.2534
 9228TIP3    H149175   6.567   0.058   4.566  0.2527  0.9537  0.0242
 9228TIP3    H249176   6.457   0.124   4.648 -0.5370 -1.6271  1.0994
 9229TIP3   OH249177   1.947   4.585   3.341  0.2531 -0.0510  0.5505
 9229TIP3    H149178   1.877   4.553   3.398 -0.0240 -0.8331 -0.2202
 9229TIP3    H249179   1.906   4.595   3.255  1.1438 -0.7775  0.0234
 9230TIP3   OH249180   2.913   2.402  13.353 -0.2527  0.3561 -0.1302
 9230TIP3    H149181   2.984   2.345  13.382 -0.9425 -1.5348 -1.9737
 9230TIP3    H249182   2.834   2.348  13.363 -1.2446  1.8726  0.3925
 9231TIP3   OH249183   4.224   2.451  17.056 -0.2743 -0.0030 -0.2981
 9231TIP3    H149184   4.187   2.534  17.084  0.5584  0.7250 -1.3193
 9231TIP3    H249185   4.149   2.401  17.025 -0.7606  0.4005  0.2044
 9232TIP3   OH249186   1.891   4.160  17.164  0.0135  0.4574  0.4670
 9232TIP3    H149187   1.822   4.226  17.173 -2.4017 -1.7254 -1.1900
 9232TIP3    H249188   1.864   4.088  17.221  0.3145 -0.8654 -1.0102
 9233TIP3   OH249189   1.655   0.891  13.575  0.6032 -0.2197  0.1567
 9233TIP3    H149190   1.620   0.963  13.627 -0.2790 -0.0083 -0.7176
 9233TIP3    H249191   1.688   0.932  13.496 -1.8286 -0.9879 -1.3006
 9234TIP3   OH249192   3.795   0.617  12.931  0.2344  0.0617  0.1506
 9234TIP3    H149193   3.880   0.640  12.892 -0.5235 -0.7285 -2.0346
 9234TIP3    H249194   3.797   0.521  12.936 -1.1109 -0.0496 -1.2934
 9235TIP3   OH249195   4.130   3.126   5.051  0.0472 -0.1668  0.1757
 9235TIP3    H149196   4.122   3.089   5.139 -0.1025  1.7906  1.0204
 9235TIP3    H249197   4.225   3.135   5.037  0.1332 -2.2231 -0.6323
 9236TIP3   OH249198   2.820   2.394  11.268  0.0212  0.1339 -0.4777
 9236TIP3    H149199   2.774   2.478  11.270  0.2880  0.2767 -0.3957
 9236TIP3    H249200   2.755   2.332  11.234 -0.9740 -0.1082  1.7661
 9237TIP3   OH249201   4.678   2.519  12.264 -0.0679 -0.0893 -0.7258
 9237TIP3    H149202   4.703   2.596  12.213  0.4104  1.6619  2.0277
 9237TIP3    H249203   4.587   2.501  12.238  1.3589 -1.6299 -4.9567
 9238TIP3   OH249204   5.458   3.460   2.949 -0.1183 -0.3690  0.0632
 9238TIP3    H149205   5.403   3.462   2.871 -0.7528  0.0282  0.5216
 9238TIP3    H249206   5.441   3.543   2.993  1.0499 -0.1155  0.0752
 9239TIP3   OH249207   4.365   6.586  14.604  0.3673  0.8600 -0.3028
 9239TIP3    H149208   4.337   6.496  14.624 -2.0953  1.8789  1.0718
 9239TIP3    H249209   4.341   6.598  14.512 -1.4398  0.8321  0.1342
 9240TIP3   OH249210   0.706   3.881   6.592 -0.4257  0.0902 -0.1051
 9240TIP3    H149211   0.676   3.800   6.550 -0.8877  0.1329  0.1401
 9240TIP3    H249212   0.719   3.942   6.520 -0.1222 -0.1897 -0.2886
 9241TIP3   OH249213   0.592   4.825   5.839  0.0952 -0.1056  0.4339
 9241TIP3    H149214   0.541   4.852   5.762  0.0474  0.1392  0.5524
 9241TIP3    H249215   0.538   4.758   5.880  0.2985 -0.5166  0.0375
 9242TIP3   OH249216   0.476   5.658  16.784  0.7191  0.6595 -0.0520
 9242TIP3    H149217   0.445   5.712  16.712  1.3829  0.8645 -0.1867
 9242TIP3    H249218   0.399   5.610  16.813  0.5485  0.2553 -1.1772
 9243TIP3   OH249219   4.215   4.259  12.978  0.3880 -0.2264  0.3916
 9243TIP3    H149220   4.273   4.327  12.944  1.0525 -1.7225 -1.5648
 9243TIP3    H249221   4.129   4.281  12.943  0.5279 -0.1642  0.0818
 9244TIP3   OH249222   0.243   4.777   3.295  0.1941  0.5377  0.8556
 9244TIP3    H149223   0.324   4.803   3.338  0.1948  2.1904 -0.1124
 9244TIP3    H249224   0.176   4.835   3.332 -0.0031  1.1939 -0.5051
 9245TIP3   OH249225   1.592   5.543   5.872 -0.7903  0.0073 -0.5078
 9245TIP3    H149226   1.670   5.531   5.926 -1.1936  1.3623  0.3849
 9245TIP3    H249227   1.611   5.620   5.818  0.0977 -2.0312 -3.2115
 9246TIP3   OH249228   5.668   5.356   3.147 -0.1967  0.3609 -0.4460
 9246TIP3    H149229   5.631   5.369   3.234 -1.5267 -2.6578 -0.4961
 9246TIP3    H249230   5.608   5.402   3.088 -0.0176  1.2940  0.0871
 9247TIP3   OH249231   0.407   6.627   1.890  0.6401 -0.1704 -0.3373
 9247TIP3    H149232   0.403   6.722   1.903  0.3565 -0.4431  1.6917
 9247TIP3    H249233   0.316   6.600   1.879  0.8258 -0.0286 -2.5339
 9248TIP3   OH249234   3.732   3.457   5.901 -0.1840 -0.1292  0.4203
 9248TIP3    H149235   3.798   3.425   5.840 -1.8883 -1.1206 -0.9551
 9248TIP3    H249236   3.743   3.402   5.979 -0.1899 -1.1071 -0.2588
 9249TIP3   OH249237   2.143   0.979   0.091 -0.3410 -0.0372 -0.1668
 9249TIP3    H149238   2.152   0.894   0.047  0.6563 -0.5615  0.9766
 9249TIP3    H249239   2.051   1.003   0.080 -0.5055 -1.0091 -0.9720
 9250TIP3   OH249240   4.524   3.131   1.848 -0.6570  0.0745 -0.1277
 9250TIP3    H149241   4.563   3.132   1.761  0.1617 -0.3019  0.2238
 9250TIP3    H249242   4.575   3.066   1.896 -0.1239  1.3431  1.0633
 9251TIP3   OH249243   0.976   1.823  11.394 -0.0042 -0.1270 -0.5398
 9251TIP3    H149244   1.040   1.818  11.465 -0.4511 -0.1406 -0.1307
 9251TIP3    H249245   0.944   1.734  11.384  0.0536 -0.1235 -0.7510
 9252TIP3   OH249246   5.799   3.699   6.110 -0.2097  0.2936 -0.0563
 9252TIP3    H149247   5.803   3.624   6.169 -1.4181 -1.1543 -1.7725
 9252TIP3    H249248   5.719   3.745   6.135 -1.4556 -1.0767 -1.3963
 9253TIP3   OH249249   4.291   5.513   5.649  0.3811 -0.2878 -0.2456
 9253TIP3    H149250   4.297   5.418   5.639  0.8179 -0.2047 -0.7811
 9253TIP3    H249251   4.267   5.544   5.562  0.8302  0.1435 -0.2151
 9254TIP3   OH249252   1.179   3.669  10.824  0.3251  0.2027  0.1522
 9254TIP3    H149253   1.217   3.581  10.822 -1.5510 -0.6398  0.8955
 9254TIP3    H249254   1.108   3.664  10.888 -1.3683  1.5919 -1.5469
 9255TIP3   OH249255   0.384   1.240  13.200 -0.7842  0.0100  0.6903
 9255TIP3    H149256   0.382   1.259  13.293 -2.1051 -0.2497  0.7232
 9255TIP3    H249257   0.320   1.300  13.161 -1.1754 -0.7600  0.1238
 9256TIP3   OH249258   6.154   2.296   2.058 -0.3348  0.1479 -0.2091
 9256TIP3    H149259   6.125   2.387   2.053 -1.6162 -0.2458 -0.2836
 9256TIP3    H249260   6.170   2.281   2.151  1.2064  0.8388 -0.3560
 9257TIP3   OH249261   0.627   3.462   1.225  0.9572 -0.1605 -0.3740
 9257TIP3    H149262   0.717   3.493   1.240  1.1834 -1.6810  1.4930
 9257TIP3    H249263   0.591   3.525   1.162  2.5345  1.8870  0.7109
 9258TIP3   OH249264   4.216   5.518  14.009 -0.6381 -0.2122  0.1295
 9258TIP3    H149265   4.244   5.439  13.964  0.8102  0.2088  0.2805
 9258TIP3    H249266   4.186   5.577  13.939  1.0833  0.2294 -0.2632
 9259TIP3   OH249267   2.777   5.157  16.641  0.3795 -0.1049  0.0851
 9259TIP3    H149268   2.770   5.152  16.736  1.7284 -2.1252  0.1354
 9259TIP3    H249269   2.849   5.097  16.620  1.3170  1.7175 -2.0592
 9260TIP3   OH249270   5.144   0.826  11.114  0.1910  0.3845  0.0641
 9260TIP3    H149271   5.089   0.814  11.037 -0.0829 -0.3743  0.3707
 9260TIP3    H249272   5.230   0.793  11.089  0.0913  0.0989  0.0943
 9261TIP3   OH249273   6.005   0.381  10.703  0.2260 -0.2449 -0.0997
 9261TIP3    H149274   5.942   0.311  10.719  1.5517 -1.4974 -0.2356
 9261TIP3    H249275   6.051   0.392  10.786 -0.3068  0.8128  0.0621
 9262TIP3   OH249276   6.365   1.520   4.512 -0.2224 -0.1728 -0.1699
 9262TIP3    H149277   6.273   1.537   4.536  0.5469  2.2377  1.2644
 9262TIP3    H249278   6.403   1.480   4.590  0.1849 -0.2185 -0.3936
 9263TIP3   OH249279   2.844   1.446   4.591 -0.0378  0.0781 -0.0492
 9263TIP3    H149280   2.816   1.537   4.578 -0.2400  0.1791  1.0861
 9263TIP3    H249281   2.797   1.417   4.669  1.0681 -0.5612  0.3953
 9264TIP3   OH249282   2.482   4.236  14.307  0.5127 -0.4133 -0.0045
 9264TIP3    H149283   2.460   4.228  14.399 -2.6178 -0.4008 -0.7003
 9264TIP3    H249284   2.528   4.320  14.301 -1.2623  0.6866  1.2181
 9265TIP3   OH249285   2.454   5.580   2.170  0.1560 -0.1597  0.1158
 9265TIP3    H149286   2.441   5.506   2.229  0.2646 -1.5787 -1.5841
 9265TIP3    H249287   2.419   5.656   2.217 -0.9322 -1.4707  1.4494
 9266TIP3   OH249288   3.649   0.304   4.884  0.1326  0.2024  0.2708
 9266TIP3    H149289   3.738   0.329   4.907 -0.3286  1.6096  0.5879
 9266TIP3    H249290   3.659   0.227   4.829  1.5499  0.4178  0.2153
 9267TIP3   OH249291   4.347   5.266  13.050 -0.6282 -0.4875  0.4973
 9267TIP3    H149292   4.307   5.201  13.109  0.2815 -2.0940 -0.5991
 9267TIP3    H249293   4.439   5.239  13.044 -0.0359  1.4435  0.7048
 9268TIP3   OH249294   0.809   6.576  16.946  0.6799  0.1018 -0.0741
 9268TIP3    H149295   0.833   6.484  16.935 -0.1818 -0.7469  4.3017
 9268TIP3    H249296   0.720   6.574  16.980 -0.1146  2.6953 -1.7984
 9269TIP3   OH249297   6.240   6.057   4.471  0.4843  0.1418  0.6282
 9269TIP3    H149298   6.249   6.120   4.399 -0.7840  0.3592  0.6517
 9269TIP3    H249299   6.162   6.086   4.519 -0.2742 -1.6302  0.4765
 9270TIP3   OH249300   5.157   3.713   1.114 -0.3356 -0.3780  0.3383
 9270TIP3    H149301   5.179   3.638   1.058  2.7732  1.0817 -0.4980
 9270TIP3    H249302   5.186   3.687   1.201  0.0117 -0.5070  0.1890
 9271TIP3   OH249303   5.912   1.341  16.332 -0.0112 -0.3526 -0.5646
 9271TIP3    H149304   5.883   1.352  16.422  0.9744 -1.2522 -0.1189
 9271TIP3    H249305   5.842   1.377  16.279 -0.5689  0.2433  0.5683
 9272TIP3   OH249306   2.137   3.914   3.798 -0.0587 -0.6100  0.3534
 9272TIP3    H149307   2.158   3.946   3.711 -1.2463  1.7440  0.8654
 9272TIP3    H249308   2.065   3.971   3.827  2.7257  1.1112  4.2817
 9273TIP3   OH249309   3.237   4.133  10.895  0.0283  0.3565  0.2155
 9273TIP3    H149310   3.310   4.142  10.956  0.1109 -3.1725  0.7395
 9273TIP3    H249311   3.160   4.159  10.946  0.9063  4.6486 -0.5161
 9274TIP3   OH249312   1.032   5.406  11.435 -0.2583  0.4454  0.4086
 9274TIP3    H149313   1.022   5.405  11.340  0.5833  2.1922  0.2814
 9274TIP3    H249314   1.076   5.324  11.456 -1.9435 -0.7255 -0.5250
 9275TIP3   OH249315   3.465   0.013   6.358  0.7657 -0.1648  0.4780
 9275TIP3    H149316   3.544  -0.039   6.369  0.4005 -0.4652  1.6967
 9275TIP3    H249317   3.439   0.039   6.446  0.9095  2.0648 -0.1040
 9276TIP3   OH249318   5.505   0.559  13.746  0.7171 -0.5584  0.0429
 9276TIP3    H149319   5.497   0.577  13.653  1.9242 -0.8247 -0.1241
 9276TIP3    H249320   5.433   0.607  13.787  1.4437  1.3054 -0.8095
 9277TIP3   OH249321   1.335   6.666   0.065  0.5244  0.2417 -0.0192
 9277TIP3    H149322   1.292   6.600   0.011 -0.3825  0.1333  0.8226
 9277TIP3    H249323   1.343   6.625   0.151  0.2875  1.0830  0.4138
 9278TIP3   OH249324   6.313   1.624  14.753 -0.2314  0.0461 -0.0561
 9278TIP3    H149325   6.326   1.653  14.843  0.6575  2.2072 -0.8293
 9278TIP3    H249326   6.394   1.580  14.729 -0.8596 -1.4510  0.5077
 9279TIP3   OH249327   2.398   2.146  12.085  0.0403 -0.2368 -0.4190
 9279TIP3    H149328   2.413   2.093  12.164  0.2659  0.4719  0.0177
 9279TIP3    H249329   2.316   2.192  12.102 -1.0479 -1.7279 -1.5090
 9280TIP3   OH249330   3.185   3.196  15.327 -0.3417 -0.6015 -0.4603
 9280TIP3    H149331   3.212   3.172  15.238 -0.6153 -0.7734 -0.4960
 9280TIP3    H249332   3.171   3.291  15.322  1.3010 -0.3286 -0.1771
 9281TIP3   OH249333   5.435   6.575   3.019  0.5414  0.0776  0.5730
 9281TIP3    H149334   5.395   6.624   2.947  0.9214 -0.5879 -0.0972
 9281TIP3    H249335   5.529   6.590   3.010  0.5093  1.1923  1.8219
 9282TIP3   OH249336   4.552   5.984   3.932 -0.0689  1.0942  0.0639
 9282TIP3    H149337   4.465   6.023   3.923 -0.7683 -0.6577 -1.1820
 9282TIP3    H249338   4.577   6.001   4.023 -1.0382  2.9626  0.0051
 9283TIP3   OH249339   4.178   2.795   0.187 -0.4618 -0.1942  0.0256
 9283TIP3    H149340   4.251   2.852   0.165 -0.5217  0.1056  0.5967
 9283TIP3    H249341   4.216   2.707   0.188 -0.5129 -0.2467 -1.5064
 9284TIP3   OH249342   0.468   3.379  14.138  0.4251 -0.1294  0.4845
 9284TIP3    H149343   0.482   3.347  14.227  1.3430  0.7447  0.6620
 9284TIP3    H249344   0.555   3.407  14.109  0.1451 -0.4637 -0.7096
 9285TIP3   OH249345   1.592   5.769   5.074  0.1223 -0.1978 -0.0283
 9285TIP3    H149346   1.539   5.811   5.142  1.3503 -1.4793  1.7763
 9285TIP3    H249347   1.564   5.677   5.075  0.7276 -0.3891 -0.6889
 9286TIP3   OH249348   5.446   4.354  12.847  0.0141 -0.3128 -0.0411
 9286TIP3    H149349   5.453   4.353  12.751  0.8139  0.7824 -0.0057
 9286TIP3    H249350   5.490   4.274  12.874  0.3298 -0.3267 -0.5680
 9287TIP3   OH249351   6.621   2.548  17.179 -0.0772  0.2623  0.0090
 9287TIP3    H149352   6.649   2.489  17.249 -0.7134  1.3563  1.1831
 9287TIP3    H249353   6.614   2.491  17.102 -1.0273 -1.2657  1.2170
 9288TIP3   OH249354   4.440   3.860  13.180 -0.1084  0.1131  0.1751
 9288TIP3    H149355   4.371   3.795  13.169 -0.4946  0.3861  0.9470
 9288TIP3    H249356   4.406   3.939  13.138  0.2986 -0.1372 -0.6331
 9289TIP3   OH249357   2.132   4.577  16.852 -0.0402  0.8505 -0.1618
 9289TIP3    H149358   2.063   4.599  16.790  0.2689 -1.3196 -1.3255
 9289TIP3    H249359   2.093   4.512  16.910  1.3960 -1.5061 -1.7370
 9290TIP3   OH249360   2.748   5.479  15.984  0.4977  0.2484  0.4542
 9290TIP3    H149361   2.821   5.489  15.923 -0.1364  0.0515 -0.3587
 9290TIP3    H249362   2.777   5.414  16.047  1.4749  1.0587  0.8479
 9291TIP3   OH249363   5.598   3.565  14.073  0.2515  0.6125  0.4691
 9291TIP3    H149364   5.559   3.630  14.014 -0.6181  0.2190  0.6018
 9291TIP3    H249365   5.525   3.508  14.097  0.4859  1.0505  2.3093
 9292TIP3   OH249366   6.014   0.618  15.911 -0.6208 -0.3865  0.1799
 9292TIP3    H149367   5.943   0.680  15.925 -0.1731 -0.5719  3.6713
 9292TIP3    H249368   5.981   0.535  15.947  0.4499 -1.0650 -0.3656
 9293TIP3   OH249369   6.603   6.115  12.111 -0.6091  0.2002  0.2733
 9293TIP3    H149370   6.560   6.073  12.037 -0.2626  0.9870 -0.3908
 9293TIP3    H249371   6.575   6.207  12.106 -1.7232 -0.0252  1.9684
 9294TIP3   OH249372   3.195   0.812  15.929 -0.5473  0.3968 -0.4608
 9294TIP3    H149373   3.154   0.752  15.866 -2.5887  0.7938  0.4453
 9294TIP3    H249374   3.171   0.776  16.014 -0.9902  1.9837  0.0869
 9295TIP3   OH249375   1.545   5.333  13.807 -0.3771  0.1396 -0.0910
 9295TIP3    H149376   1.486   5.406  13.787 -0.9708 -0.2471  0.2449
 9295TIP3    H249377   1.627   5.356  13.763 -0.1602  1.6297  1.0205
 9296TIP3   OH249378   0.576   0.635  11.651  0.0351 -0.4227 -0.1127
 9296TIP3    H149379   0.629   0.715  11.658  0.8018 -1.0071  0.8925
 9296TIP3    H249380   0.517   0.652  11.578 -1.2916  1.9155  1.4217
 9297TIP3   OH249381   0.249   2.669   0.460 -0.1037 -0.1663  0.0135
 9297TIP3    H149382   0.330   2.654   0.509  0.3113 -0.1948 -0.6639
 9297TIP3    H249383   0.279   2.686   0.371 -0.9679 -2.3732 -0.7244
 9298TIP3   OH249384   1.954   1.738  12.384 -0.4994  0.1926 -0.6814
 9298TIP3    H149385   1.968   1.770  12.295 -3.3181 -1.7020 -1.8875
 9298TIP3    H249386   1.946   1.643  12.374 -0.2703 -0.1030  1.6844
 9299TIP3   OH249387   6.466   4.113  12.721 -0.2551  0.3209 -0.0301
 9299TIP3    H149388   6.473   4.180  12.789  0.4901  1.2291 -0.9894
 9299TIP3    H249389   6.456   4.163  12.640  1.0800 -0.7239 -0.8408
 9300TIP3   OH249390   3.479   5.396   6.079 -0.4983  0.2305 -0.0707
 9300TIP3    H149391   3.425   5.427   6.006 -1.7137 -0.8389  0.3581
 9300TIP3    H249392   3.510   5.310   6.051 -0.2865  0.1711  0.3387
 9301TIP3   OH249393   5.662   1.851   1.773  0.7417 -0.2321 -0.2368
 9301TIP3    H149394   5.672   1.866   1.867  1.0974 -0.8970 -0.1710
 9301TIP3    H249395   5.748   1.870   1.736  1.5002 -3.0908 -0.0253
 9302TIP3   OH249396   6.212   3.986  14.471  0.4248  0.1059  0.6114
 9302TIP3    H149397   6.262   3.906  14.455  0.5173  0.3013 -0.0855
 9302TIP3    H249398   6.263   4.032  14.539  1.5285  0.5800 -0.5120
 9303TIP3   OH249399   6.688   1.174  14.525 -0.3759  0.2727 -0.1802
 9303TIP3    H149400   6.653   1.142  14.608 -1.3489 -0.3816 -0.8304
 9303TIP3    H249401   6.614   1.221  14.485 -0.5161 -1.1088 -1.5713
 9304TIP3   OH249402   4.649   0.560  13.018  0.3796 -0.2981  0.2925
 9304TIP3    H149403   4.702   0.549  13.097  0.5416  2.5543  0.6455
 9304TIP3    H249404   4.656   0.653  12.998 -1.9346 -0.4739 -1.4904
 9305TIP3   OH249405   2.006   3.107   4.697 -0.5178 -0.3264 -0.2311
 9305TIP3    H149406   1.943   3.173   4.725  0.5944  1.2125 -1.2895
 9305TIP3    H249407   2.021   3.125   4.604  1.1513 -0.9471 -0.1101
 9306TIP3   OH249408   5.331   4.248  16.701 -0.1055 -0.3756 -0.3577
 9306TIP3    H149409   5.384   4.251  16.780  1.0732  2.8009 -1.2141
 9306TIP3    H249410   5.375   4.307  16.639 -0.3342 -3.6420 -3.8360
 9307TIP3   OH249411   0.753   5.374   4.556  0.9060 -0.5359  0.2728
 9307TIP3    H149412   0.781   5.289   4.590 -0.4146 -0.7262  0.8978
 9307TIP3    H249413   0.728   5.424   4.634  1.7125  0.4530 -0.0849
 9308TIP3   OH249414   5.600   1.130  15.534 -0.6211 -0.1091  0.9814
 9308TIP3    H149415   5.681   1.107  15.581 -0.6052 -0.8762  0.5820
 9308TIP3    H249416   5.554   1.047  15.523 -1.6252  0.3669  1.4853
 9309TIP3   OH249417   6.015   4.973   5.208 -0.1141 -0.5005 -0.0456
 9309TIP3    H149418   6.089   4.990   5.150 -0.4144 -0.5105 -0.4328
 9309TIP3    H249419   5.941   5.020   5.168 -0.5695 -1.3679 -0.2532
 9310TIP3   OH249420   0.651   4.811  13.797 -0.2227  0.0768  0.3069
 9310TIP3    H149421   0.744   4.826  13.780 -0.4474  0.1372 -0.9066
 9310TIP3    H249422   0.611   4.805  13.710 -1.1633 -1.1277  0.7976
 9311TIP3   OH249423   2.031   3.102   0.863  0.5682  0.0359  0.1015
 9311TIP3    H149424   2.021   3.031   0.799  2.3866 -0.6603  0.5711
 9311TIP3    H249425   1.970   3.170   0.833 -0.2369 -1.1903 -1.0916
 9312TIP3   OH249426   3.260   5.951  11.278  0.0293 -0.5814 -0.5058
 9312TIP3    H149427   3.319   6.018  11.245  0.5060 -0.9351 -0.3773
 9312TIP3    H249428   3.172   5.986  11.261  0.2692  0.4381  0.3201
 9313TIP3   OH249429   5.848   1.482  14.805  0.7069  0.2460 -0.2727
 9313TIP3    H149430   5.884   1.493  14.716 -0.2585  0.8803 -0.5958
 9313TIP3    H249431   5.757   1.457  14.791  1.3642 -2.8069  0.5299
 9314TIP3   OH249432   2.262   0.249   5.075 -0.6794 -0.3337  0.0964
 9314TIP3    H149433   2.339   0.294   5.111  0.0702 -1.6617  0.1932
 9314TIP3    H249434   2.199   0.248   5.147 -0.4807  0.0436  0.2771
 9315TIP3   OH249435   3.784   1.806   6.218  0.4158 -0.1006 -0.8228
 9315TIP3    H149436   3.812   1.720   6.249  1.3113  0.3034 -0.4892
 9315TIP3    H249437   3.690   1.810   6.237  0.4754 -0.8013 -0.3883
 9316TIP3   OH249438   3.625   4.418   1.580 -0.0909  0.6294 -0.5145
 9316TIP3    H149439   3.567   4.387   1.650 -0.0499  0.5566 -0.5130
 9316TIP3    H249440   3.629   4.513   1.593 -0.4360  0.6695 -0.6850
 9317TIP3   OH249441   5.633   4.070   1.764 -0.7671 -1.3027  0.8930
 9317TIP3    H149442   5.579   4.104   1.835 -0.0980  0.5788  0.5297
 9317TIP3    H249443   5.571   4.052   1.693 -0.9135  0.9440  0.4419
 9318TIP3   OH249444   0.440   0.095   1.889  0.1036  0.6883  0.4230
 9318TIP3    H149445   0.435   0.173   1.944 -0.2444  1.1631 -0.2828
 9318TIP3    H249446   0.409   0.124   1.803 -0.7631 -0.4084  0.3573
 9319TIP3   OH249447   6.195   4.117  16.093  0.0805 -0.0703  0.3820
 9319TIP3    H149448   6.119   4.097  16.038  1.4836 -0.9176 -1.2964
 9319TIP3    H249449   6.172   4.083  16.180 -2.0841  1.1162  0.3055
 9320TIP3   OH249450   0.742   4.893  12.993 -0.1919 -0.0144 -0.1702
 9320TIP3    H149451   0.792   4.867  12.915 -0.7350  0.5474 -0.7069
 9320TIP3    H249452   0.774   4.835  13.062 -0.2241 -1.0086 -0.9798
 9321TIP3   OH249453   5.118   5.540  11.920  0.1399  0.2117 -0.5752
 9321TIP3    H149454   5.083   5.628  11.935 -1.6813 -0.4481 -0.7956
 9321TIP3    H249455   5.069   5.484  11.980 -0.9800 -1.1117 -2.6617
 9322TIP3   OH249456   6.679   5.454  14.647  0.6442 -0.0798  0.1034
 9322TIP3    H149457   6.773   5.439  14.658  0.0818 -2.9923  1.5135
 9322TIP3    H249458   6.649   5.380  14.593 -1.0605  0.0834  0.7827
 9323TIP3   OH249459   1.280   2.822   0.487  0.4457 -0.5824 -0.1704
 9323TIP3    H149460   1.334   2.762   0.539  1.2487 -0.4528 -0.8419
 9323TIP3    H249461   1.316   2.816   0.398  2.1954  2.7832  0.2350
 9324TIP3   OH249462   2.039   4.603   1.246 -0.3687  0.5340  0.3672
 9324TIP3    H149463   2.122   4.566   1.218  0.3959  1.6118  1.1612
 9324TIP3    H249464   1.992   4.531   1.287 -0.4386 -0.4368 -1.3644
 9325TIP3   OH249465   4.560   5.645   6.513  0.2170 -0.4365 -0.1746
 9325TIP3    H149466   4.489   5.699   6.481  0.3152 -0.5228 -0.5337
 9325TIP3    H249467   4.544   5.558   6.476  0.7069 -0.3696 -0.5506
 9326TIP3   OH249468   0.774   1.240  16.426 -0.4646  0.0753  0.0221
 9326TIP3    H149469   0.830   1.169  16.456  1.7773  0.4468 -3.0835
 9326TIP3    H249470   0.728   1.205  16.350 -0.4981  1.4462 -0.6041
 9327TIP3   OH249471   6.553   1.022   3.426  0.2662  0.0167 -0.2074
 9327TIP3    H149472   6.569   0.991   3.515 -2.2060 -0.2462  0.1894
 9327TIP3    H249473   6.475   1.078   3.434  0.6824  0.8960 -2.0232
 9328TIP3   OH249474   1.004   5.113   6.194 -0.7046  0.3739  0.3408
 9328TIP3    H149475   1.066   5.186   6.187 -0.6612  0.1171 -2.2996
 9328TIP3    H249476   0.995   5.099   6.289  0.5774  2.6845  0.8443
 9329TIP3   OH249477   2.311   2.746  15.545  0.4234 -0.2313  0.2128
 9329TIP3    H149478   2.280   2.813  15.484  1.5199  0.0396 -0.0509
 9329TIP3    H249479   2.277   2.774  15.630  0.0875  0.1485 -0.0447
 9330TIP3   OH249480   5.997   2.870   2.538  0.5736 -0.2544  0.0034
 9330TIP3    H149481   5.944   2.815   2.480  3.0075 -1.3252 -1.2865
 9330TIP3    H249482   5.953   2.865   2.622 -0.1583 -2.9613 -0.4683
 9331TIP3   OH249483   6.335   1.399  15.732  0.0672  0.3156  0.1371
 9331TIP3    H149484   6.282   1.420  15.655 -0.5041  0.2868  0.5155
 9331TIP3    H249485   6.363   1.485  15.765  0.3616  0.3252 -0.1338
 9332TIP3   OH249486   6.127   2.043  14.575  0.1662 -0.1810  0.2298
 9332TIP3    H149487   6.212   2.024  14.536  0.8531  1.4462  0.9071
 9332TIP3    H249488   6.095   1.957  14.604  0.7212 -1.0666 -1.6855
 9333TIP3   OH249489   1.689   0.692   5.219  0.1086  0.5594  0.3106
 9333TIP3    H149490   1.668   0.782   5.196  0.9464  0.5626 -0.4608
 9333TIP3    H249491   1.648   0.679   5.304  0.0882  1.6979  0.4809
 9334TIP3   OH249492   0.318   6.565  12.171 -0.3494 -0.2995 -0.2124
 9334TIP3    H149493   0.386   6.502  12.191  0.2986  0.7352  0.8913
 9334TIP3    H249494   0.258   6.560  12.246 -0.5186  0.0841 -0.3220
 9335TIP3   OH249495   6.518   1.502  12.937  0.2053  0.1701 -0.9392
 9335TIP3    H149496   6.451   1.460  12.991  0.5053  0.5270 -0.2832
 9335TIP3    H249497   6.505   1.596  12.952  0.4634  0.2619 -1.2820
 9336TIP3   OH249498   2.324   4.581   1.585  0.1996  0.2921 -0.0085
 9336TIP3    H149499   2.416   4.601   1.601  0.0072 -0.2992  1.9091
 9336TIP3    H249500   2.278   4.612   1.663 -1.0035 -0.9775 -0.1907
 9337TIP3   OH249501   4.115   5.760  13.321  0.7194 -0.0686  0.1974
 9337TIP3    H149502   4.191   5.714  13.284  0.4205 -0.8896  0.5834
 9337TIP3    H249503   4.040   5.716  13.281  0.4574  1.7439 -1.3514
 9338TIP3   OH249504   6.729   0.862  15.889  0.0285  0.2602  0.4871
 9338TIP3    H149505   6.713   0.868  15.794  0.9198  0.2372  0.3333
 9338TIP3    H249506   6.718   0.769  15.909  1.4357  0.0059  0.1125
 9339TIP3   OH249507   5.770   1.165  12.598 -0.0495 -0.0055 -0.4563
 9339TIP3    H149508   5.698   1.170  12.661  1.0150  0.8993  0.7078
 9339TIP3    H249509   5.837   1.223  12.634  1.6907 -1.6672 -1.0008
 9340TIP3   OH249510   2.526   1.612  16.953 -0.4361  0.4676  0.2706
 9340TIP3    H149511   2.544   1.560  17.031 -0.1332  0.6572  0.3266
 9340TIP3    H249512   2.457   1.673  16.979 -0.4432  0.4266  0.3467
 9341TIP3   OH249513   6.512   4.522  12.612  0.3130  0.0187 -0.5850
 9341TIP3    H149514   6.531   4.459  12.543  2.3504 -0.9778  0.8384
 9341TIP3    H249515   6.485   4.601  12.566  1.5308 -0.6628 -2.5052
 9342TIP3   OH249516   3.683   0.529  13.372  0.0101 -0.3598  0.5558
 9342TIP3    H149517   3.748   0.525  13.442 -1.8548 -1.8082  2.2572
 9342TIP3    H249518   3.725   0.580  13.303  2.2901  0.1878  2.3006
 9343TIP3   OH249519   1.965   1.254   4.857 -0.4174  0.3151 -0.0303
 9343TIP3    H149520   1.889   1.221   4.904  0.3260 -1.1967  0.1316
 9343TIP3    H249521   2.004   1.177   4.815  1.3895  0.9406  0.4319
 9344TIP3   OH249522   4.072   0.527   3.838  0.0309  0.4885  0.4288
 9344TIP3    H149523   4.120   0.583   3.899 -0.2803  0.2942  0.8592
 9344TIP3    H249524   4.075   0.440   3.879 -1.8343  0.7331  1.1428
 9345TIP3   OH249525   6.568   0.538   4.258  0.3741  0.0046 -0.1061
 9345TIP3    H149526   6.543   0.614   4.311 -1.3278  1.2742 -2.6360
 9345TIP3    H249527   6.487   0.489   4.246  0.9373 -0.7948 -0.7406
 9346TIP3   OH249528   0.295   6.252   5.437  0.5527 -0.0083 -0.0412
 9346TIP3    H149529   0.341   6.219   5.515  1.4926  0.4005 -0.4084
 9346TIP3    H249530   0.232   6.316   5.472  1.0964  0.3058  0.3733
 9347TIP3   OH249531   3.121   5.702  11.918  0.3690  0.6341  0.4948
 9347TIP3    H149532   3.033   5.669  11.937  0.6151 -0.1277  0.3148
 9347TIP3    H249533   3.106   5.786  11.874 -0.2407  1.4524  2.2048
 9348TIP3   OH249534   2.969   0.026  14.980  0.3599 -0.0349 -0.4775
 9348TIP3    H149535   2.947  -0.061  14.949 -2.6157  0.1807  0.7737
 9348TIP3    H249536   3.063   0.024  14.995 -0.0236 -3.8693  2.0669
 9349TIP3   OH249537   0.335   3.897  11.007  0.2389  0.7608  0.8122
 9349TIP3    H149538   0.391   3.953  10.953 -0.3704 -0.2137 -0.8644
 9349TIP3    H249539   0.246   3.916  10.976 -0.0968 -0.0034  1.3062
 9350TIP3   OH249540   0.518   0.477   1.396  0.3114 -0.1820  0.9502
 9350TIP3    H149541   0.531   0.569   1.420 -1.8438  0.2763  0.4649
 9350TIP3    H249542   0.489   0.435   1.477  0.4926 -0.2583  0.9752
 9351TIP3   OH249543   5.007   2.049   6.517 -0.0682 -0.7255 -0.3295
 9351TIP3    H149544   5.012   2.078   6.426  1.2294  0.9431  0.2352
 9351TIP3    H249545   4.922   2.079   6.548  0.1926  0.2322 -0.5170
 9352TIP3   OH249546   3.546   3.093   3.633 -0.3595 -0.1740  0.2256
 9352TIP3    H149547   3.620   3.040   3.602  1.1449  1.4556  0.9254
 9352TIP3    H249548   3.522   3.053   3.717  1.6102  0.9952  1.3740
 9353TIP3   OH249549   4.698   6.337  16.616 -0.1812 -0.0145  0.2306
 9353TIP3    H149550   4.745   6.418  16.634  0.2699 -0.6301  1.9158
 9353TIP3    H249551   4.654   6.316  16.698 -1.4186 -0.7424 -0.6130
 9354TIP3   OH249552   1.411   0.418  15.146  0.4078  0.4455 -0.4284
 9354TIP3    H149553   1.437   0.508  15.163  2.4467 -0.2745  0.3673
 9354TIP3    H249554   1.486   0.379  15.101  1.1494 -1.8994  2.6340
 9355TIP3   OH249555   5.504   5.332  13.670  0.0992  0.3316  0.4189
 9355TIP3    H149556   5.437   5.347  13.737 -1.4601 -1.1178 -0.7817
 9355TIP3    H249557   5.465   5.365  13.589  0.4011 -1.4181 -0.4782
 9356TIP3   OH249558   4.355   4.451   0.543 -0.2366 -0.3134  0.3449
 9356TIP3    H149559   4.267   4.488   0.545 -0.5398 -1.0547  1.3740
 9356TIP3    H249560   4.346   4.366   0.587  1.1329 -0.0894  1.0872
 9357TIP3   OH249561   4.853   1.272  11.148 -0.2136 -0.3834 -0.2093
 9357TIP3    H149562   4.787   1.207  11.122  0.4336 -1.6873  1.3229
 9357TIP3    H249563   4.933   1.221  11.159  0.9137  1.0998 -1.4345
 9358TIP3   OH249564   6.161   4.720  10.403 -0.0635 -0.1908  0.2343
 9358TIP3    H149565   6.130   4.670  10.479  0.5252 -0.8863  0.0209
 9358TIP3    H249566   6.107   4.689  10.331 -1.4171  1.3081  0.5780
 9359TIP3   OH249567   6.237   5.200  15.806  0.3147 -0.6643 -0.2877
 9359TIP3    H149568   6.170   5.148  15.851  0.7118 -0.5668  0.4123
 9359TIP3    H249569   6.262   5.147  15.731 -0.0775 -0.9951 -0.1859
 9360TIP3   OH249570   2.041   4.428   6.055  0.1548 -0.1483 -0.2381
 9360TIP3    H149571   1.978   4.366   6.019  0.7782 -1.0506  0.2212
 9360TIP3    H249572   2.097   4.452   5.982  0.5266 -0.8781 -0.1894
 9361TIP3   OH249573   5.190   4.136  17.177  0.6110 -0.2412 -0.0720
 9361TIP3    H149574   5.159   4.068  17.237  1.6673  0.0573  0.8271
 9361TIP3    H249575   5.115   4.193  17.164  0.3289 -0.4034  0.8311
 9362TIP3   OH249576   4.149   0.199  10.639  0.1938  0.7737  0.1466
 9362TIP3    H149577   4.164   0.107  10.620  0.9956  1.0617 -0.6731
 9362TIP3    H249578   4.069   0.201  10.691  0.1621 -0.3752  0.1416
 9363TIP3   OH249579   4.587   4.778   4.378 -0.6184 -0.0086 -0.3063
 9363TIP3    H149580   4.677   4.809   4.395 -0.6372 -0.1609  0.0742
 9363TIP3    H249581   4.553   4.757   4.464 -1.8681  2.3783 -0.1819
 9364TIP3   OH249582   2.320   3.325  15.661 -0.1303 -0.2792  0.1516
 9364TIP3    H149583   2.283   3.397  15.713 -1.7135 -0.3020 -0.8958
 9364TIP3    H249584   2.330   3.362  15.573 -2.2954 -1.7125 -0.7472
 9365TIP3   OH249585   2.773   4.468   0.054 -1.0443 -0.2029  0.0775
 9365TIP3    H149586   2.679   4.453   0.047 -1.1200 -0.7378  1.9241
 9365TIP3    H249587   2.813   4.393   0.011 -1.4595  0.2924 -1.1838
 9366TIP3   OH249588   2.092   6.552   5.354 -0.3140  0.5909  0.2447
 9366TIP3    H149589   2.054   6.500   5.283 -1.6136  2.5901 -0.6029
 9366TIP3    H249590   2.173   6.588   5.318  0.2678 -0.3357  0.6183
 9367TIP3   OH249591   0.052   4.647  16.127 -0.9742 -0.0405 -0.4102
 9367TIP3    H149592   0.012   4.641  16.214 -1.2294 -0.2117 -0.5389
 9367TIP3    H249593   0.120   4.580  16.129 -0.2708  0.6774  0.0331
 9368TIP3   OH249594   0.455   3.899  11.251  0.2736 -0.4061 -0.1118
 9368TIP3    H149595   0.423   3.901  11.161  1.2211  0.6180 -0.4277
 9368TIP3    H249596   0.474   3.990  11.272 -0.5151 -0.5695  1.3339
 9369TIP3   OH249597   3.774   0.102   1.913 -0.5273  0.4466 -0.2618
 9369TIP3    H149598   3.826   0.131   1.988 -0.3214 -1.0015  0.1719
 9369TIP3    H249599   3.695   0.157   1.916 -0.5526  0.3512  1.0498
 9370TIP3   OH249600   1.547   3.812   6.036 -0.1666 -0.3490  0.6833
 9370TIP3    H149601   1.456   3.827   6.008  0.9041 -1.1582 -3.4594
 9370TIP3    H249602   1.559   3.718   6.032  0.8382 -0.2699  1.4762
 9371TIP3   OH249603   5.795   4.123  16.522  0.0388 -0.3286  0.2044
 9371TIP3    H149604   5.861   4.176  16.567 -0.2698  1.1506 -1.0329
 9371TIP3    H249605   5.771   4.175  16.445 -0.3742 -2.2318 -0.9794
 9372TIP3   OH249606   2.670   3.495   2.029 -0.2709 -0.0384  0.3959
 9372TIP3    H149607   2.575   3.496   2.023 -0.3304 -1.1599  0.9525
 9372TIP3    H249608   2.694   3.402   2.024  0.6246  0.0304  2.4370
 9373TIP3   OH249609   4.516   4.660   0.654 -0.2546 -0.2106  0.1013
 9373TIP3    H149610   4.584   4.594   0.669 -0.3540 -0.5941 -1.1125
 9373TIP3    H249611   4.444   4.611   0.614 -0.8216  0.4038  0.3698
 9374TIP3   OH249612   0.983   3.938   2.793  0.2404 -0.1143 -0.9558
 9374TIP3    H149613   0.963   4.032   2.801 -1.0911 -0.3640 -1.1208
 9374TIP3    H249614   0.902   3.895   2.822  0.6808 -1.2029 -1.3472
 9375TIP3   OH249615   5.813   0.432  11.245 -0.0943  0.0645  0.4240
 9375TIP3    H149616   5.881   0.456  11.309 -1.0357  0.5841  1.2423
 9375TIP3    H249617   5.852   0.453  11.160  1.8009 -2.1276  0.6818
 9376TIP3   OH249618   1.894   5.118  16.265  0.1851  0.3644 -0.1768
 9376TIP3    H149619   1.965   5.066  16.302 -1.2677 -1.0237  0.7338
 9376TIP3    H249620   1.874   5.183  16.333 -0.1761  0.0045  0.0688
 9377TIP3   OH249621   3.174   3.882  11.130 -0.2908  0.4490  0.4776
 9377TIP3    H149622   3.188   3.848  11.218  0.5370 -0.1804  0.1101
 9377TIP3    H249623   3.228   3.962  11.127  0.6972 -0.2181  0.1316
 9378TIP3   OH249624   4.898   2.282   5.894 -0.1264  0.3488  0.2952
 9378TIP3    H149625   4.855   2.346   5.837  3.0879  1.2679 -1.2206
 9378TIP3    H249626   4.921   2.210   5.836 -1.3439 -1.0357  1.4869
 9379TIP3   OH249627   1.646   3.794   0.247  0.6174 -0.1366  0.3662
 9379TIP3    H149628   1.697   3.852   0.191 -0.5402 -0.6355 -1.2399
 9379TIP3    H249629   1.712   3.748   0.300  1.9162 -1.2407 -2.1026
 9380TIP3   OH249630   0.945   4.835   1.468  0.3251 -0.2488 -0.0670
 9380TIP3    H149631   0.957   4.867   1.557  2.1196 -0.3444 -0.2530
 9380TIP3    H249632   1.006   4.887   1.416  0.1339 -1.0113 -1.0586
 9381TIP3   OH249633   2.244   2.318   0.671 -0.0630 -1.3594 -0.0238
 9381TIP3    H149634   2.270   2.382   0.604 -1.2089  0.0068  0.7998
 9381TIP3    H249635   2.174   2.268   0.630 -0.9331 -0.3601  0.2336
 9382TIP3   OH249636   2.226   0.950   0.981  0.0354  0.1814  0.0312
 9382TIP3    H149637   2.267   0.971   1.066  1.2214 -0.4153 -0.3804
 9382TIP3    H249638   2.177   1.029   0.959  0.0711  0.5090  1.0657
 9383TIP3   OH249639   5.011   6.789   2.425  0.5971  0.1883 -0.4283
 9383TIP3    H149640   4.932   6.794   2.480  0.4528  1.0408 -0.7129
 9383TIP3    H249641   4.995   6.714   2.368  0.6510 -0.5717  0.5356
 9384TIP3   OH249642   2.247   1.738   0.959  0.2384  0.1173 -0.0081
 9384TIP3    H149643   2.194   1.818   0.961  1.0838  0.6388  1.7898
 9384TIP3    H249644   2.328   1.761   1.003  1.0034 -1.3878 -0.5924
 9385TIP3   OH249645   3.249   6.215  15.097 -0.0861 -0.4930  0.3431
 9385TIP3    H149646   3.266   6.122  15.088 -1.7508 -0.9186  1.4131
 9385TIP3    H249647   3.160   6.227  15.065  1.1353  1.2407 -2.5752
 9386TIP3   OH249648   5.396   4.883  15.551  0.5414  0.1739 -0.1120
 9386TIP3    H149649   5.403   4.826  15.474 -0.6626  0.0342 -0.1267
 9386TIP3    H249650   5.390   4.821  15.624  1.1718  0.3018  0.0440
 9387TIP3   OH249651   0.435   2.541  13.530  0.6731 -0.3531 -0.0497
 9387TIP3    H149652   0.486   2.466  13.561  0.6834 -0.5226 -0.4711
 9387TIP3    H249653   0.350   2.533  13.574  0.3621 -1.1083 -0.7671
 9388TIP3   OH249654   5.727   3.517  13.066  0.0997  0.8223  0.2498
 9388TIP3    H149655   5.712   3.611  13.061 -1.7044  0.4370 -2.6682
 9388TIP3    H249656   5.760   3.493  12.980  2.2174 -0.9880  1.4974
 9389TIP3   OH249657   3.142   3.222  11.069  0.2378  0.0583 -0.4589
 9389TIP3    H149658   3.172   3.298  11.021  0.1098 -0.9223 -2.1140
 9389TIP3    H249659   3.212   3.158  11.060  0.5066  0.0967  1.2275
 9390TIP3   OH249660   4.087   1.886   0.366  0.1838 -0.0366 -0.1949
 9390TIP3    H149661   4.093   1.811   0.425  0.5766  0.7259  0.7455
 9390TIP3    H249662   4.026   1.945   0.410  1.7730  1.2788  0.2895
 9391TIP3   OH249663   1.538   0.125  11.964 -0.7753 -0.2831  0.8640
 9391TIP3    H149664   1.464   0.186  11.957 -0.2656  0.5236  2.2270
 9391TIP3    H249665   1.567   0.134  12.055  1.6044  0.1226  0.1015
 9392TIP3   OH249666   6.167   2.310  13.911 -0.3701 -0.3624 -0.0791
 9392TIP3    H149667   6.211   2.252  13.848 -0.5245 -0.5536 -0.0123
 9392TIP3    H249668   6.098   2.353  13.860 -0.3213 -0.3162 -0.1050
 9393TIP3   OH249669   3.487   4.565   3.680  0.1357 -0.2215  0.5455
 9393TIP3    H149670   3.476   4.575   3.775 -3.1372  2.2880  0.0290
 9393TIP3    H249671   3.417   4.505   3.654  0.4809 -0.2375 -0.3764
 9394TIP3   OH249672   4.019   6.380   4.111 -0.1552 -0.5922  0.6260
 9394TIP3    H149673   3.985   6.290   4.114 -0.6915 -0.5756 -3.0121
 9394TIP3    H249674   4.111   6.372   4.136 -0.5741 -1.9009  1.8429
 9395TIP3   OH249675   4.028   1.468  12.344 -0.2154 -0.5933  0.1034
 9395TIP3    H149676   4.086   1.514  12.283 -1.1169  0.2155 -0.1512
 9395TIP3    H249677   4.087   1.430  12.409  0.5475  1.0494  0.4002
 9396TIP3   OH249678   3.461   2.827  15.770 -0.1446 -0.0863  0.3454
 9396TIP3    H149679   3.453   2.922  15.764  1.6588  0.0163 -0.9498
 9396TIP3    H249680   3.552   2.810  15.745  0.4386 -1.8884  3.4655
 9397TIP3   OH249681   5.207   4.052   2.050  0.4311 -0.5350 -0.4647
 9397TIP3    H149682   5.197   4.112   1.976  0.9704  1.0714  0.7642
 9397TIP3    H249683   5.158   4.093   2.121 -0.2572 -2.1802  0.0365
 9398TIP3   OH249684   0.846   0.435   0.900 -0.4742  0.0822  0.4732
 9398TIP3    H149685   0.794   0.457   0.977 -1.9832  0.0083 -0.5079
 9398TIP3    H249686   0.884   0.518   0.872  0.0163  0.1203  1.2456
 9399TIP3   OH249687   2.085   2.761  11.717  0.2869  0.4032  0.3617
 9399TIP3    H149688   2.100   2.711  11.798 -2.4276  0.7586  1.1184
 9399TIP3    H249689   2.172   2.794  11.693  1.1236  0.3295  3.1458
 9400TIP3   OH249690   5.122   4.365  16.434 -0.1858 -0.2256  0.2064
 9400TIP3    H149691   5.121   4.461  16.440  0.5913 -0.2702  1.1785
 9400TIP3    H249692   5.203   4.345  16.388 -0.9485 -0.3760 -1.1025
 9401TIP3   OH249693   3.909   5.669   0.163 -0.8674  0.0130 -0.5056
 9401TIP3    H149694   3.951   5.726   0.228 -0.9579 -0.2133 -0.2479
 9401TIP3    H249695   3.982   5.626   0.119 -0.6170  3.1375 -3.3014
 9402TIP3   OH249696   4.440   0.280  16.184 -0.3534 -0.0718  0.6504
 9402TIP3    H149697   4.437   0.191  16.149 -0.1836 -0.5421  1.8203
 9402TIP3    H249698   4.519   0.318  16.146 -1.3691  0.2023 -1.2828
 9403TIP3   OH249699   3.877   1.403   2.911  0.3544  0.3762  0.0111
 9403TIP3    H149700   3.914   1.350   2.982  0.7702  0.7401  0.0658
 9403TIP3    H249701   3.841   1.339   2.850 -2.0684  0.0898  1.6651
 9404TIP3   OH249702   5.613   3.980   6.012 -0.3656 -0.3632  0.2547
 9404TIP3    H149703   5.700   4.021   6.004 -0.4182 -0.0803  1.0755
 9404TIP3    H249704   5.611   3.947   6.102 -1.1805 -0.2017  0.2990
 9405TIP3   OH249705   5.100   0.345  10.773 -0.4029 -0.5831 -0.0177
 9405TIP3    H149706   5.124   0.378  10.686 -2.0904 -1.0198 -0.6636
 9405TIP3    H249707   5.142   0.259  10.778 -0.1376 -0.4739 -0.3058
 9406TIP3   OH249708   0.248   6.298   0.961 -0.5544 -0.0778  0.6710
 9406TIP3    H149709   0.155   6.308   0.982 -0.3025  1.1256  1.2633
 9406TIP3    H249710   0.281   6.388   0.960  0.4893 -0.4756 -0.0485
 9407TIP3   OH249711   2.593   4.774  15.061 -0.6007  0.4797  0.1221
 9407TIP3    H149712   2.644   4.854  15.051  0.5221 -0.4502 -2.2223
 9407TIP3    H249713   2.538   4.789  15.137  0.0818  3.2019  0.1228
 9408TIP3   OH249714   0.790   5.943   0.482  0.3929 -0.2136  0.3812
 9408TIP3    H149715   0.743   6.004   0.425 -0.4093 -0.7338  0.4738
 9408TIP3    H249716   0.868   5.919   0.432 -0.4160 -0.8475 -0.6090
 9409TIP3   OH249717   4.452   4.432  11.454  0.0741 -0.3634 -0.1874
 9409TIP3    H149718   4.511   4.394  11.389  0.0306 -2.5667  0.9963
 9409TIP3    H249719   4.485   4.399  11.538 -2.3594 -1.0073  0.5522
 9410TIP3   OH249720   3.460   2.571   0.735 -0.1111 -0.1057 -0.1550
 9410TIP3    H149721   3.431   2.511   0.803  0.2182  0.1758  0.2390
 9410TIP3    H249722   3.543   2.535   0.704  0.2284  0.2898  0.2779
 9411TIP3   OH249723   1.494   5.181   3.687  0.1848 -0.0191 -0.1206
 9411TIP3    H149724   1.532   5.170   3.600  0.2899 -0.0694 -0.0685
 9411TIP3    H249725   1.528   5.266   3.717  0.8510 -0.4023  0.2271
 9412TIP3   OH249726   4.412   4.485   1.528 -0.2953 -0.2372  0.5861
 9412TIP3    H149727   4.451   4.434   1.599 -0.9949 -1.6875 -0.0445
 9412TIP3    H249728   4.323   4.450   1.521  0.0674 -0.7886 -1.6418
 9413TIP3   OH249729   1.689   0.831   1.906 -0.1525 -0.2649  0.1930
 9413TIP3    H149730   1.782   0.809   1.897 -0.0901  0.8588 -2.2859
 9413TIP3    H249731   1.649   0.801   1.825 -2.0277 -0.9186  1.3222
 9414TIP3   OH249732   2.808   4.088   0.370  0.2352 -0.2909 -0.0775
 9414TIP3    H149733   2.745   4.085   0.298  1.6844 -2.2466 -1.3412
 9414TIP3    H249734   2.876   4.149   0.340  0.9547 -1.2801 -0.5226
 9415TIP3   OH249735   0.075   4.337  15.846  0.4427 -0.8028  0.3167
 9415TIP3    H149736   0.123   4.368  15.923 -2.1841  3.5338  0.3356
 9415TIP3    H249737   0.016   4.270  15.880 -0.0484  0.4383  1.9846
 9416TIP3   OH249738   6.775   3.871  15.420 -0.3702  0.2767 -0.1525
 9416TIP3    H149739   6.818   3.918  15.492  0.0929 -1.1133  0.4942
 9416TIP3    H249740   6.706   3.820  15.463  0.6779 -1.4946 -0.5204
 9417TIP3   OH249741   1.049   3.767  14.880  0.1549  0.5342  0.0420
 9417TIP3    H149742   1.091   3.738  14.799 -1.3091 -0.3222 -0.4478
 9417TIP3    H249743   1.035   3.861  14.869 -2.3778  0.0025 -1.8509
 9418TIP3   OH249744   4.458   3.316   0.116  0.1677 -0.1273  0.2125
 9418TIP3    H149745   4.448   3.406   0.085  1.7056 -0.4074 -1.1863
 9418TIP3    H249746   4.508   3.324   0.198 -3.4036  0.5736  2.4315
 9419TIP3   OH249747   1.737   1.114   4.972  0.0492  0.0331  0.5804
 9419TIP3    H149748   1.812   1.102   5.030  0.4869 -0.2616 -0.0426
 9419TIP3    H249749   1.667   1.145   5.029  0.0503 -1.6292  1.5122
 9420TIP3   OH249750   6.134   6.810  13.930 -0.0323 -0.2986 -0.0944
 9420TIP3    H149751   6.217   6.766  13.910 -0.8152 -0.8951 -2.1058
 9420TIP3    H249752   6.152   6.858  14.011  2.0491 -1.0326 -0.0812
 9421TIP3   OH249753   3.660   5.596  13.548 -0.0044  0.7127 -0.0449
 9421TIP3    H149754   3.692   5.606  13.459 -1.6586 -0.5121 -0.8087
 9421TIP3    H249755   3.565   5.612  13.541 -0.2065  0.2019  1.4121
 9422TIP3   OH249756   6.625   0.977   1.718  0.5062 -0.0748 -0.2972
 9422TIP3    H149757   6.577   0.897   1.694  0.1155 -0.1871  0.8230
 9422TIP3    H249758   6.632   0.972   1.813  0.4196  1.2697 -0.2164
 9423TIP3   OH249759   4.088   4.500  12.833 -0.3774  0.1870  0.2876
 9423TIP3    H149760   4.051   4.507  12.921 -0.4300  0.9738  0.2069
 9423TIP3    H249761   4.108   4.591  12.809  1.8915 -0.2513  0.4501
 9424TIP3   OH249762   6.464   2.976   3.190  0.4109  0.1694 -0.1079
 9424TIP3    H149763   6.463   2.913   3.262 -0.2910 -1.1758 -1.2522
 9424TIP3    H249764   6.388   2.953   3.137  1.2428  0.7279 -1.5964
 9425TIP3   OH249765   4.604   3.747  15.220 -0.2241 -0.0490 -0.2508
 9425TIP3    H149766   4.642   3.660  15.231 -1.8694 -0.5273  1.8547
 9425TIP3    H249767   4.670   3.806  15.258 -0.6494 -0.7088  1.5821
 9426TIP3   OH249768   2.932   5.698   3.045  0.2366 -0.1931  0.1278
 9426TIP3    H149769   2.991   5.630   3.078  2.6786  1.1993 -1.1623
 9426TIP3    H249770   2.981   5.780   3.057 -1.0243  0.8917 -1.8838
 9427TIP3   OH249771   4.459   0.551  12.711 -0.4518  0.1813 -0.4288
 9427TIP3    H149772   4.533   0.494  12.732 -0.5561  0.4132  0.6290
 9427TIP3    H249773   4.393   0.492  12.675 -0.1213 -0.1872 -0.4305
 9428TIP3   OH249774   3.028   6.504  13.865  0.2078 -0.4336 -0.6582
 9428TIP3    H149775   3.007   6.592  13.898 -1.8057 -1.8285  1.9316
 9428TIP3    H249776   3.068   6.459  13.939 -0.6608 -2.3483 -1.3192
 9429TIP3   OH249777   3.824   1.342  16.059 -0.2859 -0.3407 -0.3708
 9429TIP3    H149778   3.817   1.427  16.103 -0.6252 -0.0627 -0.9514
 9429TIP3    H249779   3.739   1.330  16.017 -0.0959 -0.7823 -0.6311
 9430TIP3   OH249780   1.816   3.430  11.746  0.0773 -0.0342 -0.2692
 9430TIP3    H149781   1.907   3.428  11.719 -0.1949  0.0082 -1.1984
 9430TIP3    H249782   1.767   3.449  11.666 -0.8447 -1.3556 -0.0370
 9431TIP3   OH249783   4.261   6.346  12.232  0.0319 -0.3299 -0.5632
 9431TIP3    H149784   4.178   6.377  12.198 -0.4892 -1.2240 -0.1373
 9431TIP3    H249785   4.319   6.342  12.156 -0.0181  1.2340 -0.6953
 9432TIP3   OH249786   3.529   5.963  16.888 -0.2743 -0.1436  0.3165
 9432TIP3    H149787   3.522   5.972  16.793  0.4618  0.8088  0.3456
 9432TIP3    H249788   3.554   5.872  16.902  2.6020  0.4715 -0.5614
 9433TIP3   OH249789   6.630   1.522  16.874 -0.0650  0.0820 -0.1004
 9433TIP3    H149790   6.585   1.535  16.791  0.7084  0.5467 -0.4469
 9433TIP3    H249791   6.718   1.555  16.860  0.0207  0.3417  0.9552
 9434TIP3   OH249792   4.592   0.438   0.249  0.2163  0.5595  0.0756
 9434TIP3    H149793   4.610   0.355   0.293  2.5086  0.9419 -0.0618
 9434TIP3    H249794   4.580   0.414   0.157 -1.1066  0.1725  0.3332
 9435TIP3   OH249795   3.008   3.952  13.914  0.0988  1.0110 -0.0365
 9435TIP3    H149796   2.964   3.979  13.995  0.9142  1.5120  0.2443
 9435TIP3    H249797   3.101   3.968  13.931  0.3098  0.7612 -0.9403
 9436TIP3   OH249798   2.684   6.466  13.073 -0.3635 -0.3975  0.6118
 9436TIP3    H149799   2.599   6.432  13.101  0.4308 -0.2985  3.3129
 9436TIP3    H249800   2.674   6.561  13.075  0.3629 -0.3374  2.9166
 9437TIP3   OH249801   2.079   3.828   2.285  0.1271 -0.2781 -0.3522
 9437TIP3    H149802   2.008   3.813   2.224 -0.3064 -1.8145  0.4910
 9437TIP3    H249803   2.062   3.914   2.322 -0.8647 -0.3171 -0.7183
 9438TIP3   OH249804   2.765   3.887   1.299  0.1930 -0.7365 -0.7423
 9438TIP3    H149805   2.757   3.794   1.278  0.5918 -0.9044 -0.1537
 9438TIP3    H249806   2.718   3.932   1.228 -1.3418 -1.4477 -0.1991
 9439TIP3   OH249807   2.643   6.772   4.676 -0.1016 -0.0311  0.5370
 9439TIP3    H149808   2.639   6.749   4.769 -2.3872 -0.0532  0.4555
 9439TIP3    H249809   2.576   6.717   4.635  0.1225  0.7848 -0.9603
 9440TIP3   OH249810   0.048   1.378   0.741  0.0697  0.1102 -0.2799
 9440TIP3    H149811   0.039   1.376   0.836  0.7946 -0.4352 -0.2157
 9440TIP3    H249812   0.027   1.289   0.712 -0.8902  0.4674 -0.7055
 9441TIP3   OH249813   1.401   2.255   6.409  0.4111 -0.0569  0.5500
 9441TIP3    H149814   1.332   2.218   6.465 -0.7409 -1.5472 -1.8044
 9441TIP3    H249815   1.468   2.187   6.407  0.4685  0.0147  0.1540
 9442TIP3   OH249816   6.079   6.179  16.603  0.3503 -0.4471  0.7429
 9442TIP3    H149817   6.072   6.187  16.698 -0.7681 -0.9755  0.7113
 9442TIP3    H249818   5.997   6.215  16.570  0.4770 -0.8277  0.0048
 9443TIP3   OH249819   2.438   4.108  13.656  0.5720 -0.2695  0.0642
 9443TIP3    H149820   2.445   4.093  13.750 -0.0924  0.4603  0.2262
 9443TIP3    H249821   2.351   4.077  13.633  1.1963 -1.6381 -0.5426
 9444TIP3   OH249822   6.697   0.721  17.061 -0.2805  0.4804  0.2415
 9444TIP3    H149823   6.721   0.646  17.115  1.2409  2.0304  1.7548
 9444TIP3    H249824   6.739   0.704  16.977  0.8328  0.0970  0.8677
 9445TIP3   OH249825   5.139   6.100  12.744  0.4075 -0.3418  0.0351
 9445TIP3    H149826   5.199   6.153  12.692  0.8150 -0.8075  0.0306
 9445TIP3    H249827   5.071   6.162  12.773  0.5592  0.0564 -0.4641
 9446TIP3   OH249828   2.081   4.200   3.404 -0.0829 -0.1972 -0.7855
 9446TIP3    H149829   2.079   4.136   3.333  1.1148 -1.0807 -0.0404
 9446TIP3    H249830   1.990   4.210   3.430 -0.5970  0.5187 -2.7758
 9447TIP3   OH249831   0.875   2.449   5.713  0.0921  0.7498  0.1831
 9447TIP3    H149832   0.856   2.398   5.791  2.1692  1.1360  0.9787
 9447TIP3    H249833   0.894   2.383   5.646  0.2346  0.4477  0.5193
 9448TIP3   OH249834   1.672   5.342   4.763  0.1720  0.3516  0.2190
 9448TIP3    H149835   1.617   5.362   4.687  2.0690 -0.9664 -1.5918
 9448TIP3    H249836   1.657   5.249   4.780 -0.3041  0.6608  1.5351
 9449TIP3   OH249837   1.903   2.281  15.146 -0.1135  0.1265  0.2990
 9449TIP3    H149838   1.887   2.186  15.146 -0.1867  0.1409 -0.4183
 9449TIP3    H249839   1.870   2.310  15.231  2.6836 -0.9625  1.8446
 9450TIP3   OH249840   1.729   6.244  16.540 -0.3480  0.4354  0.3507
 9450TIP3    H149841   1.815   6.261  16.578 -0.7735  0.8039  1.1525
 9450TIP3    H249842   1.719   6.312  16.474  0.7385 -0.6960 -1.0348
 9451TIP3   OH249843   0.520   2.890  15.187  0.1266  0.0933  0.0133
 9451TIP3    H149844   0.544   2.901  15.279 -1.1359 -0.9628  0.4867
 9451TIP3    H249845   0.602   2.902  15.139  1.0061 -0.4145  1.3650
 9452TIP3   OH249846   1.202   1.438   2.156 -0.2611  0.3746 -0.0499
 9452TIP3    H149847   1.145   1.461   2.083 -0.2374 -0.2255 -0.2569
 9452TIP3    H249848   1.142   1.421   2.229 -0.3030  0.6210 -0.0279
 9453TIP3   OH249849   2.219   1.040   4.382  0.5965  0.3210 -0.6856
 9453TIP3    H149850   2.242   1.132   4.364  2.8348 -0.5733 -2.6573
 9453TIP3    H249851   2.125   1.036   4.367  0.3384  2.4302  0.0704
 9454TIP3   OH249852   4.510   5.901  14.417 -0.1172 -0.3793 -0.2947
 9454TIP3    H149853   4.580   5.917  14.354  0.5915  0.9833  0.7948
 9454TIP3    H249854   4.547   5.838  14.479 -0.5178 -1.0868 -0.7767
 9455TIP3   OH249855   0.713   0.859  11.697 -0.2635 -0.4489 -0.6193
 9455TIP3    H149856   0.764   0.938  11.715  0.9273 -1.7653  2.1040
 9455TIP3    H249857   0.624   0.890  11.681  0.1274  1.4253  0.7214
 9456TIP3   OH249858   5.268   1.776   3.018  0.5106  0.0735 -0.5499
 9456TIP3    H149859   5.320   1.790   2.939 -1.5931 -0.3019 -2.0346
 9456TIP3    H249860   5.269   1.861   3.063  1.9200  0.2231 -0.8471
 9457TIP3   OH249861   3.996   1.894   6.063  0.3781  0.1772 -0.2228
 9457TIP3    H149862   4.067   1.891   6.128  0.6811 -0.4113 -0.5771
 9457TIP3    H249863   3.917   1.872   6.113  0.6381 -0.4603 -0.0916
 9458TIP3   OH249864   3.494   1.788   3.983 -0.3152  0.2015  0.1022
 9458TIP3    H149865   3.475   1.864   4.037  0.3722  0.3680  0.1161
 9458TIP3    H249866   3.582   1.762   4.010 -1.9167 -2.8539  2.7985
 9459TIP3   OH249867   1.632   0.925  16.647 -0.6804  0.0639 -0.3375
 9459TIP3    H149868   1.722   0.937  16.617 -0.6213  0.3575 -0.0445
 9459TIP3    H249869   1.641   0.881  16.731 -0.8187 -0.0399 -0.3783
 9460TIP3   OH249870   2.040   5.055   1.101 -0.2305 -0.1160  0.6410
 9460TIP3    H149871   2.105   4.991   1.130 -1.0330 -1.8917 -1.3121
 9460TIP3    H249872   2.087   5.109   1.037 -0.1525 -0.1157  0.6975
 9461TIP3   OH249873   2.355   5.573   5.807  0.3643 -1.0212  0.1642
 9461TIP3    H149874   2.349   5.651   5.862 -1.0815 -1.5373  0.7694
 9461TIP3    H249875   2.338   5.605   5.719 -2.0451 -0.8874  0.6286
 9462TIP3   OH249876   3.969   2.401  10.867 -0.3219  0.4048 -0.0473
 9462TIP3    H149877   3.883   2.427  10.834  0.4445  0.3387 -2.1988
 9462TIP3    H249878   3.982   2.312  10.835  0.3418  0.2322  0.6803
 9463TIP3   OH249879   5.479   2.728  14.813  0.3934 -0.2209  0.1194
 9463TIP3    H149880   5.497   2.666  14.742  1.0200  2.0881 -1.7824
 9463TIP3    H249881   5.557   2.724  14.869  1.5228  0.7014 -1.3748
 9464TIP3   OH249882   3.021   1.023   2.096  0.7715 -0.1066 -0.4580
 9464TIP3    H149883   2.954   1.055   2.036 -0.2325 -1.5554 -0.1278
 9464TIP3    H249884   3.099   1.075   2.075 -0.2306  1.0501 -1.3728
 9465TIP3   OH249885   6.312   6.673  14.665  0.4468  0.1432 -0.1064
 9465TIP3    H149886   6.255   6.616  14.613  0.2865 -0.3290  0.5897
 9465TIP3    H249887   6.354   6.730  14.600 -0.6517  0.3476 -0.6489
 9466TIP3   OH249888   3.080   2.988   5.816 -0.7880  0.5533 -0.0946
 9466TIP3    H149889   3.128   3.056   5.768  1.3487 -0.6519  0.3103
 9466TIP3    H249890   3.080   3.018   5.907 -1.0995  0.6913 -0.1357
 9467TIP3   OH249891   5.376   6.077  11.966 -0.3266 -0.4243  0.6366
 9467TIP3    H149892   5.405   6.151  12.019 -0.1250  1.1312 -1.6077
 9467TIP3    H249893   5.456   6.043  11.926 -0.9252  0.8148 -1.6786
 9468TIP3   OH249894   3.036   3.989  13.457 -1.1040 -0.1597  0.0988
 9468TIP3    H149895   2.959   3.972  13.402 -0.7451 -0.1733 -0.4122
 9468TIP3    H249896   3.073   3.902  13.473 -0.9731 -0.1216  0.0090
 9469TIP3   OH249897   3.725   3.566   1.052  0.4665 -0.2342 -0.6384
 9469TIP3    H149898   3.691   3.606   1.132  0.9294  1.1987 -1.1526
 9469TIP3    H249899   3.808   3.526   1.078  0.7908  0.5422 -0.4800
 9470TIP3   OH249900   4.550   0.405   4.668 -0.3272  0.3172  0.5405
 9470TIP3    H149901   4.470   0.393   4.718 -1.4674  1.5711 -0.9383
 9470TIP3    H249902   4.551   0.331   4.606  0.0310 -0.0881  1.0243
 9471TIP3   OH249903   5.182   3.912  12.299 -0.4935 -0.0325  0.5936
 9471TIP3    H149904   5.124   3.835  12.304 -0.1794 -0.4066 -1.0629
 9471TIP3    H249905   5.190   3.942  12.390 -1.6775 -1.1688  1.1001
 9472TIP3   OH249906   1.910   3.815   2.074  0.1399  0.5968 -0.5287
 9472TIP3    H149907   1.947   3.829   1.987  0.0380  0.3371 -0.6150
 9472TIP3    H249908   1.815   3.827   2.061 -0.3108 -3.2309 -1.2635
 9473TIP3   OH249909   1.882   4.920   3.689 -0.0805 -0.3663 -0.0425
 9473TIP3    H149910   1.874   4.958   3.601  0.7379 -0.5367 -0.1997
 9473TIP3    H249911   1.952   4.855   3.680 -1.3731 -1.8292  0.2576
 9474TIP3   OH249912   4.391   5.616   2.978  0.0192  0.1640  0.1322
 9474TIP3    H149913   4.387   5.708   2.951 -2.2542 -0.1039 -0.5334
 9474TIP3    H249914   4.393   5.567   2.896 -1.6172 -0.4662  0.4576
 9475TIP3   OH249915   6.692   3.478  15.655  0.1318  0.0430 -0.4003
 9475TIP3    H149916   6.773   3.465  15.606  0.5805 -0.3775  0.4268
 9475TIP3    H249917   6.639   3.402  15.634  1.1152 -1.1612  1.2538
 9476TIP3   OH249918   0.705   2.909  12.702 -0.2537  0.1001 -0.0825
 9476TIP3    H149919   0.660   2.846  12.646 -0.0997  0.5791 -0.7424
 9476TIP3    H249920   0.669   2.994  12.678 -0.1299  0.3201  0.4864
 9477TIP3   OH249921   0.720   1.929   1.177 -0.9398  0.0654  0.6614
 9477TIP3    H149922   0.625   1.912   1.174 -1.0025  0.1547  1.8499
 9477TIP3    H249923   0.759   1.842   1.185 -1.1135  0.1960  3.6660
 9478TIP3   OH249924   2.140   3.631  14.578 -0.1683 -0.1361  0.3231
 9478TIP3    H149925   2.170   3.698  14.517  0.5403 -1.3728 -0.7073
 9478TIP3    H249926   2.125   3.554  14.524  0.0352 -1.1183  1.6417
 9479TIP3   OH249927   5.443   3.124   3.503 -0.8158  0.0592  0.0192
 9479TIP3    H149928   5.461   3.216   3.481  1.5525  0.0510  1.7101
 9479TIP3    H249929   5.419   3.126   3.595 -1.4813 -0.9439 -0.1347
 9480TIP3   OH249930   1.859   4.145  13.264 -0.3779 -0.5041 -0.6601
 9480TIP3    H149931   1.862   4.050  13.274 -0.7199 -0.5568 -1.0404
 9480TIP3    H249932   1.935   4.165  13.209 -1.3694 -0.7672 -2.1414
 9481TIP3   OH249933   1.876   2.356   1.273  0.3089 -0.0638 -0.6692
 9481TIP3    H149934   1.809   2.300   1.233  0.6168  0.4185 -1.8469
 9481TIP3    H249935   1.910   2.408   1.201  1.4381  0.2242  0.0725
 9482TIP3   OH249936   1.029   3.879  16.932  0.1621 -0.0946  0.3919
 9482TIP3    H149937   1.019   3.967  16.896  0.0445 -0.3057 -0.1045
 9482TIP3    H249938   0.965   3.874  17.002  0.5975  0.4261  0.8384
 9483TIP3   OH249939   1.657   3.887   0.679  0.3223  0.4436 -0.2399
 9483TIP3    H149940   1.611   3.944   0.618  1.1890 -0.8523 -2.1447
 9483TIP3    H249941   1.747   3.883   0.645  0.1269 -2.5570 -0.5299
 9484TIP3   OH249942   0.123   2.367  10.310  0.2558 -0.5473 -0.3376
 9484TIP3    H149943   0.121   2.297  10.375  1.6375 -0.8287 -0.5887
 9484TIP3    H249944   0.033   2.373  10.278 -0.2541 -0.9756  0.9871
 9485TIP3   OH249945   5.355   4.786   4.124  0.0808 -0.0155 -0.0524
 9485TIP3    H149946   5.277   4.777   4.069  0.1671 -1.1782 -0.0070
 9485TIP3    H249947   5.399   4.865   4.091 -0.5959  0.0862 -0.7287
 9486TIP3   OH249948   1.498   3.609  12.153  0.3446 -0.1305  0.5201
 9486TIP3    H149949   1.517   3.547  12.223  1.8884  0.1734  0.4021
 9486TIP3    H249950   1.514   3.560  12.073  0.1790  0.0040  0.4053
 9487TIP3   OH249951   6.321   5.651  15.977  0.0406  0.4066  0.2468
 9487TIP3    H149952   6.403   5.677  15.936  0.9007  0.7043  2.0955
 9487TIP3    H249953   6.346   5.616  16.062 -1.4057 -3.3465 -0.7558
 9488TIP3   OH249954   6.324   4.727   3.322 -0.6368 -0.0904  0.3554
 9488TIP3    H149955   6.319   4.800   3.383  0.9218 -1.0481  1.6560
 9488TIP3    H249956   6.400   4.748   3.267 -1.2678  0.1342 -0.4487
 9489TIP3   OH249957   6.011   6.559  13.438  0.5249  0.4446 -0.0853
 9489TIP3    H149958   5.990   6.470  13.465 -1.9117  0.7045 -1.0302
 9489TIP3    H249959   6.030   6.605  13.520  0.6823 -0.6464  0.5014
 9490TIP3   OH249960   4.272   1.898   5.136  0.0104 -0.2514  0.2984
 9490TIP3    H149961   4.195   1.945   5.170 -1.4330 -2.0266 -0.4455
 9490TIP3    H249962   4.315   1.961   5.078 -1.7495  0.2545 -0.4942
 9491TIP3   OH249963   6.507   2.115   3.840  0.1263  0.1255 -0.1651
 9491TIP3    H149964   6.437   2.171   3.805 -0.0019  0.8211  1.1949
 9491TIP3    H249965   6.550   2.169   3.906  2.4926  0.0146 -1.5297
 9492TIP3   OH249966   3.535   3.844  14.206  0.5305  0.4335  0.0804
 9492TIP3    H149967   3.551   3.831  14.300 -1.2859  0.0514  0.3676
 9492TIP3    H249968   3.607   3.900  14.176  0.5018  1.4884  1.9414
 9493TIP3   OH249969   4.299   5.912  11.605 -0.0301 -0.0027  0.7367
 9493TIP3    H149970   4.318   5.916  11.699  1.0209  1.4987  0.4812
 9493TIP3    H249971   4.321   6.000  11.572  1.6904 -1.1445 -1.2933
 9494TIP3   OH249972   6.572   5.099   0.770 -0.0327 -0.3003 -0.1612
 9494TIP3    H149973   6.615   5.042   0.707 -0.9108  0.1915 -1.2039
 9494TIP3    H249974   6.506   5.044   0.812 -0.7373 -0.1160 -1.0199
 9495TIP3   OH249975   3.329   2.560  13.613 -0.1261  0.3486  0.1925
 9495TIP3    H149976   3.366   2.595  13.694 -0.7038 -0.1257  0.6570
 9495TIP3    H249977   3.241   2.531  13.637 -0.2868  0.1775 -0.5954
 9496TIP3   OH249978   2.612   2.233   0.668  0.1892  0.0113  0.2046
 9496TIP3    H149979   2.661   2.156   0.695  1.6676  0.3694 -1.3362
 9496TIP3    H249980   2.562   2.204   0.591  0.3247  0.4347 -0.0451
 9497TIP3   OH249981   0.310   4.019  11.992  0.0474  0.0695  0.5884
 9497TIP3    H149982   0.285   4.109  11.974  1.5118  0.4824  0.5355
 9497TIP3    H249983   0.348   3.987  11.909 -1.0807 -0.8123  0.4020
 9498TIP3   OH249984   6.806   2.087   4.032 -0.6514  0.0443  0.2441
 9498TIP3    H149985   6.842   2.100   4.119  0.3695 -1.7565  0.1004
 9498TIP3    H249986   6.736   2.023   4.044 -0.7447  0.0564 -0.2085
 9499TIP3   OH249987   0.449   6.362  14.047  0.1262  0.5215  0.0534
 9499TIP3    H149988   0.373   6.412  14.075  0.0822  1.1671 -1.1630
 9499TIP3    H249989   0.468   6.394  13.958  1.4319 -0.0652  0.0988
 9500TIP3   OH249990   0.832   2.731  13.322  0.5666  0.4487 -0.0666
 9500TIP3    H149991   0.823   2.643  13.287  0.6437  1.1017 -1.7805
 9500TIP3    H249992   0.895   2.722  13.393  0.0351 -0.9964  0.2280
 9501TIP3   OH249993   6.136   2.614   0.957 -0.1674 -0.6546  0.1891
 9501TIP3    H149994   6.217   2.567   0.935  0.2072 -0.3800  0.9892
 9501TIP3    H249995   6.075   2.545   0.984  0.4163 -0.6689  1.4615
 9502TIP3   OH249996   4.432   1.615  15.860  0.8594  0.2248 -0.0303
 9502TIP3    H149997   4.498   1.555  15.895  1.1441  0.5067 -0.0768
 9502TIP3    H249998   4.396   1.659  15.937  0.7515  0.1014 -0.0097
 9503TIP3   OH249999   0.606   4.514   2.793 -0.0029  0.1175  0.3548
 9503TIP3    H150000   0.693   4.529   2.756  0.5939 -2.8957  0.3794
 9503TIP3    H250001   0.622   4.490   2.884 -0.8395 -0.3665  0.3869
 9504TIP3   OH250002   4.721   0.111   6.032  0.0793  0.0652 -0.1902
 9504TIP3    H150003   4.696   0.171   5.962  0.4490 -0.5314 -0.8454
 9504TIP3    H250004   4.650   0.047   6.036 -1.9339  2.3886  2.7240
 9505TIP3   OH250005   4.959   5.009   1.847 -0.1819 -0.2257  0.0203
 9505TIP3    H150006   5.026   5.044   1.907  0.3895 -0.8598 -0.2425
 9505TIP3    H250007   5.001   5.009   1.761 -1.1837  1.1751 -0.4849
 9506TIP3   OH250008   3.378   4.671  13.706  0.6231  0.9830 -0.9766
 9506TIP3    H150009   3.366   4.607  13.636 -0.2108  3.1062 -2.8419
 9506TIP3    H250010   3.459   4.717  13.682  0.6047  1.3925 -0.2502
 9507TIP3   OH250011   3.141   2.258   1.941  0.1084  0.5094  0.3462
 9507TIP3    H150012   3.134   2.353   1.953 -0.4620  0.7679 -1.8938
 9507TIP3    H250013   3.051   2.228   1.934  0.3508  0.0841 -1.0289
 9508TIP3   OH250014   2.626   4.144  10.973  0.2267  0.4381  0.0123
 9508TIP3    H150015   2.629   4.202  11.049 -0.8187  1.1132 -0.4374
 9508TIP3    H250016   2.597   4.060  11.008 -0.3910  0.7858  0.3410
 9509TIP3   OH250017   3.350   4.116  16.617  0.2806  0.2064  0.3788
 9509TIP3    H150018   3.283   4.154  16.560  1.2921 -0.9536 -1.6618
 9509TIP3    H250019   3.432   4.135  16.572  1.1012 -0.6824  1.4965
 9510TIP3   OH250020   3.212   2.412   2.616  0.5723  0.0464  0.1946
 9510TIP3    H150021   3.264   2.381   2.690 -0.1367 -3.6240 -0.7404
 9510TIP3    H250022   3.121   2.403   2.644  0.3034 -1.1799 -1.0108
 9511TIP3   OH250023   2.351   4.748   2.447  0.1784 -0.2299  0.2070
 9511TIP3    H150024   2.386   4.803   2.517 -0.1430  2.7648 -1.8721
 9511TIP3    H250025   2.364   4.659   2.478  2.0361  0.9582  3.1077
 9512TIP3   OH250026   2.160   2.783  14.008  0.3758 -0.5055  0.3628
 9512TIP3    H150027   2.183   2.870  14.040 -1.0637  0.6261 -1.5110
 9512TIP3    H250028   2.070   2.770  14.038  0.2104 -0.8838 -0.2903
 9513TIP3   OH250029   2.563   3.029   4.103  0.2205  0.2596  0.9285
 9513TIP3    H150030   2.490   3.020   4.165 -2.2031 -1.7857 -2.0887
 9513TIP3    H250031   2.635   2.982   4.145 -1.0933 -0.3763  2.5538
 9514TIP3   OH250032   1.027   6.618   6.968  0.4901  0.4260  0.3995
 9514TIP3    H150033   0.960   6.667   7.015  0.8834  0.3202  1.0773
 9514TIP3    H250034   0.983   6.586   6.890 -0.1930  0.5368  0.7359
 9515TIP3   OH250035   0.403   2.486   1.805 -0.7565 -0.2271 -0.0093
 9515TIP3    H150036   0.428   2.535   1.883 -0.5792 -1.5189  0.7719
 9515TIP3    H250037   0.384   2.398   1.838  0.7087 -1.1696 -1.6355
 9516TIP3   OH250038   0.192   5.215   6.741  0.2564 -0.2436 -0.3453
 9516TIP3    H150039   0.275   5.234   6.698  0.1943 -0.5621 -0.6110
 9516TIP3    H250040   0.141   5.296   6.732 -0.1171 -0.6122 -1.7271
 9517TIP3   OH250041   0.771   6.351   1.326  0.9934 -0.6867 -0.0808
 9517TIP3    H150042   0.820   6.269   1.323 -0.4192 -1.5194 -1.2319
 9517TIP3    H250043   0.806   6.401   1.252  0.5454 -1.0316 -0.5308
 9518TIP3   OH250044   5.417   4.721   5.770  0.0831 -0.2949 -0.2503
 9518TIP3    H150045   5.438   4.805   5.730  1.2182 -0.3438  0.2194
 9518TIP3    H250046   5.404   4.741   5.863 -0.2873 -0.5418 -0.2469
 9519TIP3   OH250047   1.966   0.481   1.617 -0.2449  0.5969 -0.6284
 9519TIP3    H150048   2.015   0.515   1.542 -0.2857  0.6130 -0.6478
 9519TIP3    H250049   2.033   0.449   1.677 -0.2788 -1.7343 -1.7717
 9520TIP3   OH250050   2.915   1.006  16.527 -0.3096 -0.3596 -0.1441
 9520TIP3    H150051   3.003   1.044  16.529  0.2121 -1.5354 -0.4909
 9520TIP3    H250052   2.881   1.029  16.440 -0.3525  0.0918 -0.0105
 9521TIP3   OH250053   2.292   5.835  11.723 -0.5641 -0.0784 -0.0018
 9521TIP3    H150054   2.325   5.875  11.643  0.2920 -0.6619  0.0470
 9521TIP3    H250055   2.214   5.886  11.745 -0.5221  0.4008 -0.9266
 9522TIP3   OH250056   0.292   3.801  16.620 -0.0365  0.3613 -0.3569
 9522TIP3    H150057   0.386   3.785  16.631  0.4725  2.7281 -1.0450
 9522TIP3    H250058   0.260   3.726  16.570  1.0457 -1.5860  1.7867
 9523TIP3   OH250059   2.913   6.107   2.616 -0.3304 -0.0299  0.4859
 9523TIP3    H150060   2.943   6.047   2.684 -0.2045  0.1736  0.6092
 9523TIP3    H250061   2.882   6.184   2.663  0.3737  0.3825  0.2881
 9524TIP3   OH250062   3.970   1.932   4.771 -0.2118 -0.0503 -0.1493
 9524TIP3    H150063   3.950   2.015   4.814 -1.0256 -1.3607  2.0931
 9524TIP3    H250064   4.046   1.951   4.716  0.8499  1.7058  1.8563
 9525TIP3   OH250065   3.997   6.760  12.155  0.2452  0.2786  0.3161
 9525TIP3    H150066   3.988   6.734  12.247 -1.5983 -1.9348 -0.4550
 9525TIP3    H250067   3.927   6.713  12.110  0.4244  2.2119 -2.0636
 9526TIP3   OH250068   3.874   1.957  11.367  0.0418  0.0486 -0.1017
 9526TIP3    H150069   3.856   1.977  11.275  0.4891 -2.7964 -0.8491
 9526TIP3    H250070   3.897   2.041  11.405 -0.5530  1.3536 -2.4901
 9527TIP3   OH250071   0.235   0.056   0.302  0.0607 -0.2338  0.1628
 9527TIP3    H150072   0.171  -0.001   0.259 -0.8589  0.4624  0.5866
 9527TIP3    H250073   0.320   0.027   0.268 -0.2106 -2.9803  1.6068
 9528TIP3   OH250074   1.021   6.407   5.794 -0.3936  0.2576 -0.0196
 9528TIP3    H150075   1.113   6.420   5.773 -0.1426 -1.6828 -0.2483
 9528TIP3    H250076   1.021   6.343   5.866 -1.5309  0.8604  0.5390
 9529TIP3   OH250077   4.766   4.230  16.777 -0.6732  0.0978 -0.2113
 9529TIP3    H150078   4.800   4.237  16.688  0.4694  1.0507  0.2918
 9529TIP3    H250079   4.830   4.174  16.823 -0.0484  1.4225  0.5778
 9530TIP3   OH250080   4.927   4.414   2.236 -0.1961  0.3294 -0.2168
 9530TIP3    H150081   4.907   4.460   2.317  0.9326  1.1068 -0.3689
 9530TIP3    H250082   4.842   4.384   2.204 -0.8810  1.7870  0.1859
 9531TIP3   OH250083   5.460   3.440  11.940  0.0885 -0.3191 -0.1070
 9531TIP3    H150084   5.515   3.383  11.993  1.1751  0.6323 -0.1982
 9531TIP3    H250085   5.396   3.381  11.900 -0.9243 -1.0209  2.4459
 9532TIP3   OH250086   5.401   2.875  14.528  0.4832  0.0146  0.1794
 9532TIP3    H150087   5.365   2.862  14.615 -0.3657  0.0830 -0.1602
 9532TIP3    H250088   5.413   2.787  14.493 -0.2804  0.0129 -0.0837
 9533TIP3   OH250089   0.501   6.621   5.752  0.1335  0.1574  0.4521
 9533TIP3    H150090   0.494   6.688   5.820  1.2238 -0.0371  0.7660
 9533TIP3    H250091   0.593   6.594   5.754 -0.4331 -1.7803  0.7105
 9534TIP3   OH250092   2.273   0.891   3.161 -0.3271  0.3150  0.0345
 9534TIP3    H150093   2.234   0.805   3.172 -1.2121  0.4774 -1.6212
 9534TIP3    H250094   2.199   0.947   3.135  0.4387  1.3168  0.0068
 9535TIP3   OH250095   0.681   3.536   2.578 -0.0573  0.1808  0.1984
 9535TIP3    H150096   0.712   3.618   2.617 -0.6391  0.7217 -0.4525
 9535TIP3    H250097   0.619   3.564   2.510 -1.9453 -0.8609  1.4381
 9536TIP3   OH250098   3.053   2.588   0.454 -0.3735 -0.1826  0.2375
 9536TIP3    H150099   3.066   2.611   0.546  1.1055  0.3430 -0.0913
 9536TIP3    H250100   3.141   2.577   0.419 -0.9298 -0.7022 -1.0455
 9537TIP3   OH250101   4.623   0.790  11.580 -0.4188 -0.6571  0.0454
 9537TIP3    H150102   4.570   0.836  11.514 -0.3696 -0.3125  0.2453
 9537TIP3    H250103   4.697   0.755  11.531 -0.3127 -0.2865 -0.0602
 9538TIP3   OH250104   2.303   0.558  12.902  0.0315 -0.1070 -0.1166
 9538TIP3    H150105   2.282   0.473  12.865 -2.2052  1.5208 -2.8048
 9538TIP3    H250106   2.219   0.595  12.928  0.9909  1.1672  1.2883
 9539TIP3   OH250107   6.494   3.128  13.279 -0.3104 -0.2136  0.2401
 9539TIP3    H150108   6.545   3.058  13.319  0.2936  0.3443  0.4658
 9539TIP3    H250109   6.403   3.102  13.292 -0.0989 -0.7395  0.7051
 9540TIP3   OH250110   6.501   0.813   3.050 -0.4290 -0.6312 -0.2957
 9540TIP3    H150111   6.474   0.849   2.966 -0.7347  0.4075  0.2415
 9540TIP3    H250112   6.564   0.875   3.084 -0.6999 -0.7756  0.4830
 9541TIP3   OH250113   0.002   1.011  10.515 -0.2224 -0.3016  1.1244
 9541TIP3    H150114   0.063   0.949  10.475  1.2910 -0.2247  3.1924
 9541TIP3    H250115  -0.079   0.962  10.527 -0.4564 -0.5477 -1.2202
 9542TIP3   OH250116   4.950   5.899  11.749 -0.2408 -0.1286  0.1634
 9542TIP3    H150117   4.967   5.885  11.656 -0.2684  0.3835  0.0802
 9542TIP3    H250118   4.929   5.812  11.783  0.6517 -0.4659 -0.1289
 9543TIP3   OH250119   6.122   5.788  12.201  0.2959 -0.1474  0.7598
 9543TIP3    H150120   6.099   5.744  12.283  0.9172 -1.0692  0.4469
 9543TIP3    H250121   6.062   5.863  12.197  0.0194 -0.2917  1.8765
 9544TIP3   OH250122   4.613   1.067  11.076  0.1847 -0.0449  0.0544
 9544TIP3    H150123   4.578   1.039  11.160  0.3354  1.4959  0.6519
 9544TIP3    H250124   4.540   1.056  11.015 -0.3831  0.2025  0.6788
 9545TIP3   OH250125   0.892   4.247   2.144  0.0162  0.4476 -0.0224
 9545TIP3    H150126   0.879   4.280   2.233 -0.6344  1.5166 -0.5097
 9545TIP3    H250127   0.986   4.256   2.129  0.1847 -0.0772  0.6881
 9546TIP3   OH250128   3.372   0.581  17.233 -0.1504  0.5550  0.8967
 9546TIP3    H150129   3.332   0.609  17.151  0.0179 -1.3211  0.1734
 9546TIP3    H250130   3.464   0.609  17.226 -0.2329  0.7509  0.6182
 9547TIP3   OH250131   2.582   4.499   1.484  0.2808 -0.3237 -0.2207
 9547TIP3    H150132   2.582   4.458   1.397  1.0919  0.7645 -0.7493
 9547TIP3    H250133   2.536   4.436   1.540  0.3852 -1.3725 -1.2795
 9548TIP3   OH250134   6.474   1.649  15.743  0.2881  0.2974  0.0081
 9548TIP3    H150135   6.542   1.664  15.809  1.3139  1.0831 -1.2253
 9548TIP3    H250136   6.517   1.664  15.659 -1.4880  1.1189 -0.7834
 9549TIP3   OH250137   5.642   6.497  14.295 -0.3944 -0.0797 -0.2133
 9549TIP3    H150138   5.563   6.545  14.272 -0.6763  0.4177  1.7146
 9549TIP3    H250139   5.666   6.451  14.215 -1.3066  1.6093 -1.4844
 9550TIP3   OH250140   4.235   0.404  15.983  0.1997  0.3937  0.0665
 9550TIP3    H150141   4.180   0.326  15.989  0.9686 -0.3404 -1.9224
 9550TIP3    H250142   4.309   0.385  16.041 -0.7500  0.6166  1.3481
 9551TIP3   OH250143   3.592   4.998  15.506  0.6259 -0.3372  0.4125
 9551TIP3    H150144   3.640   5.068  15.461 -0.4939  0.0892 -0.1292
 9551TIP3    H250145   3.626   5.000  15.595  1.2293  0.3187  0.1739
 9552TIP3   OH250146   0.121   0.858  16.544 -0.2166 -1.0008  0.4559
 9552TIP3    H150147   0.155   0.837  16.457  1.1583 -0.1850  0.7762
 9552TIP3    H250148   0.163   0.941  16.566 -2.4358  0.0538  0.8871
 9553TIP3   OH250149   1.566   5.888  12.823 -0.5414  0.2462 -0.4966
 9553TIP3    H150150   1.562   5.826  12.750  1.1195 -0.0777 -0.3307
 9553TIP3    H250151   1.474   5.914  12.838 -0.8397  0.8256 -3.1113
 9554TIP3   OH250152   4.619   4.045  10.743 -0.2848  0.0307  0.2907
 9554TIP3    H150153   4.556   4.107  10.781  0.7596  2.3922 -1.6809
 9554TIP3    H250154   4.574   4.007  10.668 -0.8313 -1.4435  1.3461
 9555TIP3   OH250155   1.530   0.316   4.811 -0.4714 -0.3162 -0.0359
 9555TIP3    H150156   1.559   0.381   4.875  2.0326 -0.9199 -0.4894
 9555TIP3    H250157   1.470   0.363   4.754 -1.0308  0.8021  1.4496
 9556TIP3   OH250158   1.456   5.212   4.286  0.0451 -0.0637 -0.0397
 9556TIP3    H150159   1.419   5.242   4.368 -1.2474 -0.2558 -0.5404
 9556TIP3    H250160   1.522   5.279   4.263  0.7636 -0.2765  1.3799
 9557TIP3   OH250161   1.620   4.786   4.579  1.1975  0.3151  0.4875
 9557TIP3    H150162   1.591   4.867   4.536 -0.9631 -0.7739 -0.1704
 9557TIP3    H250163   1.649   4.729   4.507  0.8679 -0.2256  0.7815
 9558TIP3   OH250164   5.609   4.349   3.696 -0.0553 -0.2620 -0.1985
 9558TIP3    H150165   5.651   4.411   3.637  0.4209 -1.0628 -0.7104
 9558TIP3    H250166   5.522   4.335   3.659 -0.1804  0.1414 -0.0543
 9559TIP3   OH250167   3.811   3.175   2.885  0.3017  0.2907 -0.0028
 9559TIP3    H150168   3.867   3.246   2.918  0.1650  1.0320 -1.3382
 9559TIP3    H250169   3.744   3.164   2.953  0.3259  1.4586  0.2198
 9560TIP3   OH250170   6.536   5.461   2.566  0.1247 -0.7053 -0.0220
 9560TIP3    H150171   6.613   5.514   2.544  0.2369 -0.6819  0.4222
 9560TIP3    H250172   6.463   5.507   2.526  0.4207 -1.0726 -1.0036
 9561TIP3   OH250173   0.230   6.602  15.764 -0.1450  1.2144  0.9750
 9561TIP3    H150174   0.146   6.578  15.801 -1.3723  2.5599 -0.8390
 9561TIP3    H250175   0.231   6.562  15.677  1.2298  0.9315  1.1049
 9562TIP3   OH250176   5.482   4.963   1.023  0.1935  0.4311  0.2769
 9562TIP3    H150177   5.485   4.938   0.930  2.9545  3.0024 -0.4379
 9562TIP3    H250178   5.391   4.985   1.039 -0.5110 -0.9863 -1.5592
 9563TIP3   OH250179   4.680   0.010  14.592  0.2124  0.5804 -0.5164
 9563TIP3    H150180   4.658  -0.078  14.561  0.1473  0.7775 -1.0343
 9563TIP3    H250181   4.654   0.011  14.685  0.8008 -0.1493 -0.3433
 9564TIP3   OH250182   1.048   2.300  16.659 -0.2741  0.5434 -0.5794
 9564TIP3    H150183   1.108   2.362  16.618 -0.4216  1.2932  0.3088
 9564TIP3    H250184   0.984   2.279  16.591  0.8020 -0.0260 -1.4380
 9565TIP3   OH250185   0.755   2.686   0.457 -0.5978  0.2843 -0.0760
 9565TIP3    H150186   0.837   2.682   0.506 -0.9453  1.2262  0.5906
 9565TIP3    H250187   0.782   2.711   0.368 -0.4091  3.8101  0.8853
 9566TIP3   OH250188   6.030   6.182   2.841 -0.1802 -0.7631  0.4165
 9566TIP3    H150189   6.001   6.092   2.850 -2.6858  0.2179  2.8380
 9566TIP3    H250190   5.962   6.224   2.789  0.5451 -0.0707  0.0175
 9567TIP3   OH250191   1.665   2.333   2.274  0.1182 -0.0963  0.4868
 9567TIP3    H150192   1.698   2.367   2.357  1.8230  0.9957 -0.5942
 9567TIP3    H250193   1.577   2.370   2.266 -0.3235 -0.7534  2.0965
 9568TIP3   OH250194   3.040   0.909   0.359  0.9638 -0.5572  0.1526
 9568TIP3    H150195   2.986   0.987   0.373  1.3471 -0.3175  0.3066
 9568TIP3    H250196   3.097   0.932   0.285  0.7455 -0.8693 -0.1163
 9569TIP3   OH250197   4.317   1.385   1.066  0.2420  0.1625 -0.1300
 9569TIP3    H150198   4.311   1.440   0.987 -0.6215 -0.5061 -0.5476
 9569TIP3    H250199   4.384   1.427   1.119  0.9732  0.5229 -1.3071
 9570TIP3   OH250200   3.764   1.232  14.920 -0.0798  0.1726 -0.1209
 9570TIP3    H150201   3.780   1.319  14.956  3.6037 -0.5670  0.2457
 9570TIP3    H250202   3.777   1.173  14.995 -0.3344 -0.8437 -0.8686
 9571TIP3   OH250203   4.315   3.629   2.364 -0.0470  0.0582 -0.3470
 9571TIP3    H150204   4.277   3.708   2.327  0.5177  1.0602  1.2109
 9571TIP3    H250205   4.376   3.598   2.297 -0.5843  0.6916 -1.1302
 9572TIP3   OH250206   4.013   0.691   6.238  0.5954  0.2502  0.0361
 9572TIP3    H150207   4.078   0.676   6.307  0.1504 -1.3127  0.1487
 9572TIP3    H250208   3.931   0.656   6.275  0.0987  0.4937 -0.8273
 9573TIP3   OH250209   0.424   5.474  14.691 -0.6683 -0.0827 -0.0049
 9573TIP3    H150210   0.376   5.456  14.610 -0.0422 -0.2169 -0.3471
 9573TIP3    H250211   0.462   5.562  14.678  0.9767 -0.8611 -0.6163
 9574TIP3   OH250212   1.747   2.519   4.894  0.2284 -0.0749  0.2292
 9574TIP3    H150213   1.674   2.470   4.933 -0.0111  0.5252  0.5351
 9574TIP3    H250214   1.747   2.493   4.802  0.6629 -1.3466  0.5794
 9575TIP3   OH250215   3.646   4.520   5.942  0.0617 -0.6520 -0.0923
 9575TIP3    H150216   3.670   4.556   5.857  0.0865  1.1350  0.6385
 9575TIP3    H250217   3.552   4.503   5.936 -0.3334  1.2912  0.1263
 9576TIP3   OH250218   4.494   3.313  12.607  0.7563 -0.3095  0.2315
 9576TIP3    H150219   4.452   3.299  12.522  3.1696  2.2921 -1.5084
 9576TIP3    H250220   4.434   3.370  12.654  0.4065 -0.0022 -0.5699
 9577TIP3   OH250221   1.452   4.397   5.651  0.2428  0.9704  0.4020
 9577TIP3    H150222   1.477   4.392   5.559 -1.8805 -1.4585 -0.0878
 9577TIP3    H250223   1.529   4.367   5.699  0.7718  0.6102 -0.6572
 9578TIP3   OH250224   2.529   5.424  13.732 -0.1465  0.5545  0.1720
 9578TIP3    H150225   2.576   5.416  13.649 -0.9273  0.7049 -0.2954
 9578TIP3    H250226   2.590   5.392  13.798  0.5291  0.5589 -0.4509
 9579TIP3   OH250227   2.597   6.610   0.226 -0.1189 -0.3413 -0.4391
 9579TIP3    H150228   2.658   6.566   0.285 -0.0332 -0.7564 -0.8338
 9579TIP3    H250229   2.653   6.659   0.166 -0.2625  2.1449  1.3957
 9580TIP3   OH250230   3.167   1.137   1.518 -0.3878  0.2244 -0.1550
 9580TIP3    H150231   3.162   1.075   1.591 -1.0079  0.3681 -0.0650
 9580TIP3    H250232   3.083   1.127   1.473  0.4413 -0.6556 -1.5062
 9581TIP3   OH250233   2.508   4.736   2.209 -0.6982 -0.1925 -0.3426
 9581TIP3    H150234   2.565   4.792   2.260 -0.2424  0.1177 -1.1790
 9581TIP3    H250235   2.425   4.734   2.258 -0.3506  0.2876  0.2702
 9582TIP3   OH250236   2.762   3.417   5.057  0.5692  0.5477 -0.1965
 9582TIP3    H150237   2.791   3.336   5.099 -2.9444  0.2020  1.7265
 9582TIP3    H250238   2.715   3.389   4.979  2.4285  0.9781 -1.5313
 9583TIP3   OH250239   1.885   4.081  16.575 -0.2364 -0.0925  0.1994
 9583TIP3    H150240   1.891   3.986  16.569 -0.9943 -0.0411 -2.2519
 9583TIP3    H250241   1.793   4.098  16.594 -0.6412  0.1944 -1.9009
 9584TIP3   OH250242   2.197   4.912   5.178  0.2652  0.0258  0.6626
 9584TIP3    H150243   2.189   4.826   5.138  2.6607 -0.1646  0.5086
 9584TIP3    H250244   2.126   4.916   5.243 -1.0762 -1.2623 -0.7096
 9585TIP3   OH250245   2.261   2.465   5.111 -0.0579 -0.6792 -0.6253
 9585TIP3    H150246   2.294   2.523   5.043  1.2430  0.1917  0.7076
 9585TIP3    H250247   2.166   2.470   5.103  0.0673  0.2425 -1.6727
 9586TIP3   OH250248   2.303   3.009   2.379 -0.4630 -0.1868 -0.3620
 9586TIP3    H150249   2.275   3.095   2.348 -0.1816  1.1701  2.8947
 9586TIP3    H250250   2.396   3.021   2.401 -0.8999 -0.7178  1.9394
 9587TIP3   OH250251   3.510   5.200   1.904 -0.3909 -0.0932  0.6595
 9587TIP3    H150252   3.598   5.162   1.903 -1.0195 -1.6597 -3.2204
 9587TIP3    H250253   3.522   5.288   1.869 -0.2428 -0.0372  0.8524
 9588TIP3   OH250254   2.571   6.346  16.727  0.3693  0.3400 -0.0170
 9588TIP3    H150255   2.551   6.318  16.638 -0.7970  1.4536 -0.1107
 9588TIP3    H250256   2.504   6.303  16.781  1.2855 -0.6156  0.3781
 9589TIP3   OH250257   6.480   4.331   4.055 -0.0701 -0.0284 -0.2424
 9589TIP3    H150258   6.385   4.335   4.045 -0.1290  0.5992  0.5816
 9589TIP3    H250259   6.514   4.398   3.996 -0.1463 -0.1182 -0.3881
 9590TIP3   OH250260   1.039   1.412   1.847  0.0749 -0.1815 -0.2233
 9590TIP3    H150261   1.045   1.326   1.807  0.2406  0.6471 -2.0171
 9590TIP3    H250262   1.117   1.459   1.817  0.4887  0.2829  1.5095
 9591TIP3   OH250263   1.219   1.473  15.163  0.4945 -0.1012  0.5763
 9591TIP3    H150264   1.169   1.426  15.229 -1.7169  0.0240 -0.9815
 9591TIP3    H250265   1.235   1.409  15.094 -0.8370  0.8518 -0.6525
 9592TIP3   OH250266   6.460   3.277   0.574 -0.0291  0.0652 -0.2080
 9592TIP3    H150267   6.476   3.196   0.621  1.4950  0.1776 -0.5312
 9592TIP3    H250268   6.370   3.269   0.543 -0.2433 -1.0271  0.6808
 9593TIP3   OH250269   2.803   2.832   2.490 -0.0146 -0.5051  0.2576
 9593TIP3    H150270   2.823   2.896   2.559 -0.6089  0.3706 -0.3701
 9593TIP3    H250271   2.759   2.760   2.536 -0.2402 -0.0079  0.8327
 9594TIP3   OH250272   1.299   1.658  12.004 -0.4239 -0.0271  0.1338
 9594TIP3    H150273   1.245   1.735  12.022  1.3619  1.4848 -0.8910
 9594TIP3    H250274   1.339   1.675  11.919 -2.1903 -3.3588 -1.4664
 9595TIP3   OH250275   4.179   0.813   5.170  0.7454  0.5342 -0.4681
 9595TIP3    H150276   4.179   0.866   5.250 -0.8823 -0.3151  0.1094
 9595TIP3    H250277   4.088   0.813   5.141  0.9633 -0.8549 -1.1995
 9596TIP3   OH250278   1.205   3.887   0.385 -0.2949  0.3632  0.0685
 9596TIP3    H150279   1.180   3.979   0.378 -0.5629  0.4357  1.7652
 9596TIP3    H250280   1.180   3.862   0.474 -0.4408 -1.4164 -0.4465
 9597TIP3   OH250281   3.187   5.987  13.267 -0.3964  0.0011 -0.1118
 9597TIP3    H150282   3.281   5.981  13.286 -0.4153 -1.7431 -0.5641
 9597TIP3    H250283   3.179   6.063  13.210  0.7682  0.0110 -0.2672
 9598TIP3   OH250284   6.283   6.105  11.784  0.5419  0.0573  0.0301
 9598TIP3    H150285   6.356   6.077  11.841 -0.0470  1.0124  1.2905
 9598TIP3    H250286   6.205   6.074  11.829 -0.0176  2.0947  0.5141
 9599TIP3   OH250287   6.431   2.415   0.206 -0.3662 -0.0964  0.1303
 9599TIP3    H150288   6.345   2.394   0.243 -0.9435  1.7257 -0.1147
 9599TIP3    H250289   6.413   2.437   0.114  0.3453  0.3486  0.0929
 9600TIP3   OH250290   1.163   2.033  16.365  0.5527 -0.4355  0.2178
 9600TIP3    H150291   1.121   1.955  16.328  0.4130 -1.0081  1.5513
 9600TIP3    H250292   1.127   2.040  16.453 -1.2666  2.5241 -0.6768
 9601TIP3   OH250293   0.114   5.962  13.176  0.3452  0.8823  0.5667
 9601TIP3    H150294   0.023   5.949  13.150  0.9597 -1.9297 -0.2459
 9601TIP3    H250295   0.109   5.980  13.270 -0.9598 -0.4063  0.7621
 9602TIP3   OH250296   0.378   2.565   2.551  0.1037 -0.2857  0.8850
 9602TIP3    H150297   0.367   2.637   2.613  0.2231  0.2436  0.2945
 9602TIP3    H250298   0.465   2.580   2.512 -0.9784  0.7809 -1.1971
 9603TIP3   OH250299   6.437   4.019   4.680 -0.0129  0.1570 -0.5066
 9603TIP3    H150300   6.525   4.039   4.713 -0.4798  1.3629  0.0236
 9603TIP3    H250301   6.379   4.075   4.731 -1.4147 -2.7239  1.1651
 9604TIP3   OH250302   0.536   3.832  10.797  0.0317 -0.0063 -0.0662
 9604TIP3    H150303   0.475   3.905  10.795  0.1398  0.1017  0.6712
 9604TIP3    H250304   0.621   3.871  10.781  0.3213  0.2693  2.0863
 9605TIP3   OH250305   1.592   1.526   5.243 -0.4000  0.2349  0.0718
 9605TIP3    H150306   1.557   1.603   5.287  0.0194  0.1740  0.5106
 9605TIP3    H250307   1.562   1.535   5.152  0.0145  1.1418  0.0175
 9606TIP3   OH250308   3.292   2.490   3.236 -0.3026  0.5739 -0.4428
 9606TIP3    H150309   3.198   2.488   3.254  0.1041  1.6810  2.0110
 9606TIP3    H250310   3.332   2.509   3.320  2.2538 -1.4120 -1.1293
 9607TIP3   OH250311   6.361   5.322   0.179  0.0983 -0.5187 -0.1363
 9607TIP3    H150312   6.302   5.248   0.194  1.4866 -1.1751  2.4249
 9607TIP3    H250313   6.381   5.318   0.086 -3.8310 -0.2874 -1.1035
 9608TIP3   OH250314   1.067   3.168   5.323 -0.7372 -0.0768 -0.0314
 9608TIP3    H150315   1.147   3.218   5.340 -1.0549  0.3805  0.1305
 9608TIP3    H250316   0.998   3.217   5.368 -0.8494 -1.3852  1.2764
 9609TIP3   OH250317   0.269   4.516  16.652 -0.4306  0.4272  0.0820
 9609TIP3    H150318   0.236   4.558  16.732 -0.3989 -1.6964  1.2306
 9609TIP3    H250319   0.240   4.425  16.659  2.1203 -0.4950 -0.9005
 9610TIP3   OH250320   1.658   1.740   3.994  0.2108 -0.6598  0.0632
 9610TIP3    H150321   1.590   1.673   3.995  0.7084 -1.1764  0.0312
 9610TIP3    H250322   1.708   1.721   3.914 -0.0060  0.1124 -0.2522
 9611TIP3   OH250323   1.522   1.655   1.344 -0.4690  0.1408  0.1105
 9611TIP3    H150324   1.587   1.592   1.314 -1.3439 -0.1047 -1.2972
 9611TIP3    H250325   1.567   1.705   1.412  1.3011  0.2170 -1.0938
 9612TIP3   OH250326   0.650   0.083  13.907  0.2866  0.1486 -0.5642
 9612TIP3    H150327   0.638  -0.008  13.936 -1.2838  0.1982 -0.9785
 9612TIP3    H250328   0.600   0.088  13.825 -0.6820  1.7330  0.1133
 9613TIP3   OH250329   0.810   2.617   3.928 -0.1384 -0.6540  0.4089
 9613TIP3    H150330   0.805   2.712   3.922 -0.6561 -0.6732  0.4995
 9613TIP3    H250331   0.719   2.589   3.938 -0.3313 -1.3965 -2.8326
 9614TIP3   OH250332   3.887   4.595  13.009  0.1594  0.6872  0.0378
 9614TIP3    H150333   3.929   4.635  13.085 -1.3908  1.3670  0.5622
 9614TIP3    H250334   3.813   4.547  13.045 -0.1641  0.4105 -0.9798
 9615TIP3   OH250335   5.118   2.196  14.635  0.5040 -0.0618 -0.1977
 9615TIP3    H150336   5.206   2.220  14.665  0.1499  0.3934  0.4742
 9615TIP3    H250337   5.103   2.109  14.670 -0.0386  0.6006  1.2286
 9616TIP3   OH250338   3.283   0.688  11.807  0.0542  0.0839 -0.3210
 9616TIP3    H150339   3.200   0.706  11.764  0.1633  1.7198  0.1224
 9616TIP3    H250340   3.333   0.769  11.798  0.4490  0.1499  1.9856
 9617TIP3   OH250341   3.516   2.498  15.987  0.1820  0.3091  0.2682
 9617TIP3    H150342   3.583   2.563  15.969  2.7138 -1.9574  1.1989
 9617TIP3    H250343   3.481   2.475  15.901  0.1297  1.9870 -0.1612
 9618TIP3   OH250344   3.898   6.391   0.869  0.0386  0.4444 -0.0670
 9618TIP3    H150345   3.839   6.368   0.941 -0.5376  1.1754 -0.2887
 9618TIP3    H250346   3.892   6.318   0.808  1.4074 -0.7083  1.1517
 9619TIP3   OH250347   1.670   4.457  11.536  0.4224  0.4305 -0.3900
 9619TIP3    H150348   1.732   4.482  11.468 -0.5195  1.7589 -0.7713
 9619TIP3    H250349   1.584   4.466  11.496 -0.1425  1.2450  0.9803
 9620TIP3   OH250350   2.485   2.514  15.523  0.5911  0.0028  0.5750
 9620TIP3    H150351   2.554   2.576  15.499 -0.4642  0.4128 -1.4681
 9620TIP3    H250352   2.416   2.568  15.561  0.2532 -0.0742  0.0750
 9621TIP3   OH250353   2.106   3.588   4.017 -0.2296  0.1824  0.3514
 9621TIP3    H150354   2.028   3.615   3.968  0.7584 -0.6772 -1.7402
 9621TIP3    H250355   2.117   3.495   3.995 -0.3226 -0.5103  3.0159
 9622TIP3   OH250356   0.018   1.056  12.225  0.1910  0.5821 -0.6951
 9622TIP3    H150357  -0.036   1.133  12.206 -0.7145  0.2696  0.5909
 9622TIP3    H250358  -0.036   0.982  12.200  0.6575  0.3170 -0.9251
 9623TIP3   OH250359   6.632   0.280   2.361 -0.0067  0.2879 -1.0341
 9623TIP3    H150360   6.545   0.272   2.399  0.6864  0.8887  0.7618
 9623TIP3    H250361   6.642   0.203   2.305 -0.7631 -1.0989  0.6939
 9624TIP3   OH250362   0.781   4.685  14.533  0.6969  0.3910  0.4666
 9624TIP3    H150363   0.737   4.722  14.609  2.4337  1.3664  1.0247
 9624TIP3    H250364   0.775   4.590  14.545 -1.1919  0.5131  0.5390
 9625TIP3   OH250365   5.516   4.829  13.651 -0.3048  0.5729  0.0266
 9625TIP3    H150366   5.564   4.888  13.709  0.0530  1.7806 -1.4741
 9625TIP3    H250367   5.583   4.768  13.619 -0.7969 -1.0763  2.0875
 9626TIP3   OH250368   5.871   3.749   3.486 -0.0118 -0.6242 -0.0684
 9626TIP3    H150369   5.932   3.681   3.457 -0.3786 -0.2898 -1.6429
 9626TIP3    H250370   5.820   3.706   3.555  0.6775 -1.5202 -0.0988
 9627TIP3   OH250371   4.887   0.397   5.088  0.1026  0.1413  0.1531
 9627TIP3    H150372   4.855   0.448   5.162 -1.4926 -0.6820  0.0439
 9627TIP3    H250373   4.982   0.396   5.099 -0.0351  1.0550  1.5044
 9628TIP3   OH250374   0.447   4.718   2.218  0.5113  0.6165 -0.2205
 9628TIP3    H150375   0.517   4.783   2.212  1.2259 -0.1677 -0.5571
 9628TIP3    H250376   0.468   4.654   2.150 -0.6403  0.4674 -0.4552
 9629TIP3   OH250377   4.970   3.038  15.855  0.1143  0.4610  0.2933
 9629TIP3    H150378   5.013   3.116  15.820 -0.4839  0.2111 -1.0071
 9629TIP3    H250379   4.922   3.069  15.932  0.6397  1.1968  0.3233
 9630TIP3   OH250380   0.971   5.991  14.641 -0.0021 -0.3881  0.0014
 9630TIP3    H150381   1.009   5.903  14.641 -0.6908 -0.7259  2.9293
 9630TIP3    H250382   1.040   6.047  14.677  0.9498  0.5499 -3.1610
 9631TIP3   OH250383   6.725   4.246   3.099 -0.1432  0.3543 -0.1607
 9631TIP3    H150384   6.630   4.257   3.095 -0.1684  1.3038  2.0517
 9631TIP3    H250385   6.739   4.186   3.173  0.9382 -0.6106 -1.1228
 9632TIP3   OH250386   5.371   1.649  12.222  0.7111 -0.3594  0.1506
 9632TIP3    H150387   5.404   1.647  12.132  0.1801 -1.0597 -0.0421
 9632TIP3    H250388   5.323   1.731  12.228 -1.2597 -1.3830 -0.9647
 9633TIP3   OH250389   2.539   1.176  14.091 -0.3945  0.3194 -0.6242
 9633TIP3    H150390   2.550   1.085  14.065  1.4604  0.4522 -0.3400
 9633TIP3    H250391   2.600   1.189  14.163 -2.1560  1.2347  0.7589
 9634TIP3   OH250392   5.728   0.403   2.481 -0.0057 -0.3653  0.0673
 9634TIP3    H150393   5.806   0.422   2.430  1.9646 -1.3627  2.6087
 9634TIP3    H250394   5.692   0.490   2.502  0.5918  0.1108 -0.8512
 9635TIP3   OH250395   3.066   5.758   5.985  0.3533  0.2629  0.4901
 9635TIP3    H150396   3.138   5.816   5.964  0.9144 -0.0875  1.4081
 9635TIP3    H250397   3.063   5.756   6.081  0.2665 -1.1078  0.4756
 9636TIP3   OH250398   2.730   6.554   5.325  0.4746  0.2844 -0.1961
 9636TIP3    H150399   2.666   6.520   5.263 -0.8445  0.3179  1.1090
 9636TIP3    H250400   2.703   6.517   5.409  0.5938  2.4353  0.8161
 9637TIP3   OH250401   0.780   0.551  13.696 -0.3622  0.3237  0.0913
 9637TIP3    H150402   0.780   0.580  13.604 -0.8639 -0.3138 -0.1128
 9637TIP3    H250403   0.872   0.532  13.715  0.0956  2.6943  0.4409
 9638TIP3   OH250404   0.801   1.836  12.152 -0.0905  0.4888 -0.4126
 9638TIP3    H150405   0.873   1.784  12.117  2.7955  2.9756  1.6363
 9638TIP3    H250406   0.775   1.791  12.232  1.4988  1.4268  0.6457
 9639TIP3   OH250407   1.579   4.820  13.028 -0.3538 -0.2907 -0.5243
 9639TIP3    H150408   1.576   4.900  12.975 -1.3947  0.0895  0.0956
 9639TIP3    H250409   1.662   4.826  13.076 -0.9481  0.9849  0.3775
 9640TIP3   OH250410   6.627   1.748  14.321 -0.0693  0.4304 -0.5249
 9640TIP3    H150411   6.622   1.836  14.358 -0.1167  0.3957 -0.4497
 9640TIP3    H250412   6.608   1.760  14.228  2.1271  0.8181 -0.9623
 9641TIP3   OH250413   1.442   3.491   3.589  0.1396 -0.3128 -0.6200
 9641TIP3    H150414   1.538   3.487   3.587  0.2306 -0.2734  1.6996
 9641TIP3    H250415   1.414   3.411   3.545  1.2857 -1.2543  0.3223
 9642TIP3   OH250416   6.049   2.419  13.141  0.3816 -0.4943 -0.2851
 9642TIP3    H150417   6.120   2.420  13.077 -1.0905  0.3526 -1.9232
 9642TIP3    H250418   6.045   2.508  13.174 -1.1648 -0.0549 -1.6119
 9643TIP3   OH250419   1.469   6.652   4.467  0.2578 -0.3815  0.0231
 9643TIP3    H150420   1.483   6.739   4.503  2.9485 -1.2327  1.1477
 9643TIP3    H250421   1.528   6.648   4.392 -1.4845 -0.4840 -1.3799
 9644TIP3   OH250422   3.070   2.363  13.725 -0.0995  0.0465 -0.4414
 9644TIP3    H150423   2.995   2.303  13.715  1.6721 -2.2089 -0.7001
 9644TIP3    H250424   3.099   2.348  13.815  0.6417  0.1902 -0.6610
 9645TIP3   OH250425   2.124   3.966   2.745 -0.4016 -0.3146 -0.0882
 9645TIP3    H150426   2.181   4.016   2.803  0.5124 -0.4373 -0.8691
 9645TIP3    H250427   2.042   3.957   2.794  0.0146  0.4436  0.7652
 9646TIP3   OH250428   5.354   4.560  17.167 -0.0800 -0.0592  0.2037
 9646TIP3    H150429   5.393   4.518  17.090 -0.5333  0.7535 -0.4751
 9646TIP3    H250430   5.419   4.624  17.195 -0.2567  0.2063  0.0095
 9647TIP3   OH250431   2.444   4.507  13.468  0.7445 -0.6058  0.1854
 9647TIP3    H150432   2.350   4.490  13.459  0.2683  2.0749 -0.4658
 9647TIP3    H250433   2.484   4.420  13.464 -1.4836 -1.6107 -2.6622
 9648TIP3   OH250434   2.241   6.113   0.720 -0.2637  0.3633  0.3154
 9648TIP3    H150435   2.269   6.201   0.695 -0.2093 -0.4721 -2.6938
 9648TIP3    H250436   2.146   6.116   0.715 -0.2025 -0.1655 -1.3065
 9649TIP3   OH250437   3.888   6.241   2.660 -0.3176 -0.0133 -0.6438
 9649TIP3    H150438   3.941   6.299   2.714  0.7928  0.6886 -2.4401
 9649TIP3    H250439   3.875   6.289   2.579 -1.6627 -1.1801 -1.1412
 9650TIP3   OH250440   2.915   5.420   3.627  0.0728 -0.3230  0.3801
 9650TIP3    H150441   2.860   5.352   3.665 -1.5206  0.6155 -0.1776
 9650TIP3    H250442   2.951   5.381   3.547 -1.6258 -0.2149 -0.4679
 9651TIP3   OH250443   6.577   0.897   0.961 -0.4567  0.1728 -0.5284
 9651TIP3    H150444   6.525   0.945   0.897 -0.4037  3.2070  1.5980
 9651TIP3    H250445   6.516   0.831   0.995 -1.4026  0.5087 -1.5235
 9652TIP3   OH250446   1.460   4.147  17.222  0.3517  0.2139 -0.5876
 9652TIP3    H150447   1.394   4.077  17.219  1.9724 -1.3026 -1.3274
 9652TIP3    H250448   1.425   4.215  17.163  0.9216 -1.9210 -3.4924
 9653TIP3   OH250449   6.638   5.751  13.337  0.3569  0.5769 -0.1983
 9653TIP3    H150450   6.724   5.720  13.309  0.3567 -0.0257  0.4365
 9653TIP3    H250451   6.620   5.702  13.418 -1.5746 -0.9677 -1.5082
 9654TIP3   OH250452   4.649   4.677  14.959  0.4913  0.0582  0.1254
 9654TIP3    H150453   4.588   4.661  15.031  0.1526 -0.6017 -0.3121
 9654TIP3    H250454   4.718   4.611  14.971  0.0845 -0.4883 -0.5533
 9655TIP3   OH250455   3.170   1.970   0.491 -0.2749  0.1947 -0.1858
 9655TIP3    H150456   3.234   2.008   0.430  0.6267  0.5476  0.9678
 9655TIP3    H250457   3.128   2.045   0.532 -0.5299 -0.0453 -0.0094
 9656TIP3   OH250458   6.445   5.386  14.138  0.0241  0.2918  0.6340
 9656TIP3    H150459   6.379   5.348  14.196 -0.1296  0.4302  0.5476
 9656TIP3    H250460   6.422   5.355  14.051  1.0938 -1.0913  0.8324
 9657TIP3   OH250461   0.075   4.358   2.315 -0.3202  0.3702  0.0116
 9657TIP3    H150462   0.063   4.426   2.248 -1.3531  1.4485  1.2533
 9657TIP3    H250463  -0.006   4.307   2.313 -0.1922  0.1587  0.1575
 9658TIP3   OH250464   6.785   0.510  10.707  0.6824  0.2087  0.1573
 9658TIP3    H150465   6.695   0.540  10.696  0.4308 -0.5016  0.2851
 9658TIP3    H250466   6.838   0.576  10.661  0.1278  0.7885  0.3387
 9659TIP3   OH250467   6.414   2.523   1.010 -0.0871 -0.7083 -0.1730
 9659TIP3    H150468   6.387   2.550   1.098  0.2923 -0.9004  0.0005
 9659TIP3    H250469   6.468   2.446   1.024  0.8305 -0.1286 -0.4973
 9660TIP3   OH250470   0.054   2.558   1.046  0.3113  0.7037  0.3419
 9660TIP3    H150471   0.037   2.625   0.980 -1.1364 -0.1560 -0.1943
 9660TIP3    H250472   0.001   2.585   1.122 -0.1135  0.2900  0.1974
 9661TIP3   OH250473   2.427   2.305  16.068  0.4154  0.0873 -0.3118
 9661TIP3    H150474   2.428   2.400  16.077  0.1006  0.0641  0.0051
 9661TIP3    H250475   2.517   2.278  16.083  0.3819  0.2801  0.2660
 9662TIP3   OH250476   5.949   2.834   1.060  0.2445 -0.4665 -0.3703
 9662TIP3    H150477   5.861   2.815   1.028  0.5996 -0.9993 -1.0426
 9662TIP3    H250478   6.007   2.790   0.998  0.9637 -0.9380  0.6144
 9663TIP3   OH250479   4.032   3.078   4.791  0.0421  0.2334  0.3553
 9663TIP3    H150480   3.948   3.122   4.779 -0.4480 -0.1737  2.2220
 9663TIP3    H250481   4.084   3.139   4.842 -0.1138 -0.6834  1.6400
 9664TIP3   OH250482   3.243   6.791  15.598 -0.4058  0.2092  0.1454
 9664TIP3    H150483   3.292   6.774  15.678  0.2647  0.1146 -0.2816
 9664TIP3    H250484   3.299   6.757  15.528 -1.1792 -0.1062 -0.3275
 9665TIP3   OH250485   1.156   2.594  13.885  0.6557  0.1388 -0.9033
 9665TIP3    H150486   1.222   2.562  13.824  0.8980  0.2297 -0.6933
 9665TIP3    H250487   1.134   2.517  13.938  0.0764 -0.0612 -1.4324
 9666TIP3   OH250488   2.838   1.593   1.302  0.3187  0.1316 -0.9149
 9666TIP3    H150489   2.748   1.628   1.298 -0.0589 -0.6443  0.3747
 9666TIP3    H250490   2.829   1.511   1.350  1.9674  0.8844  0.7245
 9667TIP3   OH250491   3.009   6.542   0.700 -0.5417 -0.1681 -0.1172
 9667TIP3    H150492   3.068   6.618   0.695  0.9650 -1.3972 -1.4600
 9667TIP3    H250493   2.999   6.514   0.609 -2.1634 -0.7801  0.2410
 9668TIP3   OH250494   6.743   6.722   1.527 -0.1357  0.1003  0.7120
 9668TIP3    H150495   6.742   6.633   1.491 -0.3053  0.3329  0.1253
 9668TIP3    H250496   6.803   6.770   1.469 -2.4014  1.1368 -0.8729
 9669TIP3   OH250497   5.917   6.491   5.295 -0.1257 -0.1758 -0.2529
 9669TIP3    H150498   5.983   6.430   5.263 -0.6341 -1.2827  0.7359
 9669TIP3    H250499   5.956   6.577   5.285  1.7677 -0.8646  1.0164
 9670TIP3   OH250500   4.938   4.110  11.312  0.5109 -0.0897  0.1741
 9670TIP3    H150501   4.958   4.080  11.400  0.5675 -1.2864 -0.2377
 9670TIP3    H250502   5.012   4.080  11.259 -0.0486 -0.3408 -0.4768
 9671TIP3   OH250503   0.042   6.770  13.427  0.4734 -0.5162  0.1837
 9671TIP3    H150504   0.054   6.713  13.503 -0.7702  0.0147  0.8067
 9671TIP3    H250505  -0.040   6.740  13.387  0.8350 -0.4302 -0.6211
 9672TIP3   OH250506   3.653   1.168   5.793 -0.8115 -0.6695 -0.2325
 9672TIP3    H150507   3.577   1.195   5.844 -1.3941 -1.5744 -0.6202
 9672TIP3    H250508   3.697   1.103   5.848  0.0744  0.3473  0.2923
 9673TIP3   OH250509   1.806   2.794   1.970 -0.2607  0.4738  0.3179
 9673TIP3    H150510   1.878   2.842   1.930 -1.1341 -0.2854 -2.2643
 9673TIP3    H250511   1.737   2.858   1.980 -0.0695  0.6472  0.5363
 9674TIP3   OH250512   0.393   0.848  14.130  0.0318 -0.4275  0.9356
 9674TIP3    H150513   0.403   0.818  14.221  2.0159  0.5336  1.0545
 9674TIP3    H250514   0.476   0.825  14.088  0.2446  1.7033  0.1261
 9675TIP3   OH250515   2.426   5.583   6.475 -0.4061  0.2512 -0.4074
 9675TIP3    H150516   2.401   5.491   6.466 -2.2598  0.7351 -0.3732
 9675TIP3    H250517   2.490   5.597   6.405 -0.3556 -0.9672 -0.6213
 9676TIP3   OH250518   4.015   0.516  10.575 -0.2263 -0.6064 -0.0168
 9676TIP3    H150519   4.109   0.518  10.590  0.1409 -1.4504 -2.0269
 9676TIP3    H250520   4.005   0.544  10.483 -1.9678 -0.0335  0.3209
 9677TIP3   OH250521   0.574   0.053   1.236 -0.0789  0.5526 -0.4380
 9677TIP3    H150522   0.499   0.033   1.179 -0.5975  1.5559 -0.1260
 9677TIP3    H250523   0.535   0.098   1.311  0.6608 -0.3550  0.4931
 9678TIP3   OH250524   4.447   1.674  11.546 -0.2381 -0.2449 -0.1585
 9678TIP3    H150525   4.531   1.631  11.560  1.5223  3.3456  0.8576
 9678TIP3    H250526   4.418   1.700  11.633  0.9261  4.3960 -1.0308
 9679TIP3   OH250527   5.940   4.978  11.358 -0.1955  0.5797 -0.4274
 9679TIP3    H150528   5.955   4.911  11.291  0.7470  1.2054 -0.8608
 9679TIP3    H250529   5.996   5.051  11.331 -1.3906  1.6367 -0.1022
 9680TIP3   OH250530   4.564   2.702  11.655  0.3557  0.2125 -0.1778
 9680TIP3    H150531   4.534   2.621  11.698 -0.9048  0.5525 -0.4108
 9680TIP3    H250532   4.581   2.762  11.728  0.8290 -0.0925 -0.0302
 9681TIP3   OH250533   3.236   5.530   3.815 -0.0063  1.0482 -0.0637
 9681TIP3    H150534   3.329   5.551   3.828  0.5953 -0.6690 -1.3121
 9681TIP3    H250535   3.235   5.473   3.738 -1.8667 -0.5948  1.1115
 9682TIP3   OH250536   6.639   6.614  13.627  0.1463  0.1647  0.1773
 9682TIP3    H150537   6.646   6.606  13.532  0.5869 -0.2582  0.2449
 9682TIP3    H250538   6.554   6.656  13.641  0.6081  1.3236 -0.4430
 9683TIP3   OH250539   5.503   3.419   0.812 -0.1382 -0.0594  0.0327
 9683TIP3    H150540   5.587   3.375   0.802 -0.2424 -0.2954  0.2005
 9683TIP3    H250541   5.459   3.407   0.728 -1.1210 -2.2769  0.8329
 9684TIP3   OH250542   0.609   0.030  12.654 -0.5250  0.5027 -0.1591
 9684TIP3    H150543   0.556   0.085  12.597 -0.9347  2.3989  1.9786
 9684TIP3    H250544   0.689   0.013  12.603 -0.8000  2.2900 -1.2311
 9685TIP3   OH250545   4.168   6.755   5.524  0.3317 -0.4600  0.1966
 9685TIP3    H150546   4.202   6.842   5.504 -0.1817  0.0614  1.5296
 9685TIP3    H250547   4.081   6.771   5.560 -0.1215 -1.5829 -0.3934
 9686TIP3   OH250548   4.695   2.993   0.366 -0.5855 -1.0192 -0.0633
 9686TIP3    H150549   4.735   3.075   0.335  1.0287 -1.1114  1.6915
 9686TIP3    H250550   4.608   3.020   0.396 -0.4227 -0.1180 -0.3609
 9687TIP3   OH250551   6.286   4.646  12.822 -0.1012 -0.1867 -0.0376
 9687TIP3    H150552   6.213   4.627  12.764  0.4004  1.1373 -1.1371
 9687TIP3    H250553   6.302   4.564  12.869 -0.9144 -1.0951 -1.3243
 9688TIP3   OH250554   3.102   2.045  11.760  0.4448 -0.0377 -0.0366
 9688TIP3    H150555   3.011   2.018  11.768  0.0472  1.4990  0.7537
 9688TIP3    H250556   3.116   2.107  11.832  1.4550  1.5170 -1.5237
 9689TIP3   OH250557   5.367   5.201  12.212  0.3212  0.1873  0.5767
 9689TIP3    H150558   5.401   5.270  12.268  0.2319  0.6446  0.0768
 9689TIP3    H250559   5.279   5.231  12.188  0.8881  0.6788 -0.9467
 9690TIP3   OH250560   4.319   2.067  15.916 -0.2980  0.0830 -0.0876
 9690TIP3    H150561   4.237   2.036  15.953 -0.1278  0.5347  0.6865
 9690TIP3    H250562   4.295   2.140  15.859 -0.5938 -0.8051 -1.1184
 9691TIP3   OH250563   0.875   1.997   0.893 -0.5670 -0.1980  0.4702
 9691TIP3    H150564   0.830   1.935   0.949 -0.9184  0.5845  1.0683
 9691TIP3    H250565   0.806   2.058   0.865  0.0782  0.9292  1.2929
 9692TIP3   OH250566   4.161   1.838  12.312 -0.1995 -0.0064  0.1481
 9692TIP3    H150567   4.164   1.849  12.407  0.5409  2.2966 -0.1001
 9692TIP3    H250568   4.083   1.887  12.285  0.2842  0.3991 -0.5407
 9693TIP3   OH250569   2.487   4.803   3.094 -0.6371  0.7072  0.1887
 9693TIP3    H150570   2.576   4.773   3.113 -1.2570 -1.1364  0.2950
 9693TIP3    H250571   2.439   4.723   3.072 -2.6336  1.4917  1.5155
 9694TIP3   OH250572   2.641   5.234  13.482  0.6206 -0.6033  0.3018
 9694TIP3    H150573   2.734   5.256  13.491  0.1783  1.0892  0.8540
 9694TIP3    H250574   2.639   5.139  13.482  2.4563 -0.6611 -0.6266
 9695TIP3   OH250575   6.756   0.932  16.835 -0.0824 -0.0267 -0.4850
 9695TIP3    H150576   6.766   0.961  16.744 -1.3939  0.7116 -0.4073
 9695TIP3    H250577   6.696   0.996  16.874  0.3064 -0.4554  0.8468
 9696TIP3   OH250578   5.019   0.744  12.758  0.4498 -0.4243 -0.3139
 9696TIP3    H150579   5.065   0.824  12.783  1.2089 -0.9458 -0.0345
 9696TIP3    H250580   5.080   0.674  12.776 -0.3335 -1.1053 -0.2587
 9697TIP3   OH250581   5.411   3.129  12.964 -0.0261  0.1139  0.0929
 9697TIP3    H150582   5.392   3.042  13.000  1.3533  0.1475  0.9186
 9697TIP3    H250583   5.335   3.181  12.988 -0.4462 -0.6230  0.3977
 9698TIP3   OH250584   6.637   2.980   2.968 -0.2829 -0.5149 -0.3614
 9698TIP3    H150585   6.598   2.980   3.056  0.3044  2.1420 -0.0680
 9698TIP3    H250586   6.571   3.021   2.912  0.9427  1.5368 -0.3593
 9699TIP3   OH250587   6.695   4.100  15.204 -0.5502 -0.3666 -0.5073
 9699TIP3    H150588   6.704   4.008  15.230 -1.1703 -0.5949 -1.1024
 9699TIP3    H250589   6.713   4.148  15.285  1.8636 -0.9270 -0.6647
 9700TIP3   OH250590   3.278   3.083  15.874  0.5442  0.1854  0.5158
 9700TIP3    H150591   3.365   3.096  15.836  0.6482 -0.6030  0.4733
 9700TIP3    H250592   3.221   3.071  15.798  0.5571 -0.2421  0.5739
 9701TIP3   OH250593   2.194   2.333  11.946  0.4371  0.3208 -0.1540
 9701TIP3    H150594   2.167   2.360  11.858 -0.9268 -0.4771  0.0138
 9701TIP3    H250595   2.282   2.298  11.934 -1.0250 -2.9525 -1.7950
 9702TIP3   OH250596   0.427   5.660  15.763 -0.3672 -0.1080 -0.3120
 9702TIP3    H150597   0.475   5.741  15.750 -1.9995  0.8927 -0.2364
 9702TIP3    H250598   0.346   5.671  15.713  0.2800 -2.5134 -2.0067
 9703TIP3   OH250599   4.886   0.675   0.231 -0.2366  0.2088 -0.2259
 9703TIP3    H150600   4.856   0.728   0.306  0.3613 -1.4864  1.2530
 9703TIP3    H250601   4.928   0.599   0.271  2.8224  0.7519 -2.2559
 9704TIP3   OH250602   2.379   3.404   5.344  0.2578 -0.4193 -0.5397
 9704TIP3    H150603   2.443   3.475   5.342  2.2783 -2.1897 -2.5231
 9704TIP3    H250604   2.410   3.346   5.413 -0.8181  0.1061  0.3970
 9705TIP3   OH250605   3.512   5.591  11.455 -0.1169 -0.0854  0.5542
 9705TIP3    H150606   3.588   5.598  11.513 -0.4711 -0.0409  1.0239
 9705TIP3    H250607   3.479   5.502  11.471  0.3400 -0.4112 -0.2859
 9706TIP3   OH250608   0.145   4.511  12.018 -0.1110  0.2022 -0.0567
 9706TIP3    H150609   0.065   4.540  12.061 -0.1723 -1.3783  0.9215
 9706TIP3    H250610   0.212   4.514  12.086  0.8344  2.1851 -1.0434
 9707TIP3   OH250611   4.589   5.502   0.277 -0.3019 -0.2288 -0.0836
 9707TIP3    H150612   4.535   5.492   0.199 -1.1187 -1.0316  0.5700
 9707TIP3    H250613   4.679   5.494   0.246 -0.6616 -1.5867 -0.7851
 9708TIP3   OH250614   6.725   1.587  11.573 -0.1037  0.7530  0.1320
 9708TIP3    H150615   6.710   1.602  11.667  0.2633  1.6234  0.0551
 9708TIP3    H250616   6.641   1.557  11.540 -0.5136  1.4271  0.5430
 9709TIP3   OH250617   1.485   3.939  10.868 -0.3784 -0.5748  0.6478
 9709TIP3    H150618   1.472   4.023  10.912  0.2081  0.8611 -1.8401
 9709TIP3    H250619   1.580   3.924  10.873 -0.2903 -0.3349 -0.2155
 9710TIP3   OH250620   5.672   4.331   2.072 -0.2445  0.0982  0.2285
 9710TIP3    H150621   5.640   4.248   2.107 -0.7104  0.3314  0.3517
 9710TIP3    H250622   5.691   4.312   1.980 -0.1397 -0.2014  0.3092
 9711TIP3   OH250623   6.419   4.653   0.934 -0.0449 -0.1595  0.1340
 9711TIP3    H150624   6.338   4.642   0.885  0.9585 -2.3586 -1.1136
 9711TIP3    H250625   6.392   4.659   1.026 -1.5508 -2.0170 -0.1696
 9712TIP3   OH250626   3.199   3.205   4.700 -0.6598  0.0285 -0.3632
 9712TIP3    H150627   3.278   3.154   4.682 -1.0309 -0.8047  0.3298
 9712TIP3    H250628   3.145   3.193   4.621 -0.8631 -0.8878 -0.0970
 9713TIP3   OH250629   5.307   1.785  14.117 -0.3779  0.0747 -0.2335
 9713TIP3    H150630   5.227   1.756  14.072 -1.5765  2.9980 -0.0454
 9713TIP3    H250631   5.373   1.785  14.048 -1.4236  1.2521 -1.2697
 9714TIP3   OH250632   3.809   0.710   4.811  0.8632 -0.1803 -0.1031
 9714TIP3    H150633   3.751   0.741   4.879  0.0594  0.7646 -1.2022
 9714TIP3    H250634   3.855   0.636   4.850  0.1155  0.0967  1.3116
 9715TIP3   OH250635   1.741   5.698   0.112 -0.2350 -0.1157 -0.1612
 9715TIP3    H150636   1.803   5.699   0.040 -1.2714  0.1279 -1.0614
 9715TIP3    H250637   1.751   5.784   0.153 -0.1123 -0.0076 -0.4185
 9716TIP3   OH250638   5.684   0.253   5.282 -0.3735  0.5409  0.5429
 9716TIP3    H150639   5.693   0.218   5.370 -1.1109  1.4299  0.9794
 9716TIP3    H250640   5.684   0.176   5.225  1.0095  0.0163  1.2340
 9717TIP3   OH250641   0.717   2.148   3.939  0.1183 -0.0908 -0.0555
 9717TIP3    H150642   0.763   2.080   3.890  1.8619  1.3061 -0.3835
 9717TIP3    H250643   0.647   2.176   3.881 -1.1435 -2.1554  0.4050
 9718TIP3   OH250644   0.814   3.834   6.173 -0.2494 -0.2444 -0.3559
 9718TIP3    H150645   0.893   3.849   6.121 -1.0473  0.9779 -1.2544
 9718TIP3    H250646   0.742   3.845   6.111 -1.1468 -0.7428  0.5828
 9719TIP3   OH250647   4.704   1.777   6.407 -0.3450  0.0638  0.2329
 9719TIP3    H150648   4.618   1.810   6.381  0.2345  1.3920 -0.0613
 9719TIP3    H250649   4.707   1.791   6.502 -0.0719  0.9435  0.0970
 9720TIP3   OH250650   5.281   3.023  16.990  0.4894 -0.1582 -0.0468
 9720TIP3    H150651   5.239   3.081  17.054  1.0445 -0.6139  0.7370
 9720TIP3    H250652   5.207   2.984  16.942  0.0299 -0.3564  0.8013
 9721TIP3   OH250653   0.409   0.118   2.339 -0.2068 -0.7211 -0.0273
 9721TIP3    H150654   0.444   0.206   2.325  0.4665 -0.5954  2.2404
 9721TIP3    H250655   0.481   0.060   2.315  0.3837 -0.5531  1.2814
 9722TIP3   OH250656   3.846   0.343   4.531  0.4284  0.1100 -0.4667
 9722TIP3    H150657   3.862   0.268   4.589  1.6525 -0.3460 -1.3604
 9722TIP3    H250658   3.870   0.311   4.444  0.7817  1.4828 -0.8880
 9723TIP3   OH250659   1.401   2.386   2.254 -0.4424  0.4846  0.2630
 9723TIP3    H150660   1.393   2.333   2.333  1.5583  0.2762  0.3527
 9723TIP3    H250661   1.357   2.335   2.186  1.6982 -1.4565  0.2875
 9724TIP3   OH250662   3.274   5.581   6.374 -0.0217 -0.1635  0.2951
 9724TIP3    H150663   3.205   5.524   6.407 -1.3261  1.2646  0.0939
 9724TIP3    H250664   3.352   5.526   6.371 -0.8233 -1.4023  1.8767
 9725TIP3   OH250665   1.439   2.169  13.235  0.1052 -0.1567  0.3429
 9725TIP3    H150666   1.488   2.089  13.211  0.6767  0.2767  0.0520
 9725TIP3    H250667   1.507   2.232  13.259 -0.3016  0.5189 -0.2652
 9726TIP3   OH250668   0.139   3.540  16.972 -0.3694 -0.3579  0.5495
 9726TIP3    H150669   0.204   3.481  17.009 -0.7286 -0.0467  1.7092
 9726TIP3    H250670   0.111   3.594  17.046 -1.6972 -0.2670 -0.0061
 9727TIP3   OH250671   3.667   6.063   3.215 -0.2602  0.5131  0.2242
 9727TIP3    H150672   3.733   6.038   3.151  1.1225  1.5908  1.1748
 9727TIP3    H250673   3.606   6.118   3.167  0.4043  0.7728 -0.3294
 9728TIP3   OH250674   1.238   0.014   5.777 -0.2415  0.0681  0.2760
 9728TIP3    H150675   1.148   0.013   5.745 -0.1834 -0.4870  0.1170
 9728TIP3    H250676   1.270  -0.074   5.759  0.6523  0.5593 -0.5474
 9729TIP3   OH250677   6.062   5.600  14.061  0.0670  0.5175 -0.3874
 9729TIP3    H150678   6.001   5.527  14.048  0.9275  0.0568 -1.9432
 9729TIP3    H250679   6.136   5.561  14.108 -0.6210  0.9800  1.1084
 9730TIP3   OH250680   2.471   3.875   0.560 -0.6486 -0.3441  0.0987
 9730TIP3    H150681   2.487   3.967   0.578 -0.2778 -0.6302  1.2561
 9730TIP3    H250682   2.477   3.868   0.465  1.1654  0.4860  0.1339
 9731TIP3   OH250683   1.201   5.871   2.008  0.0999 -0.2076  0.3345
 9731TIP3    H150684   1.117   5.868   2.054 -0.4552 -0.4769 -0.6855
 9731TIP3    H250685   1.200   5.955   1.962 -0.1861 -0.7884 -0.7393
 9732TIP3   OH250686   3.022   4.294  11.025 -0.1760 -0.5033 -0.3080
 9732TIP3    H150687   3.049   4.370  10.973 -1.7048 -1.2031 -2.1765
 9732TIP3    H250688   2.953   4.328  11.082  0.9408  0.0795  0.7291
 9733TIP3   OH250689   6.315   5.408   2.090 -0.2906 -0.3319 -0.3198
 9733TIP3    H150690   6.255   5.381   2.020 -2.4572  1.6667  0.7193
 9733TIP3    H250691   6.279   5.370   2.169  0.8319 -0.6042  0.0656
 9734TIP3   OH250692   1.565   4.771  14.380  0.1815 -0.3118  0.2207
 9734TIP3    H150693   1.558   4.682  14.344  0.3326 -0.0017 -0.5936
 9734TIP3    H250694   1.547   4.760  14.473 -0.0252 -1.1682  0.0937
 9735TIP3   OH250695   4.246   5.648   3.806  0.0893 -0.5640  0.0496
 9735TIP3    H150696   4.206   5.716   3.751 -0.0836 -2.2135 -1.9510
 9735TIP3    H250697   4.339   5.667   3.803 -0.1198  0.6130  0.9453
 9736TIP3   OH250698   3.296   4.979   2.615  0.4003  0.2445 -0.3536
 9736TIP3    H150699   3.354   5.031   2.559  0.2727 -0.1270 -0.8317
 9736TIP3    H250700   3.354   4.919   2.660  0.5427  0.7589  0.1561
 9737TIP3   OH250701   4.446   1.177  15.398 -0.2269 -0.1773 -0.0079
 9737TIP3    H150702   4.354   1.189  15.420  0.1963  1.3886  1.0210
 9737TIP3    H250703   4.484   1.134  15.475  0.7128  2.9107  1.3470
 9738TIP3   OH250704   1.524   2.802   3.391  0.4384  0.6251 -0.0196
 9738TIP3    H150705   1.511   2.713   3.357  1.2691  0.3849  0.2690
 9738TIP3    H250706   1.619   2.812   3.395  0.3603  2.0101 -1.2774
 9739TIP3   OH250707   2.469   1.708  16.096 -0.1447  0.0378 -0.6173
 9739TIP3    H150708   2.392   1.656  16.076 -0.4201  0.5438 -0.8967
 9739TIP3    H250709   2.543   1.656  16.065 -0.1507 -1.6546  2.0785
 9740TIP3   OH250710   4.716   5.114   3.639 -0.4615 -0.1824  0.3316
 9740TIP3    H150711   4.752   5.193   3.679  0.5156 -0.7598  0.6164
 9740TIP3    H250712   4.782   5.047   3.656 -0.2444 -0.5468 -1.8569
 9741TIP3   OH250713   5.054   2.959  16.190 -0.0256 -0.5832 -0.1333
 9741TIP3    H150714   5.088   3.047  16.206 -1.0214 -0.3065  0.4319
 9741TIP3    H250715   5.133   2.906  16.175  0.6652  0.0559  1.1621
 9742TIP3   OH250716   3.187   4.027  15.873 -0.2515  0.7616 -0.0802
 9742TIP3    H150717   3.162   4.042  15.964 -3.0866 -0.3383 -0.6270
 9742TIP3    H250718   3.233   3.944  15.873 -0.4947  0.6285  0.3234
 9743TIP3   OH250719   1.153   5.406   5.897  0.1688 -0.2411  0.2728
 9743TIP3    H150720   1.217   5.421   5.968 -1.4320  0.0066  1.6902
 9743TIP3    H250721   1.181   5.466   5.827 -0.3444  2.2416  2.1042
 9744TIP3   OH250722   0.507   2.295  15.972  0.4012  0.7068 -0.4745
 9744TIP3    H150723   0.494   2.324  16.062  1.0746 -1.1496  0.2407
 9744TIP3    H250724   0.462   2.360  15.919 -2.4660  0.2947  1.3579
 9745TIP3   OH250725   4.176   2.855  10.478 -0.0189  0.2794 -0.0889
 9745TIP3    H150726   4.226   2.810  10.410  1.3062  0.2452  0.9027
 9745TIP3    H250727   4.092   2.809  10.480 -0.1675  0.4272 -1.8604
 9746TIP3   OH250728   0.169   5.082   0.212 -0.1408 -0.4709 -0.0887
 9746TIP3    H150729   0.243   5.110   0.266 -0.8932 -1.0518  1.2938
 9746TIP3    H250730   0.197   4.998   0.176  0.2232 -0.2683 -0.2732
 9747TIP3   OH250731   5.528   5.699   5.174  0.4065  0.1662 -0.3518
 9747TIP3    H150732   5.617   5.724   5.200  0.4938  0.0961 -0.5803
 9747TIP3    H250733   5.533   5.690   5.078  0.3500 -0.5978 -0.2871
 9748TIP3   OH250734   0.814   0.801   0.047 -0.2460 -0.1605  0.0904
 9748TIP3    H150735   0.801   0.862   0.120  1.2020  0.2118  0.0610
 9748TIP3    H250736   0.804   0.854  -0.031  0.3085 -0.0959  0.0570
 9749TIP3   OH250737   2.240   1.651   5.777 -0.1058 -0.0840  0.4635
 9749TIP3    H150738   2.324   1.660   5.823 -0.7354 -1.5843  1.9449
 9749TIP3    H250739   2.258   1.588   5.707  0.6182  1.5298 -0.8737
 9750TIP3   OH250740   5.640   1.788  17.187  0.2353 -0.3535 -0.7181
 9750TIP3    H150741   5.720   1.799  17.238 -0.2609  2.0029 -0.3900
 9750TIP3    H250742   5.573   1.765  17.251  0.5485 -1.8974 -0.9360
 9751TIP3   OH250743   5.064   4.482   4.112  0.3316  0.5444 -0.7270
 9751TIP3    H150744   5.098   4.407   4.064 -0.4219 -0.5991  0.4818
 9751TIP3    H250745   4.980   4.500   4.071  0.7148  1.0203 -1.3102
 9752TIP3   OH250746   2.769   6.330  16.468 -0.0980  0.6130  0.4764
 9752TIP3    H150747   2.680   6.300  16.484 -0.6527  2.7231  1.5710
 9752TIP3    H250748   2.817   6.307  16.548  0.2209 -0.0557  0.0965
 9753TIP3   OH250749   4.460   1.868  10.725  0.7266 -0.3177 -0.0134
 9753TIP3    H150750   4.517   1.840  10.653  0.4946 -2.5583  0.6330
 9753TIP3    H250751   4.372   1.841  10.699  0.9258 -3.2018  2.0463
 9754TIP3   OH250752   4.179   2.039   2.580 -0.3965  0.0067 -0.2412
 9754TIP3    H150753   4.185   2.069   2.671 -0.4146 -1.4786  0.2789
 9754TIP3    H250754   4.253   1.978   2.571 -0.0306  0.6212 -1.4104
 9755TIP3   OH250755   1.226   5.306   1.435  0.3076 -0.7235 -0.2868
 9755TIP3    H150756   1.214   5.395   1.403  0.3368 -0.1199  1.3535
 9755TIP3    H250757   1.191   5.250   1.365 -0.3716  0.5957 -1.0098
 9756TIP3   OH250758   6.382   5.450   1.278 -0.3428 -0.0073 -0.7775
 9756TIP3    H150759   6.402   5.533   1.321  0.0855 -1.0075  1.0022
 9756TIP3    H250760   6.355   5.475   1.189 -0.1086  2.0119 -0.3092
 9757TIP3   OH250761   5.708   5.480  15.115  0.2868  0.0872 -0.7392
 9757TIP3    H150762   5.723   5.467  15.209 -2.4723  1.9669  0.0313
 9757TIP3    H250763   5.714   5.392  15.077 -0.2725 -0.9458  1.4702
 9758TIP3   OH250764   1.832   2.222  14.412  0.4108 -0.1382  0.2574
 9758TIP3    H150765   1.909   2.279  14.421  0.2160  0.0527  0.7615
 9758TIP3    H250766   1.812   2.224  14.319  0.0196  1.1547  0.3506
 9759TIP3   OH250767   3.231   5.726   5.360  0.6522 -0.9365  0.4769
 9759TIP3    H150768   3.186   5.744   5.443 -0.2970  0.5319 -0.3410
 9759TIP3    H250769   3.240   5.631   5.358  0.8329 -0.9868  2.3408
 9760TIP3   OH250770   1.541   0.568   4.973 -0.3438  0.4416 -0.6288
 9760TIP3    H150771   1.518   0.651   4.931  0.2494  0.6525 -0.5380
 9760TIP3    H250772   1.617   0.589   5.028  0.1619 -0.2840 -1.0371
 9761TIP3   OH250773   2.936   3.860  12.849  0.4056  0.3593 -0.1374
 9761TIP3    H150774   2.905   3.911  12.775  0.0595  0.7437  0.2687
 9761TIP3    H250775   3.007   3.806  12.814  0.2488  0.5513 -0.7390
 9762TIP3   OH250776   2.391   2.138   2.359  1.1372  0.1012  0.4136
 9762TIP3    H150777   2.479   2.163   2.332  1.3164  0.8520  1.6939
 9762TIP3    H250778   2.403   2.055   2.406  1.0540 -0.2216 -0.1284
 9763TIP3   OH250779   1.073   5.586   2.766 -0.2117  0.1108  0.3482
 9763TIP3    H150780   1.038   5.664   2.810 -0.5869  0.6677 -0.9250
 9763TIP3    H250781   1.035   5.513   2.816 -4.0769  0.6752 -1.5511
 9764TIP3   OH250782   2.307   4.004   1.576 -0.1252 -0.1565 -0.7003
 9764TIP3    H150783   2.380   3.956   1.535 -0.7342  0.1956 -2.2037
 9764TIP3    H250784   2.310   4.091   1.536 -0.2496  0.4425  0.5852
 9765TIP3   OH250785   0.789   4.406  15.199 -0.2100  0.1724  0.0131
 9765TIP3    H150786   0.870   4.407  15.250  0.4446 -2.1024 -0.9136
 9765TIP3    H250787   0.729   4.460  15.249  1.5263  0.9662  1.3091
 9766TIP3   OH250788   6.658   0.279   1.551 -0.2011  0.8691 -0.5700
 9766TIP3    H150789   6.604   0.283   1.472  2.4953 -1.1787 -2.6537
 9766TIP3    H250790   6.619   0.209   1.603 -0.6456  0.6417 -1.2058
 9767TIP3   OH250791   0.822   2.813  13.724 -0.2076 -0.2553  0.5246
 9767TIP3    H150792   0.786   2.901  13.714 -0.3759 -0.2104  1.4737
 9767TIP3    H250793   0.752   2.762  13.763 -0.5468 -1.1496 -1.2382
 9768TIP3   OH250794   5.070   3.303  14.264  0.0759  0.0046 -0.0531
 9768TIP3    H150795   5.131   3.331  14.332 -0.4089  0.4601  0.2018
 9768TIP3    H250796   5.015   3.237  14.307  0.9455 -1.0305 -0.5315
 9769TIP3   OH250797   6.260   4.987  15.275  0.1892 -0.2927  0.0660
 9769TIP3    H150798   6.285   5.035  15.354  0.5543 -2.5391  1.3725
 9769TIP3    H250799   6.300   4.900  15.286  0.6374 -0.5074 -2.8190
 9770TIP3   OH250800   1.657   3.710   2.045 -0.4124 -0.5354 -0.5190
 9770TIP3    H150801   1.625   3.747   2.127  0.2945  0.2240 -0.5762
 9770TIP3    H250802   1.579   3.699   1.991 -0.8611 -0.9164  0.2087
 9771TIP3   OH250803   1.535   0.013   3.447  0.3654  0.3302 -0.3019
 9771TIP3    H150804   1.617  -0.025   3.418  0.2594  0.1792 -0.4073
 9771TIP3    H250805   1.507  -0.044   3.519 -0.0463 -0.0955 -0.7886
 9772TIP3   OH250806   5.711   4.931   3.120 -0.5975 -0.1771  0.6416
 9772TIP3    H150807   5.704   4.838   3.142 -0.6842  0.0512  1.5811
 9772TIP3    H250808   5.620   4.961   3.120 -0.6836 -0.3909 -0.9980
 9773TIP3   OH250809   6.172   6.526  15.221  0.6346  0.0552  0.1398
 9773TIP3    H150810   6.116   6.524  15.144  1.0724  0.1113 -0.1806
 9773TIP3    H250811   6.258   6.499  15.190  0.0864 -3.2023  1.2354
 9774TIP3   OH250812   3.006   1.456   0.661  0.1247  0.2415 -0.2244
 9774TIP3    H150813   2.951   1.533   0.643  1.4027  1.0685 -0.6902
 9774TIP3    H250814   2.960   1.409   0.730  0.3094  2.4620  1.4630
 9775TIP3   OH250815   6.765   0.013  15.330  0.0599  0.3318  0.6911
 9775TIP3    H150816   6.722   0.068  15.395  0.5278  0.7029  0.6927
 9775TIP3    H250817   6.791  -0.065  15.378 -0.1145  0.3552  0.8210
 9776TIP3   OH250818   4.432   1.509  16.794 -0.2705  0.0619 -0.0659
 9776TIP3    H150819   4.495   1.492  16.864 -0.8213  0.2357  0.4801
 9776TIP3    H250820   4.346   1.507  16.838 -0.6109  0.2856 -0.7124
 9777TIP3   OH250821   0.627   6.496   1.983 -0.4431 -0.2821 -0.1065
 9777TIP3    H150822   0.672   6.537   1.909 -0.2413 -0.5317 -0.1222
 9777TIP3    H250823   0.544   6.543   1.989 -0.0160  0.4396  0.1741
 9778TIP3   OH250824   0.957   5.532  16.420  0.5941 -0.4056 -0.1033
 9778TIP3    H150825   0.954   5.579  16.503  1.4202  0.4627 -0.5635
 9778TIP3    H250826   0.865   5.515  16.399  0.3384  0.1751  0.5379
 9779TIP3   OH250827   1.252   1.754   1.583  0.3148 -0.0988  0.2850
 9779TIP3    H150828   1.157   1.759   1.575  0.5362  2.2877 -1.0606
 9779TIP3    H250829   1.286   1.802   1.508  2.5728  0.1630  1.4171
 9780TIP3   OH250830   1.346   2.473  11.585 -0.0347 -0.5368  0.1258
 9780TIP3    H150831   1.289   2.469  11.508  0.5974 -0.7303 -0.3407
 9780TIP3    H250832   1.302   2.419  11.651 -1.1058  0.4865  0.2540
 9781TIP3   OH250833   1.562   4.934   4.328 -0.1805 -0.7691  0.0205
 9781TIP3    H150834   1.650   4.903   4.305  0.1277  0.8011 -0.9433
 9781TIP3    H250835   1.549   5.013   4.276 -1.9255 -0.6206  0.6295
 9782TIP3   OH250836   2.161   1.775  12.541  0.3982  0.1799  0.0938
 9782TIP3    H150837   2.087   1.755  12.485  0.6343 -0.7319  0.0968
 9782TIP3    H250838   2.133   1.850  12.593 -0.0861  0.5724 -0.7262
 9783TIP3   OH250839   3.945   2.755   0.905 -0.4004 -0.5671  0.4380
 9783TIP3    H150840   3.985   2.821   0.848  0.5076 -1.4833  0.0069
 9783TIP3    H250841   3.860   2.793   0.929 -0.4474  0.1798 -0.8641
 9784TIP3   OH250842   1.994   5.828  14.374 -0.0348 -0.7963 -0.1263
 9784TIP3    H150843   2.053   5.753  14.379 -0.5297 -1.1736  0.0833
 9784TIP3    H250844   2.046   5.901  14.408 -0.0780 -1.3613  1.1489
 9785TIP3   OH250845   5.448   1.318  13.216 -0.0132 -0.2166  0.3776
 9785TIP3    H150846   5.508   1.318  13.141  0.1492  1.5855  0.4839
 9785TIP3    H250847   5.499   1.279  13.287  0.4550 -0.2677  0.0184
 9786TIP3   OH250848   4.667   3.224  16.118 -0.6334  0.1336  0.1043
 9786TIP3    H150849   4.598   3.212  16.053 -1.3727 -0.0931  0.9245
 9786TIP3    H250850   4.633   3.183  16.198  0.5366 -0.1785  0.4544
 9787TIP3   OH250851   0.203   5.123   3.650 -0.1817  0.2633 -0.1151
 9787TIP3    H150852   0.146   5.166   3.586  0.7236  0.8189 -0.5513
 9787TIP3    H250853   0.151   5.050   3.683 -1.9064  1.8781  0.8822
 9788TIP3   OH250854   0.343   2.419   0.289  0.3078  0.2180 -0.4024
 9788TIP3    H150855   0.319   2.328   0.305  1.9797 -0.2462 -0.5193
 9788TIP3    H250856   0.400   2.442   0.362  1.6279  0.5012 -1.5120
 9789TIP3   OH250857   6.146   3.165  15.173 -0.0183 -0.5101 -0.5456
 9789TIP3    H150858   6.156   3.071  15.156 -1.8698 -0.5493 -1.4750
 9789TIP3    H250859   6.132   3.171  15.267  1.4674 -1.0297 -0.2677
 9790TIP3   OH250860   1.557   0.742   1.664  0.4851 -0.0739 -0.0349
 9790TIP3    H150861   1.531   0.776   1.579  1.0600  0.8183  0.1385
 9790TIP3    H250862   1.598   0.658   1.645 -0.0433 -0.2167 -0.5631
 9791TIP3   OH250863   0.041   2.746   3.759  0.3756  0.3143  0.0950
 9791TIP3    H150864  -0.042   2.743   3.806  0.2517 -0.4020 -0.1689
 9791TIP3    H250865   0.096   2.806   3.811  0.1899 -0.3543  1.0647
 9792TIP3   OH250866   6.614   5.719  14.637  0.1747  0.2829 -0.6366
 9792TIP3    H150867   6.660   5.759  14.563 -1.1444 -0.0285 -1.6545
 9792TIP3    H250868   6.617   5.625  14.618 -0.1814  0.2059 -0.3081
 9793TIP3   OH250869   3.362   5.029  14.992 -0.2029  0.6549  0.0198
 9793TIP3    H150870   3.325   5.094  15.050  0.4539 -1.0636  2.4289
 9793TIP3    H250871   3.436   4.992  15.040  0.7193 -0.4287 -2.1302
 9794TIP3   OH250872   3.665   3.227   4.423 -0.1918  0.6831  0.0971
 9794TIP3    H150873   3.608   3.211   4.348 -0.4022 -1.4855  0.6739
 9794TIP3    H250874   3.712   3.307   4.401  2.6170 -1.9142 -4.1667
 9795TIP3   OH250875   4.031   2.913   1.293 -0.1418  0.0627  0.6901
 9795TIP3    H150876   4.120   2.902   1.261  0.6444 -1.7139  3.3157
 9795TIP3    H250877   3.981   2.943   1.217  2.4270 -0.1046 -1.1064
 9796TIP3   OH250878   3.454   3.732  13.264 -0.0208 -0.3125 -0.2950
 9796TIP3    H150879   3.440   3.686  13.347 -0.1575 -1.3113 -0.8556
 9796TIP3    H250880   3.483   3.819  13.289 -1.4965 -0.1216  0.8244
 9797TIP3   OH250881   6.207   3.140  16.431 -0.3222 -0.3279  0.5660
 9797TIP3    H150882   6.131   3.157  16.375  0.7089 -1.1771 -1.1314
 9797TIP3    H250883   6.231   3.225  16.466 -1.3712  0.1197  0.2139
 9798TIP3   OH250884   1.196   6.175   2.052  0.1009 -0.1547 -0.0527
 9798TIP3    H150885   1.156   6.143   2.133  1.8152  1.3499  1.4530
 9798TIP3    H250886   1.167   6.266   2.045  0.7283  0.0143 -0.6105
 9799TIP3   OH250887   1.467   3.497   4.633  0.0500  0.0228 -0.9623
 9799TIP3    H150888   1.503   3.433   4.694 -0.6811  0.9555  0.4943
 9799TIP3    H250889   1.539   3.518   4.574  1.3905  0.6145  0.8471
 9800TIP3   OH250890   3.660   1.381   2.062  0.4090  0.7207 -0.2212
 9800TIP3    H150891   3.654   1.445   2.133  1.9195 -1.5030  1.9946
 9800TIP3    H250892   3.753   1.379   2.040  0.1599  0.3330 -1.2548
 9801TIP3   OH250893   5.873   4.444   2.776 -0.3733  0.2012 -0.0915
 9801TIP3    H150894   5.827   4.514   2.821 -0.0114  1.0535 -1.0089
 9801TIP3    H250895   5.919   4.489   2.704 -2.7830 -1.4020 -2.7108
 9802TIP3   OH250896   6.520   4.609  15.554 -0.1617 -0.0604  0.7113
 9802TIP3    H150897   6.440   4.560  15.573 -0.3888  0.0415  0.0032
 9802TIP3    H250898   6.587   4.542  15.543 -0.5427 -0.2333 -0.5987
 9803TIP3   OH250899   2.063   0.020  16.327  0.2809  0.3992 -0.6379
 9803TIP3    H150900   1.971   0.039  16.348 -0.6403 -0.9980 -3.1771
 9803TIP3    H250901   2.091  -0.039  16.397 -0.6027  1.2321  0.4411
 9804TIP3   OH250902   4.956   0.430  12.455  0.9806  0.1509  0.5701
 9804TIP3    H150903   4.917   0.353  12.414  0.6338  0.3552  0.5146
 9804TIP3    H250904   5.004   0.395  12.531  3.2575 -0.4662 -1.0930
 9805TIP3   OH250905   5.273   1.511  16.630  0.0951  0.2371 -0.2595
 9805TIP3    H150906   5.321   1.441  16.586 -0.5541  0.1458 -0.8336
 9805TIP3    H250907   5.283   1.493  16.723 -0.5521 -0.9506 -0.4186
 9806TIP3   OH250908   6.609   5.474  17.255 -0.1822  0.7383 -0.0080
 9806TIP3    H150909   6.687   5.427  17.283 -1.0474  0.0818  1.3471
 9806TIP3    H250910   6.640   5.534  17.187  1.8165  1.8269  1.8154
 9807TIP3   OH250911   0.637   1.499   1.024 -0.0079  0.0739 -0.1133
 9807TIP3    H150912   0.643   1.454   0.940  1.8615  0.7857 -0.3859
 9807TIP3    H250913   0.547   1.530   1.028 -0.1972 -0.2269 -1.7223
 9808TIP3   OH250914   3.642   6.304   5.935 -0.1090 -0.7130  0.1659
 9808TIP3    H150915   3.668   6.364   6.005 -0.3847  0.6509 -0.8814
 9808TIP3    H250916   3.713   6.240   5.930  2.2592  1.9447 -1.5047
 9809TIP3   OH250917   5.101   0.494   5.280  0.7157  0.2137  0.1705
 9809TIP3    H150918   5.051   0.502   5.361  1.4222 -1.2922  0.7805
 9809TIP3    H250919   5.164   0.567   5.283  0.7606  0.1499  0.9971
 9810TIP3   OH250920   0.117   0.110  12.660 -0.1592  0.3224 -0.4087
 9810TIP3    H150921   0.105   0.117  12.754  1.3864 -0.0148 -0.1741
 9810TIP3    H250922   0.110   0.017  12.641 -0.4177  0.3833 -0.6190
 9811TIP3   OH250923   0.633   6.703   1.508 -0.3682 -0.5528 -0.3965
 9811TIP3    H150924   0.724   6.724   1.529  0.2028 -1.8948 -1.4319
 9811TIP3    H250925   0.590   6.788   1.497  1.0064  0.0894 -0.9203
 9812TIP3   OH250926   1.732   5.109   5.979 -0.8200  0.1599  0.1780
 9812TIP3    H150927   1.742   5.157   5.897  3.1512 -2.1374 -0.8349
 9812TIP3    H250928   1.770   5.167   6.046 -1.6416  0.9204 -0.0011
 9813TIP3   OH250929   2.481   3.273  11.649  0.1991 -0.1932 -0.3667
 9813TIP3    H150930   2.410   3.224  11.690  0.0930  0.9682  0.8429
 9813TIP3    H250931   2.558   3.216  11.658 -0.4660 -1.2559 -1.2800
 9814TIP3   OH250932   5.328   6.045   3.307  0.1525 -0.1333 -0.3116
 9814TIP3    H150933   5.304   6.124   3.355 -0.6329  0.1102 -1.0800
 9814TIP3    H250934   5.251   6.026   3.252  1.1973 -0.1246 -1.8134
 9815TIP3   OH250935   5.119   5.721  13.238 -0.0674 -0.0774  0.3820
 9815TIP3    H150936   5.112   5.710  13.332  0.3169 -0.4756  0.3635
 9815TIP3    H250937   5.104   5.634  13.202  0.2120 -0.0104  0.0984
 9816TIP3   OH250938   4.745   2.569   3.340  0.0826  0.2531 -0.1007
 9816TIP3    H150939   4.651   2.548   3.342  0.0477  0.4184  0.1077
 9816TIP3    H250940   4.788   2.488   3.366  0.0579 -0.1530 -1.3022
 9817TIP3   OH250941   2.359   0.292   3.774 -0.0025  0.5936  0.2199
 9817TIP3    H150942   2.329   0.304   3.864 -1.0260 -0.7486  0.0652
 9817TIP3    H250943   2.306   0.219   3.740  0.1885  1.2544 -1.5474
 9818TIP3   OH250944   3.936   1.215   3.126  0.2854  0.1570  0.5260
 9818TIP3    H150945   4.005   1.246   3.186 -0.6503  0.7425  1.3142
 9818TIP3    H250946   3.940   1.120   3.134  0.6154  0.2035  1.0183
 9819TIP3   OH250947   1.395   6.154  14.345 -1.1650 -0.7140  0.9564
 9819TIP3    H150948   1.460   6.130  14.280 -1.1942 -1.6964  1.2785
 9819TIP3    H250949   1.371   6.244  14.323  1.0565  0.0416  1.4650
 9820TIP3   OH250950   1.992   1.287  12.078  0.1030  0.7096  0.4588
 9820TIP3    H150951   1.904   1.251  12.065 -0.6598  1.6561  2.8441
 9820TIP3    H250952   2.048   1.211  12.093 -0.2246  0.0879 -1.3048
 9821TIP3   OH250953   4.821   3.163  10.724 -0.0262 -0.4266 -0.0938
 9821TIP3    H150954   4.762   3.183  10.797 -0.4196 -1.6894 -0.0621
 9821TIP3    H250955   4.796   3.075  10.696  0.7593 -0.3210 -1.1401
 9822TIP3   OH250956   4.437   4.606   5.400 -0.3343  0.1675  0.0059
 9822TIP3    H150957   4.377   4.669   5.437  0.1033  0.3281  0.4441
 9822TIP3    H250958   4.414   4.602   5.307  0.8266  2.3170 -0.3888
 9823TIP3   OH250959   6.628   6.660  11.558  0.2611  0.7520 -0.2691
 9823TIP3    H150960   6.595   6.673  11.469 -0.0627 -2.3379 -0.6652
 9823TIP3    H250961   6.552   6.626  11.606  1.2306 -0.5643  0.3673
 9824TIP3   OH250962   2.068   5.600   2.078  0.0972  0.5072 -0.0584
 9824TIP3    H150963   2.031   5.553   2.004  2.7708 -0.8168 -0.6122
 9824TIP3    H250964   2.054   5.693   2.058 -0.3999  0.1119 -1.5543
 9825TIP3   OH250965   0.711   6.050  16.622 -0.4608  0.1945  0.2416
 9825TIP3    H150966   0.790   6.080  16.576  0.8326 -1.3174  1.4180
 9825TIP3    H250967   0.655   6.014  16.554  0.0850  0.8252 -0.5469
 9826TIP3   OH250968   1.690   1.846   2.307  0.2956  0.1854  0.1742
 9826TIP3    H150969   1.714   1.936   2.287 -1.5617  1.0574  1.8112
 9826TIP3    H250970   1.759   1.793   2.265  1.0907  2.3080 -1.2517
 9827TIP3   OH250971   2.510   1.535  14.679 -0.8183  0.4378 -0.4520
 9827TIP3    H150972   2.479   1.492  14.759 -1.9192  0.9059 -0.6254
 9827TIP3    H250973   2.581   1.479  14.648  0.1336  0.6470  1.2569
 9828TIP3   OH250974   1.695   4.913   2.364  0.1043 -0.1067  0.0425
 9828TIP3    H150975   1.714   5.007   2.363  2.1458 -0.4745  0.5888
 9828TIP3    H250976   1.651   4.896   2.281 -0.6085  1.3974  0.0986
 9829TIP3   OH250977   2.330   2.806  16.195  0.2557  0.1107 -0.6201
 9829TIP3    H150978   2.342   2.897  16.168 -1.3632  0.7860  0.8217
 9829TIP3    H250979   2.393   2.794  16.266 -0.4540  0.5420  0.0959
 9830TIP3   OH250980   4.445   2.413  15.741  0.4391  0.7808  0.2032
 9830TIP3    H150981   4.514   2.472  15.771  1.3361 -0.5466  0.8253
 9830TIP3    H250982   4.492   2.334  15.714 -0.9592 -0.7823  2.2122
 9831TIP3   OH250983   6.062   0.156   4.355 -0.3669 -0.9630  0.1716
 9831TIP3    H150984   6.152   0.182   4.371 -0.9037  0.0106  1.7763
 9831TIP3    H250985   6.022   0.229   4.309 -0.9975 -0.2657  1.7626
 9832TIP3   OH250986   2.436   3.971  14.159 -0.0276 -0.6392  0.7013
 9832TIP3    H150987   2.470   4.016  14.082 -1.3977 -0.1152  0.3907
 9832TIP3    H250988   2.421   4.040  14.224  0.9588 -1.0557  1.3849
 9833TIP3   OH250989   0.895   5.233   2.600  0.4292 -0.0662 -0.3564
 9833TIP3    H150990   0.896   5.217   2.505  0.6200 -1.1039 -0.1852
 9833TIP3    H250991   0.845   5.314   2.610  1.0989  0.5014 -1.4115
 9834TIP3   OH250992   1.937   2.532  17.029 -0.1839 -0.0500 -0.1828
 9834TIP3    H150993   1.876   2.538  16.956  0.1972  0.0379 -0.5006
 9834TIP3    H250994   1.893   2.576  17.102 -0.2451  0.5469 -0.5775
 9835TIP3   OH250995   0.531   5.479   0.594 -0.2074 -0.0503 -0.2541
 9835TIP3    H150996   0.534   5.469   0.689 -1.3418  0.6471 -0.1385
 9835TIP3    H250997   0.556   5.570   0.578  0.6121 -0.3385 -0.6749
 9836TIP3   OH250998   3.355   1.940   4.345  0.3971  0.1522  0.3814
 9836TIP3    H150999   3.346   1.892   4.428 -0.3611  1.0159  0.8052
 9836TIP3    H251000   3.311   2.023   4.360  1.8971  1.0985 -0.2695
 9837TIP3   OH251001   2.322   6.084  16.085  0.0060  0.2127 -0.7801
 9837TIP3    H151002   2.280   6.010  16.041  2.2960 -0.4527 -1.9702
 9837TIP3    H251003   2.317   6.156  16.021 -0.1761  0.4000 -0.5536
 9838TIP3   OH251004   3.796   1.142   5.045 -0.6717 -0.4140 -0.6117
 9838TIP3    H151005   3.721   1.202   5.047  0.6927  1.2709  1.1227
 9838TIP3    H251006   3.779   1.086   4.969 -2.9897  0.8314 -1.0642
 9839TIP3   OH251007   4.765   2.406   1.106  0.2143 -0.5476  0.2783
 9839TIP3    H151008   4.827   2.379   1.038 -1.2636  0.2954 -1.4163
 9839TIP3    H251009   4.699   2.337   1.108 -1.0868  0.6425 -0.8849
 9840TIP3   OH251010   5.559   5.044  11.190  0.3903 -0.1901  0.7409
 9840TIP3    H151011   5.571   5.106  11.118 -2.2519  0.1896  0.5845
 9840TIP3    H251012   5.602   5.085  11.265 -0.7308  1.5464  0.4679
 9841TIP3   OH251013   1.448   0.762  12.948  0.5969 -0.1054  0.2872
 9841TIP3    H151014   1.406   0.847  12.957 -0.0252 -0.3108 -0.5635
 9841TIP3    H251015   1.388   0.712  12.893  0.9671 -1.0850  0.7655
 9842TIP3   OH251016   2.975   3.768  12.127  0.5148  0.2466  0.0143
 9842TIP3    H151017   3.049   3.828  12.117  0.7238 -0.5448 -4.0903
 9842TIP3    H251018   3.015   3.682  12.135  0.1269  0.2997  2.9416
 9843TIP3   OH251019   5.748   2.015   3.147 -0.1761 -0.2598 -0.5259
 9843TIP3    H151020   5.756   2.042   3.238  1.0412  0.3743 -0.8075
 9843TIP3    H251021   5.703   1.931   3.150 -0.4066 -0.0982  0.6362
 9844TIP3   OH251022   1.114   1.046  14.695  0.1815 -0.5600  0.3761
 9844TIP3    H151023   1.072   1.102  14.630  0.1700 -1.5250 -0.4578
 9844TIP3    H251024   1.203   1.032  14.662  0.6970  0.2580  1.3862
 9845TIP3   OH251025   5.595   6.597   1.891 -0.1963 -0.6520 -0.7129
 9845TIP3    H151026   5.595   6.692   1.880  0.2082 -0.4739  0.6612
 9845TIP3    H251027   5.504   6.574   1.908  0.0596 -0.1780  1.4190
 9846TIP3   OH251028   3.510   1.511   0.697  0.0168 -0.3657 -0.1024
 9846TIP3    H151029   3.596   1.492   0.734 -0.3807  0.2926  1.2029
 9846TIP3    H251030   3.509   1.464   0.614  1.2910 -1.1270  0.2892
 9847TIP3   OH251031   4.695   5.365  17.246  0.1831  0.7682  0.7506
 9847TIP3    H151032   4.757   5.353  17.174  0.1711  2.3961  0.4557
 9847TIP3    H251033   4.749   5.367  17.325  0.3160  0.2046  0.6730
 9848TIP3   OH251034   2.414   4.260   4.235 -0.5706 -0.3713 -0.7307
 9848TIP3    H151035   2.470   4.331   4.268  0.5134 -1.7296  0.4315
 9848TIP3    H251036   2.428   4.261   4.141  0.1844  0.3613 -0.6197
 9849TIP3   OH251037   0.791   5.776   5.959  0.3715  0.4455  0.4584
 9849TIP3    H151038   0.761   5.747   5.873  2.4713 -0.8132  0.1094
 9849TIP3    H251039   0.837   5.701   5.995  0.2141  1.2314  2.3602
 9850TIP3   OH251040   0.571   2.796  13.322  0.6153 -0.4617 -0.0283
 9850TIP3    H151041   0.665   2.783  13.335  0.8818  1.0812 -0.3589
 9850TIP3    H251042   0.541   2.839  13.402  0.4555  0.3326 -0.5127
 9851TIP3   OH251043   3.786   6.014   4.879  0.5440  0.7634  0.1614
 9851TIP3    H151044   3.761   6.104   4.860  0.5226  0.4722 -1.2671
 9851TIP3    H251045   3.817   5.979   4.795 -2.9129 -1.6544 -0.2618
 9852TIP3   OH251046   1.613   0.831  10.807  0.1631  0.0452  0.1104
 9852TIP3    H151047   1.600   0.754  10.751 -2.1581 -0.6825  1.5623
 9852TIP3    H251048   1.524   0.859  10.828  1.0115  1.6268  1.6328
 9853TIP3   OH251049   6.059   1.938   1.015  0.2390  0.0820  0.2753
 9853TIP3    H151050   6.135   1.894   1.053  0.5749  0.4068 -0.0029
 9853TIP3    H251051   6.069   2.030   1.042  0.8186  0.4368 -1.0866
 9854TIP3   OH251052   4.969   6.279  12.973  0.9648 -0.4123  0.3188
 9854TIP3    H151053   4.916   6.354  12.997  0.4103 -1.2083  1.6063
 9854TIP3    H251054   4.906   6.214  12.942  1.3698 -0.6339 -0.0528
 9855TIP3   OH251055   3.869   4.954  12.750  0.3517  0.5926  0.4334
 9855TIP3    H151056   3.851   5.047  12.736 -0.2856  0.4121  0.0212
 9855TIP3    H251057   3.938   4.952  12.816  1.4011  1.3980 -0.6168
 9856TIP3   OH251058   1.874   5.146   4.454 -0.2633 -0.4458 -0.6636
 9856TIP3    H151059   1.937   5.203   4.498 -1.8625  1.5925 -0.9494
 9856TIP3    H251060   1.803   5.136   4.518 -0.1026 -1.9167 -0.7113
 9857TIP3   OH251061   4.408   2.016  14.080 -0.1658  0.0227  0.4353
 9857TIP3    H151062   4.394   1.936  14.029 -2.8977 -0.3479  1.6613
 9857TIP3    H251063   4.489   2.053  14.045  0.7129 -2.8390 -0.7123
 9858TIP3   OH251064   6.691   1.349   2.627  0.3038  0.4560 -0.6219
 9858TIP3    H151065   6.649   1.296   2.695  1.9829 -0.7522 -0.4941
 9858TIP3    H251066   6.734   1.419   2.675  1.4138 -0.3466 -0.4145
 9859TIP3   OH251067   0.388   0.392   2.011 -0.2155  0.5857 -0.3932
 9859TIP3    H151068   0.356   0.363   2.097  2.0236 -0.5738  0.0781
 9859TIP3    H251069   0.341   0.474   1.995 -0.7439  0.7640  1.9001
 9860TIP3   OH251070   6.413   2.519  11.137 -0.3420  0.1494  0.4118
 9860TIP3    H151071   6.427   2.428  11.111 -0.8363 -0.1518  1.1749
 9860TIP3    H251072   6.318   2.531  11.131 -0.2200  0.7775 -0.2294
 9861TIP3   OH251073   1.544   2.706  16.429  0.7431  0.1262 -0.4236
 9861TIP3    H151074   1.605   2.652  16.479  0.3497  0.7084  0.7144
 9861TIP3    H251075   1.545   2.669  16.341  1.2090 -1.1233  0.0981
 9862TIP3   OH251076   0.270   2.220  15.687 -0.4916  0.4158 -0.5516
 9862TIP3    H151077   0.208   2.159  15.648 -0.7113 -0.1162  0.5905
 9862TIP3    H251078   0.283   2.187  15.776  0.5475  1.1798 -0.4063
 9863TIP3   OH251079   5.775   5.350  14.630 -0.4970 -0.1596 -0.7787
 9863TIP3    H151080   5.706   5.309  14.577 -3.2672  1.7306  1.2260
 9863TIP3    H251081   5.811   5.279  14.682 -2.4176 -0.8284 -0.3259
 9864TIP3   OH251082   3.451   4.662  12.835 -0.2595 -0.1466  0.4430
 9864TIP3    H151083   3.547   4.670  12.838 -0.4887  2.9389  1.3471
 9864TIP3    H251084   3.434   4.601  12.763  2.3300  0.3395 -0.6354
 9865TIP3   OH251085   4.228   0.345  17.186 -0.2119  0.5067  0.1485
 9865TIP3    H151086   4.255   0.361  17.277  2.8374 -1.5215 -0.3102
 9865TIP3    H251087   4.181   0.261  17.190 -0.8809  0.8654 -0.0402
 9866TIP3   OH251088   6.410   2.138   4.476 -0.5893 -0.0887 -0.2254
 9866TIP3    H151089   6.484   2.085   4.445 -0.2721  1.6857 -2.6677
 9866TIP3    H251090   6.449   2.204   4.532 -0.6364 -0.6686  0.4975
 9867TIP3   OH251091   6.655   0.100  16.199 -0.0418 -0.0896 -0.1788
 9867TIP3    H151092   6.635   0.153  16.122  0.2477 -1.1488 -0.9898
 9867TIP3    H251093   6.642   0.010  16.170  1.7599 -0.5815  0.5182
 9868TIP3   OH251094   3.337   0.069   2.529  0.2664 -0.6433 -0.0716
 9868TIP3    H151095   3.289   0.151   2.530  0.7818 -0.3370  1.5238
 9868TIP3    H251096   3.279   0.006   2.573  1.3775 -0.2066  2.1135
 9869TIP3   OH251097   5.803   6.459   5.708 -0.0668  0.2106  0.0822
 9869TIP3    H151098   5.720   6.410   5.708 -0.3138  0.6315  0.2054
 9869TIP3    H251099   5.782   6.542   5.666  0.2191  0.4431  0.3978
 9870TIP3   OH251100   0.916   4.897   6.461  0.5182  0.4419 -0.1037
 9870TIP3    H151101   0.977   4.842   6.510  2.4155 -0.5718 -3.4766
 9870TIP3    H251102   0.857   4.835   6.418  1.1306  1.1308 -1.9732
 9871TIP3   OH251103   5.423   3.605  13.341 -0.1733 -0.3462 -0.3412
 9871TIP3    H151104   5.353   3.618  13.405 -0.5827 -0.2128 -0.8161
 9871TIP3    H251105   5.434   3.691  13.300 -0.2701 -0.5573 -0.8139
 9872TIP3   OH251106   2.989   4.555  14.468 -0.2480 -0.1537 -0.0257
 9872TIP3    H151107   2.947   4.631  14.427  0.9483  0.0219 -0.9466
 9872TIP3    H251108   2.981   4.485  14.404 -1.7038 -0.9467  0.9820
 9873TIP3   OH251109   0.120   3.024  15.680  0.0040 -0.0407 -0.1085
 9873TIP3    H151110   0.176   3.013  15.603  0.0727  1.0933 -0.2235
 9873TIP3    H251111   0.181   3.037  15.752 -0.0904  1.7705 -0.3214
 9874TIP3   OH251112   2.031   0.859   5.247 -0.3188 -0.5733  0.1697
 9874TIP3    H151113   2.073   0.822   5.324  0.4493  0.4336  0.2402
 9874TIP3    H251114   2.005   0.783   5.194  0.3120 -1.2251  0.8011
 9875TIP3   OH251115   3.272   5.988   5.164 -0.3076 -0.2192  0.0098
 9875TIP3    H151116   3.227   6.053   5.110  1.0098  0.0339 -0.8208
 9875TIP3    H251117   3.260   6.018   5.254 -2.9326 -0.8979 -0.0854
 9876TIP3   OH251118   2.560   2.397   3.201  0.2613  0.2987  0.4060
 9876TIP3    H151119   2.549   2.402   3.296  0.8429  0.9398  0.4445
 9876TIP3    H251120   2.541   2.306   3.179  0.6924  0.0131  1.2102
 9877TIP3   OH251121   4.751   5.297  16.577 -0.0839  0.4710  0.3565
 9877TIP3    H151122   4.732   5.277  16.485  0.7188 -1.4202  0.5807
 9877TIP3    H251123   4.701   5.232  16.627 -0.8435  1.7398  1.2939
 9878TIP3   OH251124   0.756   4.146  16.369  0.6355  0.0858 -0.9256
 9878TIP3    H151125   0.826   4.114  16.426 -0.5769 -0.1849  0.4270
 9878TIP3    H251126   0.738   4.074  16.309 -0.9173 -1.1959  1.0229
 9879TIP3   OH251127   1.788   1.349  14.037  0.2269  0.1599  0.1290
 9879TIP3    H151128   1.729   1.277  14.061 -0.4756  0.9627  0.8186
 9879TIP3    H251129   1.738   1.402  13.976  1.7647 -1.4996 -2.7192
 9880TIP3   OH251130   2.804   6.787  11.199 -0.2061 -0.1765  0.3069
 9880TIP3    H151131   2.760   6.785  11.284  0.0435  0.6434  0.4544
 9880TIP3    H251132   2.838   6.876  11.191  0.9180 -0.6231 -0.0696
 9881TIP3   OH251133   4.104   3.878   0.742  0.1045  0.2606 -0.4231
 9881TIP3    H151134   4.117   3.850   0.651  2.2682  2.1285 -0.7244
 9881TIP3    H251135   4.100   3.796   0.791  0.1866 -0.7448 -2.0457
 9882TIP3   OH251136   2.984   5.686   3.491  0.9409 -0.5055 -0.3323
 9882TIP3    H151137   2.976   5.597   3.525  0.1654  0.4560  2.1777
 9882TIP3    H251138   2.923   5.690   3.417  1.7705 -2.3362 -1.1354
 9883TIP3   OH251139   2.147   5.551   4.250 -0.0365 -0.3459 -0.0308
 9883TIP3    H151140   2.084   5.572   4.320 -0.8988 -0.0442 -0.8930
 9883TIP3    H251141   2.203   5.628   4.246 -0.5980  0.0537 -0.3339
 9884TIP3   OH251142   2.163   0.756  14.124 -0.1617  0.1560  0.1652
 9884TIP3    H151143   2.151   0.834  14.070  1.6760  0.4832  0.1933
 9884TIP3    H251144   2.236   0.710  14.083 -0.8174 -1.2253  0.5305
 9885TIP3   OH251145   4.623   3.013   4.133  0.0554  0.2707 -0.4251
 9885TIP3    H151146   4.541   2.966   4.115 -0.5083  0.5315  1.3537
 9885TIP3    H251147   4.663   2.964   4.204  1.3300  0.3028 -1.1113
 9886TIP3   OH251148   6.439   1.944  14.210 -0.2666  0.4331  0.7873
 9886TIP3    H151149   6.420   1.861  14.167 -0.3678  0.0323  1.6025
 9886TIP3    H251150   6.359   1.995  14.200 -1.3499 -0.7774  3.1004
 9887TIP3   OH251151   3.500   4.187   3.860 -0.0874  0.4449  0.7381
 9887TIP3    H151152   3.467   4.123   3.797  0.8729 -1.2712  1.9143
 9887TIP3    H251153   3.421   4.224   3.900 -0.6768  0.7449 -0.6535
 9888TIP3   OH251154   2.050   0.899  11.291 -0.2534  0.0052 -0.5115
 9888TIP3    H151155   2.123   0.838  11.293 -0.4766 -0.2762 -0.7452
 9888TIP3    H251156   1.990   0.868  11.359  0.8277  1.4992  1.1497
 9889TIP3   OH251157   3.030   1.986   0.116 -0.6145 -0.5985  0.6175
 9889TIP3    H151158   2.945   1.943   0.104 -0.4039 -0.3194 -2.1641
 9889TIP3    H251159   3.010   2.080   0.118 -0.5632 -0.6078  1.8909
 9890TIP3   OH251160   0.314   0.287  13.789  0.3493 -0.0140  0.0956
 9890TIP3    H151161   0.391   0.244  13.751 -0.4867  0.6985 -2.5099
 9890TIP3    H251162   0.245   0.221  13.785 -0.0941  0.5024 -0.8949
 9891TIP3   OH251163   2.616   3.904  14.814 -0.5752 -0.0833 -0.1231
 9891TIP3    H151164   2.709   3.885  14.829  0.0878  2.7555 -0.3291
 9891TIP3    H251165   2.570   3.828  14.849  1.7117 -0.4514  2.2261
 9892TIP3   OH251166   2.981   1.025   3.418 -0.1964 -0.8127 -0.0727
 9892TIP3    H151167   2.969   0.936   3.452 -0.5190 -0.7680 -0.0670
 9892TIP3    H251168   2.921   1.030   3.344 -0.8575 -0.2906  0.5009
 9893TIP3   OH251169   4.687   4.454   0.625  0.2854  0.1609  0.1263
 9893TIP3    H151170   4.661   4.375   0.672  0.5876  0.5197  0.9152
 9893TIP3    H251171   4.703   4.426   0.536 -0.3335 -0.5340  0.2321
 9894TIP3   OH251172   5.708   3.517   1.535  0.1480 -0.0632  0.8391
 9894TIP3    H151173   5.744   3.435   1.501 -1.1799 -0.2224 -0.2453
 9894TIP3    H251174   5.775   3.582   1.517 -0.2358 -0.2822 -1.4892
 9895TIP3   OH251175   3.879   5.884  12.452  0.2447 -0.0266 -0.3455
 9895TIP3    H151176   3.922   5.913  12.372  1.5414  0.5563  0.5254
 9895TIP3    H251177   3.933   5.811  12.483 -0.1357 -0.1278  0.0875
 9896TIP3   OH251178   2.440   2.887   3.905  0.0271 -0.0034 -0.3894
 9896TIP3    H151179   2.412   2.801   3.935 -1.9222  0.8009  0.1656
 9896TIP3    H251180   2.473   2.931   3.983 -2.4545  1.0690  0.1318
 9897TIP3   OH251181   5.931   6.305   2.476 -0.0972 -0.0148  0.1898
 9897TIP3    H151182   5.939   6.401   2.477  0.4930 -0.0550 -0.2656
 9897TIP3    H251183   5.889   6.284   2.559 -3.7087  0.9087 -1.3053
 9898TIP3   OH251184   2.158   5.082   3.598  0.6096 -0.2617  0.2369
 9898TIP3    H151185   2.222   5.031   3.548 -0.0760 -0.1239 -0.7966
 9898TIP3    H251186   2.073   5.048   3.571  0.2173 -0.0462  1.1700
 9899TIP3   OH251187   3.080   1.177  13.486  0.6236  0.0376 -0.3928
 9899TIP3    H151188   3.045   1.206  13.402 -2.3385 -0.0772  0.7583
 9899TIP3    H251189   3.088   1.257  13.538 -0.1687 -0.2172  0.1342
 9900TIP3   OH251190   3.483   3.654   2.095 -0.0373 -0.1109 -0.3830
 9900TIP3    H151191   3.547   3.666   2.026 -0.1083 -0.9303 -0.5968
 9900TIP3    H251192   3.532   3.665   2.176  0.7109 -2.2802 -0.5170
 9901TIP3   OH251193   3.695   0.452   5.586  0.3014  0.0954  0.0928
 9901TIP3    H151194   3.650   0.472   5.504 -0.0026 -1.8648 -0.2562
 9901TIP3    H251195   3.787   0.467   5.567  0.1691  0.3023 -0.3981
 9902TIP3   OH251196   1.104   2.907  11.254  0.4711 -0.2746  0.0699
 9902TIP3    H151197   1.067   2.960  11.184  0.6429  0.4252  0.5071
 9902TIP3    H251198   1.198   2.924  11.251  0.1862  1.8932  2.2232
 9903TIP3   OH251199   2.449   1.765  12.716 -0.6995 -0.3559 -0.2711
 9903TIP3    H151200   2.472   1.858  12.721 -0.4027 -0.1328 -4.1833
 9903TIP3    H251201   2.383   1.753  12.785  0.8288  2.2310  1.7122
 9904TIP3   OH251202   4.566   3.550   0.931  0.1853  0.1421  0.2307
 9904TIP3    H151203   4.524   3.467   0.908  0.2102 -0.0174  0.7433
 9904TIP3    H251204   4.509   3.586   0.999  0.2391  0.4871  0.0890
 9905TIP3   OH251205   4.367   5.598  10.395 -0.6219  0.0951  0.1726
 9905TIP3    H151206   4.374   5.647  10.476  0.8390 -0.0159  0.1215
 9905TIP3    H251207   4.378   5.663  10.326  2.1341 -0.3491  0.1062
 9906TIP3   OH251208   3.961   4.345   5.094  0.4394 -0.3074 -0.0185
 9906TIP3    H151209   3.910   4.418   5.059 -2.9410 -1.3997  2.2995
 9906TIP3    H251210   3.967   4.283   5.021 -0.1268  0.5658 -0.8176
 9907TIP3   OH251211   6.787   6.678   1.957 -0.1073  0.2741  0.1771
 9907TIP3    H151212   6.780   6.709   2.047  0.8320  1.2218 -0.0637
 9907TIP3    H251213   6.872   6.711   1.927  0.8073 -2.3240 -0.1876
 9908TIP3   OH251214   5.420   2.901   3.322 -0.1893  0.0410  0.3262
 9908TIP3    H151215   5.329   2.875   3.306 -0.0364  0.0515 -0.5922
 9908TIP3    H251216   5.415   2.993   3.347 -0.3601  0.2978 -0.6211
 9909TIP3   OH251217   6.409   4.465  13.203 -0.4680 -0.6025 -0.1323
 9909TIP3    H151218   6.422   4.559  13.192  2.5899 -1.0639 -1.0199
 9909TIP3    H251219   6.360   4.457  13.285 -1.4529  1.7626 -0.4337
 9910TIP3   OH251220   4.765   1.407   0.742  0.2448 -0.0140  0.0280
 9910TIP3    H151221   4.859   1.424   0.744  0.6222 -2.0085 -0.0524
 9910TIP3    H251222   4.730   1.457   0.816  1.9937 -2.7380  2.8100
 9911TIP3   OH251223   1.150   3.032   3.416 -0.1748 -0.1851  0.5388
 9911TIP3    H151224   1.203   2.970   3.466  0.4494  0.3000  0.4829
 9911TIP3    H251225   1.131   2.986   3.334  0.2845 -0.3020  0.4955
 9912TIP3   OH251226   3.724   4.586  11.771 -0.4152 -0.4336 -0.0106
 9912TIP3    H151227   3.742   4.579  11.864 -1.3102  1.5376  0.3287
 9912TIP3    H251228   3.643   4.638  11.766 -1.9206 -2.8204 -1.7582
 9913TIP3   OH251229   3.013   0.693   0.667  0.3741 -0.1237 -0.0922
 9913TIP3    H151230   3.035   0.673   0.576  0.7578  0.2076 -0.0748
 9913TIP3    H251231   2.992   0.787   0.667  1.2008  0.0680  0.3122
 9914TIP3   OH251232   1.539   2.754  16.151  0.2034  0.5908  0.4014
 9914TIP3    H151233   1.604   2.814  16.186  2.5928 -1.1760 -0.8968
 9914TIP3    H251234   1.506   2.796  16.072 -0.4108  1.5728  1.1646
 9915TIP3   OH251235   5.501   3.909  15.547 -0.5211 -0.2318  0.1614
 9915TIP3    H151236   5.510   3.814  15.540  1.7739 -0.0914  1.0277
 9915TIP3    H251237   5.486   3.938  15.457  1.2253 -1.1688 -0.4484
 9916TIP3   OH251238   2.980   5.988  11.292  0.1553  0.1277 -0.1579
 9916TIP3    H151239   3.014   6.061  11.344  0.9455 -0.3062 -0.0558
 9916TIP3    H251240   2.895   6.018  11.261 -0.1949  0.5119  1.1361
 9917TIP3   OH251241   1.610   4.659   3.588  0.2175  0.0856  0.0108
 9917TIP3    H151242   1.565   4.588   3.633  1.1246 -0.4364  0.1213
 9917TIP3    H251243   1.702   4.630   3.584  0.6683  1.4347  0.4231
 9918TIP3   OH251244   6.738   6.381  11.957 -0.3360  0.2967 -0.0068
 9918TIP3    H151245   6.713   6.325  11.884 -0.4375 -1.0512  1.0342
 9918TIP3    H251246   6.665   6.375  12.019 -0.0800  1.1050  0.3904
 9919TIP3   OH251247   3.091   1.117  13.066  0.1390 -0.2432  0.1342
 9919TIP3    H151248   3.048   1.043  13.025  0.3323 -1.0373  1.3661
 9919TIP3    H251249   3.115   1.087  13.153  1.7765  0.6847  0.0311
 9920TIP3   OH251250   1.573   5.729   3.403  0.1242 -0.6677 -0.2671
 9920TIP3    H151251   1.557   5.821   3.421  1.4245 -0.4120 -0.3459
 9920TIP3    H251252   1.669   5.720   3.406 -0.0507 -2.3319  1.3817
 9921TIP3   OH251253   2.394   2.042  17.010  0.2378  0.0210 -0.2643
 9921TIP3    H151254   2.461   2.051  16.942  0.0376  0.2116 -0.4374
 9921TIP3    H251255   2.366   2.132  17.028  0.1129 -0.0489 -0.1075
 9922TIP3   OH251256   4.709   3.155  14.524  0.4261  0.1707  0.3068
 9922TIP3    H151257   4.792   3.117  14.555  0.6127 -0.4876 -0.9658
 9922TIP3    H251258   4.717   3.154  14.429 -2.0761 -2.3108  0.0600
 9923TIP3   OH251259   2.106   5.297   4.184 -0.1455 -1.0036  0.3482
 9923TIP3    H151260   2.196   5.299   4.149  0.2179 -2.0962  1.1909
 9923TIP3    H251261   2.092   5.385   4.219  0.1416 -0.4479 -0.9097
 9924TIP3   OH251262   5.222   4.855  14.746 -0.0079 -0.2368 -0.5345
 9924TIP3    H151263   5.138   4.813  14.723 -0.5350  0.5524 -0.0680
 9924TIP3    H251264   5.225   4.852  14.842  1.1888 -1.5823 -0.5994
 9925TIP3   OH251265   0.099   4.686  12.221 -0.0847  0.0352  0.1727
 9925TIP3    H151266   0.162   4.755  12.242  0.6317 -0.3968 -0.5113
 9925TIP3    H251267   0.110   4.621  12.290  0.1975 -0.0222  0.0745
 9926TIP3   OH251268   1.696   0.240  15.614  0.0049  0.3996 -0.1026
 9926TIP3    H151269   1.602   0.250  15.634  0.3310 -1.8077  2.9067
 9926TIP3    H251270   1.739   0.302  15.674  0.5950 -0.6408  0.5604
 9927TIP3   OH251271   4.035   3.332   0.424  0.4544  0.1343  0.3096
 9927TIP3    H151272   4.103   3.271   0.453  0.9661  0.8862  0.7143
 9927TIP3    H251273   3.999   3.367   0.505 -0.3422 -0.1743  0.0917
 9928TIP3   OH251274   2.442   3.031   4.449  0.1211 -0.4534  0.2735
 9928TIP3    H151275   2.377   3.031   4.519 -0.0200  0.3787  0.1514
 9928TIP3    H251276   2.391   3.019   4.369  0.1171  0.1732  0.1803
 9929TIP3   OH251277   3.012   4.687   3.072  0.1324 -0.3788 -0.3571
 9929TIP3    H151278   3.073   4.647   3.134 -0.4438  1.0897  1.1844
 9929TIP3    H251279   3.057   4.767   3.043 -0.9883  0.6314  0.6738
 9930TIP3   OH251280   0.570   3.404  11.061 -0.2862  0.1759 -0.1086
 9930TIP3    H151281   0.499   3.397  11.126  0.3140 -0.3903  0.4960
 9930TIP3    H251282   0.537   3.467  10.997 -1.3257 -0.0438  0.1880
 9931TIP3   OH251283   1.273   5.242   2.732 -0.2513 -0.1524  0.5468
 9931TIP3    H151284   1.275   5.326   2.686  0.2969 -0.1423  0.5747
 9931TIP3    H251285   1.282   5.266   2.824 -0.3194 -0.2292  0.5729
 9932TIP3   OH251286   4.674   0.307  13.441 -0.1576  0.0575 -0.0035
 9932TIP3    H151287   4.658   0.372  13.509  0.2648  1.4942 -1.2544
 9932TIP3    H251288   4.761   0.272  13.460 -0.6993 -0.6897  1.1074
 9933TIP3   OH251289   0.340   4.240   5.613  0.5301  0.2882 -0.2517
 9933TIP3    H151290   0.294   4.226   5.696  3.6828  1.0018  1.7053
 9933TIP3    H251291   0.279   4.291   5.561 -1.3166  0.3256  1.8435
 9934TIP3   OH251292   4.394   6.198  14.411  0.6254 -0.6201  0.4211
 9934TIP3    H151293   4.389   6.103  14.405 -1.7108 -0.5986  1.2421
 9934TIP3    H251294   4.303   6.226  14.423  0.9843  1.8909 -2.2108
 9935TIP3   OH251295   6.713   1.853   2.927 -0.2542 -0.5968 -0.4098
 9935TIP3    H151296   6.639   1.905   2.896  0.9208  1.0696 -0.4548
 9935TIP3    H251297   6.787   1.914   2.928  0.4039 -1.3423  2.8498
 9936TIP3   OH251298   6.287   1.101  13.736  0.5643 -0.8379 -0.1937
 9936TIP3    H151299   6.317   1.158  13.665  1.5470 -0.0597  0.8334
 9936TIP3    H251300   6.193   1.120  13.743  0.4637 -0.9103 -1.2701
 9937TIP3   OH251301   2.748   5.062   2.657  0.5311 -0.5063  0.4066
 9937TIP3    H151302   2.741   5.157   2.663  2.2885 -0.1751 -1.9436
 9937TIP3    H251303   2.659   5.030   2.673  0.2477  1.3867  2.9291
 9938TIP3   OH251304   0.840   2.203  16.475 -0.3031  0.1547  0.5229
 9938TIP3    H151305   0.874   2.152  16.402  0.7776  1.6656 -0.0622
 9938TIP3    H251306   0.829   2.140  16.547  0.1421 -1.0344 -0.4477
 9939TIP3   OH251307   0.070   2.818   4.712  0.3572 -0.3068  0.6894
 9939TIP3    H151308   0.107   2.813   4.800 -0.9573 -0.1948  1.2602
 9939TIP3    H251309  -0.023   2.794   4.723  0.5295 -1.8687 -0.9022
 9940TIP3   OH251310   1.242   4.191   1.340  0.7021  0.0406  0.3804
 9940TIP3    H151311   1.226   4.246   1.416 -1.5994  3.3337 -2.3102
 9940TIP3    H251312   1.334   4.207   1.318  1.0664 -0.0638  1.7941
 9941TIP3   OH251313   0.866   0.392   2.734 -0.5153  0.3514  0.5691
 9941TIP3    H151314   0.790   0.423   2.683 -1.3161 -0.4930  1.2317
 9941TIP3    H251315   0.833   0.316   2.781  0.7382  0.0314  0.9333
 9942TIP3   OH251316   2.876   5.055  11.253 -0.2649 -0.3311 -0.5432
 9942TIP3    H151317   2.809   5.035  11.319  0.1210 -1.4070 -0.4705
 9942TIP3    H251318   2.848   5.138  11.215  0.7511  1.5682  2.6322
 9943TIP3   OH251319   0.880   5.166   6.473 -0.0210 -0.4509 -0.0553
 9943TIP3    H151320   0.867   5.177   6.567  0.6001 -0.0458 -0.0100
 9943TIP3    H251321   0.893   5.072   6.462 -0.5388 -0.5517  0.2080
 9944TIP3   OH251322   1.699   0.535   1.551 -0.2106 -0.0640 -0.1802
 9944TIP3    H151323   1.695   0.494   1.465  0.0077 -2.3460  0.8711
 9944TIP3    H251324   1.792   0.538   1.573 -0.4124 -1.5306  0.9250
 9945TIP3   OH251325   1.290   2.068   3.167  0.4259  0.0673 -0.0831
 9945TIP3    H151326   1.357   2.128   3.196 -0.1924 -0.0580  1.6442
 9945TIP3    H251327   1.284   2.002   3.237 -1.7132  0.2725 -0.0450
 9946TIP3   OH251328   4.883   4.902   6.190  0.2644  0.1253 -0.1315
 9946TIP3    H151329   4.810   4.848   6.159 -0.8815  1.1939  0.6408
 9946TIP3    H251330   4.961   4.849   6.174 -0.9078 -2.2708  1.7476
 9947TIP3   OH251331   5.841   5.867   2.044 -0.2383  0.3284  0.1369
 9947TIP3    H151332   5.844   5.785   2.093 -0.1341 -0.1318 -0.6490
 9947TIP3    H251333   5.931   5.881   2.015 -0.3446  0.4872 -0.1191
 9948TIP3   OH251334   4.961   6.733  12.243 -0.8370 -0.0496  0.2039
 9948TIP3    H151335   5.031   6.672  12.266 -0.0802  0.4853 -0.6158
 9948TIP3    H251336   4.887   6.707  12.298  1.0009  1.4584  3.5226
 9949TIP3   OH251337   4.681   5.288  12.428  0.4309 -0.2230  0.0685
 9949TIP3    H151338   4.628   5.320  12.501  1.1921  1.0832  0.0836
 9949TIP3    H251339   4.743   5.360  12.411  2.2410 -1.7298  0.1153
 9950TIP3   OH251340   2.080   3.306  14.004  0.7083  0.2588  0.5656
 9950TIP3    H151341   2.106   3.395  13.981  1.3040  0.3672  1.5965
 9950TIP3    H251342   2.024   3.277  13.932  1.9786  0.8100 -0.6780
 9951TIP3   OH251343   4.857   0.713  13.606  0.5163  0.0915  0.0892
 9951TIP3    H151344   4.870   0.679  13.695  0.6893  1.2190  0.5013
 9951TIP3    H251345   4.942   0.748  13.581  0.4176 -0.0486 -0.4550
 9952TIP3   OH251346   5.726   2.984   0.345 -0.0869 -0.1746  0.3752
 9952TIP3    H151347   5.785   3.056   0.321 -0.3519  0.0714  0.4682
 9952TIP3    H251348   5.783   2.907   0.348 -0.1184 -0.2888 -1.4739
 9953TIP3   OH251349   4.563   1.239   5.957  0.5560 -0.2549  0.3798
 9953TIP3    H151350   4.540   1.323   5.997  1.3549  0.9060 -1.5006
 9953TIP3    H251351   4.657   1.244   5.942  0.2474 -0.4422 -1.9361
 9954TIP3   OH251352   0.123   1.762   3.458  0.5262  0.4750 -0.3294
 9954TIP3    H151353   0.101   1.779   3.366 -0.8448 -0.9423 -0.2922
 9954TIP3    H251354   0.040   1.765   3.504  0.9819 -0.4647  0.5933
 9955TIP3   OH251355   5.374   3.699   4.022  0.3173  0.7645  0.1496
 9955TIP3    H151356   5.338   3.757   3.955 -0.8168  1.1744  1.1017
 9955TIP3    H251357   5.444   3.750   4.062  0.9550  0.5440 -0.6526
 9956TIP3   OH251358   3.196   6.043   3.283 -0.3429  0.2287 -0.1243
 9956TIP3    H151359   3.277   6.019   3.328 -0.5178  0.6661  0.4301
 9956TIP3    H251360   3.129   6.041   3.352 -0.7749  0.0050 -0.5516
 9957TIP3   OH251361   3.617   2.276  17.210  0.0516 -0.0014 -0.4156
 9957TIP3    H151362   3.674   2.353  17.199 -0.1069  0.1578 -0.1310
 9957TIP3    H251363   3.615   2.235  17.123 -0.4425  0.7266 -0.7643
 9958TIP3   OH251364   2.015   2.751  12.108  0.0299 -0.1105  0.3229
 9958TIP3    H151365   2.043   2.841  12.090  0.7562 -0.2318  0.8371
 9958TIP3    H251366   2.056   2.699  12.039 -0.7312 -0.0005 -0.2238
 9959TIP3   OH251367   0.793   0.986   0.263  0.0645 -0.0809 -0.4907
 9959TIP3    H151368   0.698   1.001   0.262 -0.0549 -0.8344 -1.4488
 9959TIP3    H251369   0.832   1.071   0.246 -0.4397  0.2430 -0.0354
 9960TIP3   OH251370   4.233   5.078   2.242  0.0005  0.4968 -0.2147
 9960TIP3    H151371   4.216   5.010   2.177  2.3827 -0.8276  0.5230
 9960TIP3    H251372   4.190   5.156   2.206 -1.2537 -0.9495 -1.9114
 9961TIP3   OH251373   0.397   0.481  13.114 -0.4608  0.3528  0.3341
 9961TIP3    H151374   0.344   0.518  13.185  0.4886  0.9684  0.7319
 9961TIP3    H251375   0.391   0.546  13.044 -1.9628 -0.5803 -0.4162
 9962TIP3   OH251376   2.117   2.492  13.618  0.3562  0.2041  0.1886
 9962TIP3    H151377   2.148   2.514  13.705  2.7804  0.0297 -0.5853
 9962TIP3    H251378   2.037   2.442  13.632 -0.2663  1.7183  2.2314
 9963TIP3   OH251379   2.788   6.111   4.236 -0.7969 -0.1955 -0.4516
 9963TIP3    H151380   2.742   6.044   4.185  1.2461 -1.1093 -1.1422
 9963TIP3    H251381   2.777   6.084   4.327 -1.8665 -0.2321 -0.5854
 9964TIP3   OH251382   6.611   0.228  11.304 -0.6569 -0.8211  0.1804
 9964TIP3    H151383   6.540   0.290  11.284 -0.0698  0.3148  1.5390
 9964TIP3    H251384   6.684   0.256  11.249  0.1957  0.8455  2.1099
 9965TIP3   OH251385   4.464   1.528   6.415 -0.1703 -0.1981  0.0289
 9965TIP3    H151386   4.478   1.616   6.380  1.6441 -0.0338  1.1338
 9965TIP3    H251387   4.399   1.540   6.484  0.3715  0.3317  0.4451
 9966TIP3   OH251388   5.018   2.665  14.919  0.3419  0.0047 -0.1111
 9966TIP3    H151389   5.041   2.750  14.958 -1.5161 -0.0095  1.1079
 9966TIP3    H251390   4.966   2.622  14.986  1.2270 -2.1076 -0.7534
 9967TIP3   OH251391   3.035   1.870   2.162 -0.0139 -0.0849 -0.1599
 9967TIP3    H151392   3.026   1.838   2.252 -0.5831 -0.3023 -0.2880
 9967TIP3    H251393   3.047   1.791   2.110 -0.6428 -0.0324 -0.3871
 9968TIP3   OH251394   5.902   1.052   5.457  0.5090 -0.1424 -0.1171
 9968TIP3    H151395   5.982   1.045   5.510  0.2971 -0.5451  0.1494
 9968TIP3    H251396   5.860   1.133   5.488 -1.4675 -2.2210  2.9127
 9969TIP3   OH251397   4.556   6.636   4.022  0.3540  0.1941 -1.2639
 9969TIP3    H151398   4.604   6.679   3.951  0.1559  0.8401 -1.0067
 9969TIP3    H251399   4.481   6.693   4.039  0.1322 -0.2105 -0.8644
 9970TIP3   OH251400   4.545   4.570   3.637  0.0606  0.1219 -0.1014
 9970TIP3    H151401   4.594   4.489   3.648  1.8697  0.5823 -3.8451
 9970TIP3    H251402   4.590   4.633   3.693  0.4289 -0.7748  0.6122
 9971TIP3   OH251403   2.346   6.262  14.914  1.1102 -0.1425 -0.2263
 9971TIP3    H151404   2.349   6.346  14.962  1.3718 -0.3663  0.1534
 9971TIP3    H251405   2.321   6.287  14.825  1.4276  0.3731 -0.1793
 9972TIP3   OH251406   5.028   1.711   1.180  0.1882  0.1875  0.0426
 9972TIP3    H151407   5.021   1.805   1.196  0.9255  0.2886 -0.2081
 9972TIP3    H251408   5.109   1.701   1.130  0.2705 -0.6118  0.3259
 9973TIP3   OH251409   1.090   3.122   0.946 -0.5183 -0.0221 -0.1462
 9973TIP3    H151410   1.092   3.029   0.970 -2.9248  0.1036  0.6809
 9973TIP3    H251411   1.107   3.123   0.852  0.9122 -1.1843  0.0849
 9974TIP3   OH251412   4.335   5.499   3.405  0.5377  0.0412  0.0063
 9974TIP3    H151413   4.280   5.443   3.459  0.8835  0.9405  1.2985
 9974TIP3    H251414   4.286   5.510   3.323 -0.0610 -1.1704  0.1985
 9975TIP3   OH251415   6.730   5.284   2.311 -0.0297 -0.0851  0.2632
 9975TIP3    H151416   6.795   5.280   2.381 -0.5882 -2.1329  0.7004
 9975TIP3    H251417   6.768   5.233   2.239  0.4969  1.9223 -0.9170
 9976TIP3   OH251418   6.454   1.129   1.082  0.5329  0.5150  0.1030
 9976TIP3    H151419   6.411   1.213   1.067  2.7191  2.0899  2.2308
 9976TIP3    H251420   6.490   1.105   0.997 -1.6494  0.7933 -0.9422
 9977TIP3   OH251421   4.071   3.301  10.640  0.4641  0.7342  0.1171
 9977TIP3    H151422   4.128   3.365  10.599 -0.2244  0.3162 -1.5364
 9977TIP3    H251423   3.983   3.326  10.612  0.2810 -1.5440 -1.4270
 9978TIP3   OH251424   3.202   3.975  11.614 -0.2065  0.2950  0.3026
 9978TIP3    H151425   3.159   4.060  11.604  0.6244  0.5831 -1.0111
 9978TIP3    H251426   3.227   3.972  11.707  0.2925  1.7658  0.2447
 9979TIP3   OH251427   2.172   6.736   1.909  0.2018 -0.0024 -0.3161
 9979TIP3    H151428   2.225   6.800   1.956 -0.5998 -0.5307  1.3228
 9979TIP3    H251429   2.156   6.666   1.972  0.3459 -1.4350 -1.8151
 9980TIP3   OH251430   0.901   6.326  16.920  0.0089 -0.3065 -0.2828
 9980TIP3    H151431   0.970   6.273  16.879  0.2221 -0.4347  0.2412
 9980TIP3    H251432   0.885   6.284  17.004  1.0213  1.1467  0.6691
 9981TIP3   OH251433   2.628   5.341   0.753  0.5962 -0.5509  0.1437
 9981TIP3    H151434   2.686   5.312   0.824  1.2974  0.2742 -0.0785
 9981TIP3    H251435   2.603   5.260   0.708  0.5477 -1.0353  1.0237
 9982TIP3   OH251436   4.076   2.030   4.248 -0.4001 -0.0833 -0.6865
 9982TIP3    H151437   4.095   1.970   4.176 -0.3770 -1.9906  0.8575
 9982TIP3    H251438   4.162   2.048   4.287 -0.4650  0.5392 -0.8365
 9983TIP3   OH251439   5.881   1.574   3.027 -0.1790 -0.2659 -0.0230
 9983TIP3    H151440   5.952   1.626   2.988  0.3079 -0.3126  0.7933
 9983TIP3    H251441   5.809   1.636   3.037 -0.1255 -0.1250 -0.5019
 9984TIP3   OH251442   2.312   2.678   2.618 -0.5346  0.0659 -0.3323
 9984TIP3    H151443   2.271   2.664   2.703  1.3559 -0.1373  0.5671
 9984TIP3    H251444   2.337   2.591   2.588  0.7124  0.3252 -0.0946
 9985TIP3   OH251445   0.794   4.342  15.603  0.5023  0.1414 -0.1416
 9985TIP3    H151446   0.804   4.434  15.578 -1.2382  0.2343 -0.6012
 9985TIP3    H251447   0.787   4.295  15.519  0.0384 -0.2286  0.1026
 9986TIP3   OH251448   2.760   3.608   4.170 -0.1579 -0.0223  0.4433
 9986TIP3    H151449   2.702   3.671   4.212 -0.5303 -1.3261  1.9286
 9986TIP3    H251450   2.737   3.524   4.209 -0.0546 -1.1937 -1.9032
 9987TIP3   OH251451   5.491   1.191   5.891  0.0512 -0.0752  0.4614
 9987TIP3    H151452   5.511   1.199   5.984  1.2116 -1.1069  0.3237
 9987TIP3    H251453   5.395   1.196   5.886  0.0195  0.6269  1.6305
 9988TIP3   OH251454   3.570   6.659   2.090 -0.2128 -0.0414 -0.0757
 9988TIP3    H151455   3.639   6.725   2.096 -0.8453  0.6041  0.1711
 9988TIP3    H251456   3.541   6.646   2.180  0.3856 -1.1739 -0.0389
 9989TIP3   OH251457   3.996   3.984  14.914  0.0333 -0.3662  0.3733
 9989TIP3    H151458   3.913   3.946  14.885  1.3503 -2.1027 -1.2662
 9989TIP3    H251459   3.979   4.078  14.920 -2.1459 -0.7281  0.4509
 9990TIP3   OH251460   1.697   3.545   2.806 -0.0689  0.6397  0.2571
 9990TIP3    H151461   1.727   3.503   2.886 -1.6296 -1.1351 -0.0576
 9990TIP3    H251462   1.679   3.636   2.831  3.3695  1.2309  0.9368
 9991TIP3   OH251463   4.167   0.609   0.762  0.5856 -0.8986 -0.5772
 9991TIP3    H151464   4.087   0.653   0.736  0.3853 -1.0627 -0.2408
 9991TIP3    H251465   4.213   0.591   0.680  0.1364 -1.0752 -0.7871
 9992TIP3   OH251466   4.795   2.561  15.043  0.4017 -0.2091  0.1381
 9992TIP3    H151467   4.774   2.488  14.984 -1.3644 -0.0560  0.5407
 9992TIP3    H251468   4.846   2.521  15.113  0.4285 -0.8485 -0.2424
 9993TIP3   OH251469   4.062   3.661   4.974 -0.4475  0.1849  0.1489
 9993TIP3    H151470   4.138   3.712   4.947 -0.2961  0.3278  0.8234
 9993TIP3    H251471   4.046   3.600   4.902 -1.2174  1.8322 -1.1081
 9994TIP3   OH251472   2.669   5.513  15.007 -0.3998  0.3493 -0.1341
 9994TIP3    H151473   2.670   5.572  14.931 -0.1643 -1.0553 -1.2359
 9994TIP3    H251474   2.576   5.502  15.026 -0.4234  2.5478  1.2730
 9995TIP3   OH251475   0.427   1.611  14.926  0.1751 -0.2769 -0.0908
 9995TIP3    H151476   0.507   1.596  14.875 -0.0652  0.9847 -0.8589
 9995TIP3    H251477   0.453   1.671  14.996 -0.2036  0.5965 -0.6809
 9996TIP3   OH251478   6.426   6.739   6.080  0.1072 -0.3437  0.2390
 9996TIP3    H151479   6.514   6.776   6.077  0.2331 -0.7503 -1.4004
 9996TIP3    H251480   6.391   6.767   6.164  0.9054  1.8957 -0.1559
 9997TIP3   OH251481   6.101   6.579   1.282  0.0888  0.0355 -0.4322
 9997TIP3    H151482   6.175   6.523   1.258 -0.3156 -0.3272 -0.8432
 9997TIP3    H251483   6.113   6.595   1.375  1.7983  1.6378 -0.8872
 9998TIP3   OH251484   5.207   5.682  17.197  0.0245 -0.2411  0.1350
 9998TIP3    H151485   5.260   5.761  17.197 -0.3583  0.0180  2.2237
 9998TIP3    H251486   5.265   5.614  17.230 -1.1091  0.1846  3.1250
 9999TIP3   OH251487   5.397   3.140   0.527 -0.0544  0.2256  0.5814
 9999TIP3    H151488   5.434   3.063   0.571  0.3713  0.5293  0.7590
 9999TIP3    H251489   5.362   3.106   0.445 -0.8349 -0.3441  1.1442
10000TIP3   OH251490   5.308   1.164   2.216  0.2791  0.0846 -0.4121
10000TIP3    H151491   5.350   1.079   2.203  2.0827  0.7355  0.8691
10000TIP3    H251492   5.379   1.222   2.244 -1.4979  1.1666  2.1140
10001TIP3   OH251493   5.797   5.870   0.740 -0.0714  0.2973 -0.5464
10001TIP3    H151494   5.709   5.888   0.773 -0.0084 -1.9412  0.9871
10001TIP3    H251495   5.786   5.859   0.645 -1.2831  0.8826 -0.4781
10002TIP3   OH251496   6.794   4.628  15.083  0.0389  0.0293 -0.3136
10002TIP3    H151497   6.856   4.643  15.154 -1.4941  0.6370  0.9114
10002TIP3    H251498   6.834   4.672  15.007  1.1501  0.2988  0.4168
10003TIP3   OH251499   3.854   0.410   1.804  0.1842  0.1419 -0.0200
10003TIP3    H151500   3.930   0.417   1.746  1.3086  0.9247  1.4920
10003TIP3    H251501   3.867   0.328   1.851 -0.1451  0.0422 -0.1044
10004TIP3   OH251502   1.631   5.266   0.651 -0.0337 -0.0315 -0.1869
10004TIP3    H151503   1.652   5.243   0.742  2.1157  0.0102 -0.6240
10004TIP3    H251504   1.621   5.181   0.607  2.2617 -0.1519 -0.5829
10005TIP3   OH251505   0.348   6.491  13.124 -0.1934  0.2929 -0.6091
10005TIP3    H151506   0.435   6.531  13.130  0.5982 -1.4460 -0.1473
10005TIP3    H251507   0.287   6.564  13.137  1.1839  1.5470 -1.0267
10006TIP3   OH251508   2.882   2.735   4.146 -0.2335 -0.2617 -0.0646
10006TIP3    H151509   2.845   2.758   4.061  2.4337  1.9636 -0.7067
10006TIP3    H251510   2.852   2.803   4.206  2.1228  1.1723 -0.4411
10007TIP3   OH251511   4.395   5.067  12.000 -0.3404  0.0079  0.4816
10007TIP3    H151512   4.385   5.019  12.082 -0.2644  0.7308  0.9161
10007TIP3    H251513   4.413   5.157  12.027 -1.9030  0.5816 -0.3453
10008TIP3   OH251514   4.869   6.796  13.851 -0.3246  0.1059  0.1386
10008TIP3    H151515   4.888   6.793  13.757 -0.5045 -2.5380  0.1572
10008TIP3    H251516   4.787   6.845  13.857 -0.3066  0.3068 -1.0847
10009TIP3   OH251517   6.560   0.327   2.808 -0.6400  0.2706  0.2636
10009TIP3    H151518   6.634   0.307   2.750 -2.6579 -0.5670 -2.1018
10009TIP3    H251519   6.565   0.422   2.820  2.7256 -0.1471  2.8649
10010TIP3   OH251520   6.456   1.441  15.162  0.5460  0.5686 -0.3931
10010TIP3    H151521   6.540   1.488  15.163  0.5081  0.6938 -2.4899
10010TIP3    H251522   6.390   1.510  15.148  0.3194  0.1325 -1.4570
10011TIP3   OH251523   1.547   4.402   4.557  0.2109 -0.3009  0.2122
10011TIP3    H151524   1.591   4.319   4.539  2.0668  0.7875 -0.4231
10011TIP3    H251525   1.549   4.449   4.473 -1.5076  0.1004  0.3694
10012TIP3   OH251526   1.551   6.418   0.265  0.0392  0.2696  0.6326
10012TIP3    H151527   1.472   6.467   0.286  0.6439  1.3630  0.3877
10012TIP3    H251528   1.621   6.463   0.314  0.9324  0.9222 -1.1963
10013TIP3   OH251529   3.615   5.123   5.538  0.2955 -0.8209 -0.1754
10013TIP3    H151530   3.622   5.033   5.504 -0.3425 -0.5419 -1.0818
10013TIP3    H251531   3.521   5.140   5.540  0.3501 -0.7040  1.4466
10014TIP3   OH251532   6.630   2.866   0.179 -0.1641  0.2670  0.2487
10014TIP3    H151533   6.584   2.941   0.142 -0.2002 -0.5339 -1.3633
10014TIP3    H251534   6.723   2.888   0.169 -0.1417 -0.5785 -1.7389
10015TIP3   OH251535   5.426   0.153  17.292  0.3447  0.0158  0.1873
10015TIP3    H151536   5.425   0.232  17.345 -2.6160  0.4176 -0.3587
10015TIP3    H251537   5.353   0.100  17.324  2.3595 -2.6224  0.6540
10016TIP3   OH251538   2.140   2.204   0.952 -0.0974  0.1021  0.2887
10016TIP3    H151539   2.205   2.274   0.943 -0.4857  0.3111 -0.9866
10016TIP3    H251540   2.067   2.232   0.898 -0.1972 -1.3609 -0.3627
10017TIP3   OH251541   6.572   4.959  14.798  0.1390 -0.2355  0.2340
10017TIP3    H151542   6.642   4.946  14.863 -1.0170 -3.4968  0.9474
10017TIP3    H251543   6.491   4.942  14.847 -1.0716  1.7626 -1.0043
10018TIP3   OH251544   3.802   4.683  14.722 -0.0879  0.8000  0.1397
10018TIP3    H151545   3.726   4.723  14.680  0.9220  1.2938 -1.2837
10018TIP3    H251546   3.824   4.608  14.667 -0.7249 -0.5052  1.6509
10019TIP3   OH251547   6.106   0.607   5.726 -0.4189 -0.0535 -0.3573
10019TIP3    H151548   6.173   0.638   5.666 -0.2306 -1.0297 -0.6698
10019TIP3    H251549   6.089   0.517   5.698 -1.4468 -0.0016  0.0785
10020TIP3   OH251550   6.753   2.692   5.898  0.2640 -0.2887 -0.1741
10020TIP3    H151551   6.763   2.781   5.863  1.1483 -0.5247 -0.5512
10020TIP3    H251552   6.843   2.662   5.910 -0.0115  0.0357  3.0299
10021TIP3   OH251553   0.495   0.502  11.882 -1.3521 -0.5624  0.2194
10021TIP3    H151554   0.542   0.570  11.929 -2.2874 -1.4660  2.5241
10021TIP3    H251555   0.451   0.548  11.810 -0.1990  0.8930  0.4423
10022TIP3   OH251556   2.065   2.820   3.787  0.3195 -0.7382 -0.3925
10022TIP3    H151557   1.979   2.846   3.755 -0.2682 -0.2108  1.5232
10022TIP3    H251558   2.117   2.804   3.708 -1.3253 -0.3939 -1.5664
10023TIP3   OH251559   3.270   0.386   0.441 -0.0218 -0.3400 -0.1240
10023TIP3    H151560   3.306   0.386   0.352  2.8016 -0.2993  0.9621
10023TIP3    H251561   3.212   0.462   0.444  0.8748  0.4155 -1.5550
10024TIP3   OH251562   3.621   5.029   2.282 -0.1076  0.5316  0.2299
10024TIP3    H151563   3.542   5.006   2.233  0.5788 -2.0989  0.3127
10024TIP3    H251564   3.693   5.013   2.221  0.6066 -0.7140  1.3666
10025TIP3   OH251565   2.422   6.642   3.753  0.1788 -0.1242 -1.0411
10025TIP3    H151566   2.502   6.694   3.750  0.2826 -0.3322 -2.4346
10025TIP3    H251567   2.399   6.629   3.661  0.0814 -2.4196 -0.7187
10026TIP3   OH251568   0.586   5.356  14.295  0.0715 -0.5581 -0.0676
10026TIP3    H151569   0.622   5.444  14.294  2.1081 -1.3678 -1.4821
10026TIP3    H251570   0.581   5.333  14.388 -0.5644  1.0600  0.3154
10027TIP3   OH251571   5.414   3.827  12.538 -0.0669 -0.1015 -0.3247
10027TIP3    H151572   5.464   3.894  12.585  0.3773 -1.6278  1.4357
10027TIP3    H251573   5.328   3.867  12.524  0.0017  0.6519  1.2478
10028TIP3   OH251574   2.204   1.116  11.731 -0.5336  0.1287 -0.1358
10028TIP3    H151575   2.246   1.071  11.804  0.3402 -0.1922 -0.8175
10028TIP3    H251576   2.185   1.046  11.667 -2.2667  0.2494  0.2302
10029TIP3   OH251577   5.852   6.541   2.909 -0.3079 -0.6366 -0.0780
10029TIP3    H151578   5.772   6.592   2.919 -0.7428 -1.5819  1.4208
10029TIP3    H251579   5.884   6.528   2.998  1.4498 -0.3781 -0.6518
10030TIP3   OH251580   2.340   6.476  11.399 -0.2027  0.4590 -0.4614
10030TIP3    H151581   2.360   6.569  11.413  2.4553 -0.0034 -0.8523
10030TIP3    H251582   2.259   6.461  11.446 -0.1816  2.7857  0.3669
10031TIP3   OH251583   0.478   3.518  12.337 -0.5120 -0.0331  0.1158
10031TIP3    H151584   0.397   3.568  12.326  0.1444  1.3999  1.6042
10031TIP3    H251585   0.548   3.581  12.320  0.3097 -1.0429 -0.3277
10032TIP3   OH251586   5.159   6.468   2.717  0.2627 -0.3529  0.3211
10032TIP3    H151587   5.216   6.540   2.743  0.5416 -0.1979 -0.6958
10032TIP3    H251588   5.206   6.425   2.645 -1.2266  0.1974 -1.0006
10033TIP3   OH251589   6.473   1.785   5.067  0.4276  0.1431 -0.5423
10033TIP3    H151590   6.392   1.736   5.049  0.0409  0.2624  0.8587
10033TIP3    H251591   6.456   1.830   5.149  2.1894 -0.3909  0.1256
10034TIP3   OH251592   6.665   0.479   0.346 -0.2535  0.4325 -0.2502
10034TIP3    H151593   6.723   0.403   0.350 -1.3287 -0.4246 -0.7819
10034TIP3    H251594   6.698   0.530   0.272  2.2383  1.9756  1.8243
10035TIP3   OH251595   5.754   3.379   2.619 -1.0161 -0.0529  0.1709
10035TIP3    H151596   5.753   3.452   2.558 -1.3537 -1.0150 -0.9945
10035TIP3    H251597   5.845   3.348   2.617 -1.1887 -0.5392 -0.4126
10036TIP3   OH251598   4.755   0.297   2.365 -0.3766  0.1999 -0.0624
10036TIP3    H151599   4.723   0.305   2.275 -0.3384 -3.3392 -0.4586
10036TIP3    H251600   4.844   0.262   2.355  0.2748  1.3696  1.3470
10037TIP3   OH251601   5.629   4.014  16.132  0.1770  0.6695 -0.4281
10037TIP3    H151602   5.643   3.982  16.221  0.1460 -0.7464 -0.9196
10037TIP3    H251603   5.536   3.998  16.116  0.5393 -0.6484 -1.3074
10038TIP3   OH251604   6.062   4.346  15.770  0.5630 -0.0386  0.1510
10038TIP3    H151605   6.132   4.394  15.815  0.2806 -0.1135  0.6686
10038TIP3    H251606   6.106   4.308  15.693  0.9310  0.5006  0.0864
10039TIP3   OH251607   6.114   4.239   1.117  0.2794 -0.4667  0.4040
10039TIP3    H151608   6.200   4.222   1.156  0.2548 -1.8959 -0.1410
10039TIP3    H251609   6.108   4.178   1.044 -1.2720 -0.4799  0.5236
10040TIP3   OH251610   2.886   0.116  11.611 -0.0249 -0.1141  0.1477
10040TIP3    H151611   2.941   0.165  11.673 -1.6834  0.2546  1.3791
10040TIP3    H251612   2.866   0.179  11.542  0.7189 -0.1040 -0.0572
10041TIP3   OH251613   5.610   3.657   0.183 -0.6323 -0.6681 -0.0051
10041TIP3    H151614   5.553   3.649   0.259  1.5230 -1.3241  1.6155
10041TIP3    H251615   5.647   3.570   0.171  0.2524 -0.1955 -0.8385
10042TIP3   OH251616   3.432   3.839  14.867 -0.0653  0.0052 -0.1063
10042TIP3    H151617   3.506   3.831  14.927  1.8725  1.5436 -2.2526
10042TIP3    H251618   3.386   3.918  14.895  0.1352  0.0523  0.0877
10043TIP3   OH251619   6.707   4.075   4.755 -0.0201  0.2684  0.5086
10043TIP3    H151620   6.781   4.048   4.809 -0.7651 -0.2614  1.2657
10043TIP3    H251621   6.740   4.151   4.707  0.0355  2.0845  3.2625
10044TIP3   OH251622   2.698   0.063   3.313 -0.5783 -0.4044  0.3161
10044TIP3    H151623   2.649  -0.000   3.365 -0.1835 -1.6917 -0.8293
10044TIP3    H251624   2.790   0.048   3.337 -0.3454 -1.3511 -1.0616
10045TIP3   OH251625   6.379   1.359  12.329  0.4101  0.3322  0.0485
10045TIP3    H151626   6.382   1.432  12.268  0.2818  0.6511  0.4217
10045TIP3    H251627   6.377   1.400  12.416 -0.7636 -0.0900  0.2355
10046TIP3   OH251628   1.637   5.354   1.727  0.2809  0.8301  0.3756
10046TIP3    H151629   1.579   5.385   1.796  0.5642  2.3263 -0.0443
10046TIP3    H251630   1.699   5.426   1.713 -0.7871  1.2381 -2.5997
10047TIP3   OH251631   2.897   6.574   1.120 -0.3837  0.1154  0.0188
10047TIP3    H151632   2.960   6.539   1.183  0.5721  0.7140 -0.5824
10047TIP3    H251633   2.951   6.621   1.056 -1.3480 -0.2903 -1.1227
10048TIP3   OH251634   2.368   1.869  11.278  0.0042 -0.3872  0.2643
10048TIP3    H151635   2.298   1.856  11.342  0.0623 -0.5818  0.2892
10048TIP3    H251636   2.360   1.793  11.219 -0.6805  0.3035 -0.5461
10049TIP3   OH251637   0.132   4.715   6.085 -0.1070 -0.0849 -0.0769
10049TIP3    H151638   0.177   4.631   6.072  1.0748  0.4626  0.3975
10049TIP3    H251639   0.194   4.768   6.135 -1.4453  0.5651  0.9159
10050TIP3   OH251640   4.462   6.321   3.033 -0.3612 -0.5738 -0.2601
10050TIP3    H151641   4.483   6.409   3.001 -0.6966  0.0813  1.2853
10050TIP3    H251642   4.504   6.316   3.119 -0.3318 -1.9359 -0.3359
10051TIP3   OH251643   0.444   4.812   4.695 -0.1861 -1.0013  0.1641
10051TIP3    H151644   0.462   4.905   4.683 -2.1681 -0.6668 -0.4461
10051TIP3    H251645   0.388   4.809   4.773  0.9071 -1.8138  0.9347
10052TIP3   OH251646   1.526   4.668  12.783 -0.1180 -0.1792 -0.2615
10052TIP3    H151647   1.589   4.595  12.784  1.2824  1.0196 -0.0292
10052TIP3    H251648   1.545   4.717  12.862 -0.2447  1.1190 -1.0285
10053TIP3   OH251649   5.236   2.858  12.772 -0.2631 -0.2117 -0.3066
10053TIP3    H151650   5.187   2.778  12.788 -0.9240  0.4052  0.8073
10053TIP3    H251651   5.169   2.927  12.770  0.6550  0.8327  2.5997
10054TIP3   OH251652   3.328   1.509   5.567  0.1294 -0.1936 -0.2099
10054TIP3    H151653   3.348   1.421   5.536  0.7574 -0.4852  0.9629
10054TIP3    H251654   3.409   1.559   5.552  1.2338 -0.9264  2.9693
10055TIP3   OH251655   1.000   1.532   5.599  0.9537  0.1337 -0.0059
10055TIP3    H151656   1.004   1.473   5.523  0.4453  0.0694  0.0168
10055TIP3    H251657   0.915   1.513   5.639  0.4524  1.4389 -0.4355
10056TIP3   OH251658   3.539   5.559   5.307 -0.4392 -0.7443  0.5113
10056TIP3    H151659   3.544   5.512   5.224  2.3293 -0.8571  0.7063
10056TIP3    H251660   3.525   5.650   5.283 -1.7068 -1.0642  0.0016
10057TIP3   OH251661   4.136   5.771  11.419  0.0414 -0.1676 -0.2251
10057TIP3    H151662   4.189   5.825  11.477 -0.7431 -0.8761  1.1516
10057TIP3    H251663   4.121   5.690  11.467 -4.5878  1.0514  0.6194
10058TIP3   OH251664   2.066   5.148   0.712 -0.1978 -0.1630 -0.1208
10058TIP3    H151665   2.037   5.207   0.642 -0.8792  1.0488  1.1711
10058TIP3    H251666   1.997   5.082   0.718  0.2787 -0.7779 -1.1581
10059TIP3   OH251667   4.843   6.188  14.376 -0.2931 -0.6083 -0.4693
10059TIP3    H151668   4.774   6.208  14.439  0.5872  0.1007  0.2943
10059TIP3    H251669   4.915   6.155  14.430 -0.2033 -1.7608 -1.3009
10060TIP3   OH251670   1.675   0.118  16.023 -0.2793  0.4767  0.4663
10060TIP3    H151671   1.602   0.063  16.053 -0.4870  1.3139  1.5491
10060TIP3    H251672   1.634   0.202  16.001  0.2084  0.6071  0.0607
10061TIP3   OH251673   1.478   5.151   2.979  0.4336 -0.6456  0.2793
10061TIP3    H151674   1.430   5.233   2.990  1.0634 -0.1294 -0.7522
10061TIP3    H251675   1.414   5.083   3.002  0.1402  0.1455  1.8900
10062TIP3   OH251676   2.273   3.573   5.688 -0.1016  0.4970  0.3155
10062TIP3    H151677   2.260   3.653   5.738  0.1193  0.1982  0.8612
10062TIP3    H251678   2.333   3.597   5.618  1.1825  0.4523  1.3870
10063TIP3   OH251679   2.305   0.702   1.321  0.4145 -0.1053  0.1954
10063TIP3    H151680   2.310   0.719   1.415 -0.3477  1.7199 -0.0719
10063TIP3    H251681   2.396   0.689   1.295  0.4747 -2.5615  1.4988
10064TIP3   OH251682   3.239   0.101  12.138 -0.4977 -0.3872  0.0669
10064TIP3    H151683   3.204   0.013  12.155  0.4998 -0.3105  2.7535
10064TIP3    H251684   3.281   0.126  12.220  1.5181  1.5452 -1.4983
10065TIP3   OH251685   4.850   3.751  13.827  0.3913  0.1453 -0.4524
10065TIP3    H151686   4.936   3.720  13.855  0.0855  0.2156  0.5858
10065TIP3    H251687   4.863   3.782  13.737  1.3884 -0.0800 -0.3850
10066TIP3   OH251688   3.795   3.449  16.130 -0.1511  0.0480  0.7266
10066TIP3    H151689   3.886   3.435  16.107 -0.3999 -0.8357  0.2380
10066TIP3    H251690   3.772   3.533  16.091  0.2654 -0.0426  0.2883
10067TIP3   OH251691   6.778   2.973   5.994 -0.7476 -0.0678 -0.3209
10067TIP3    H151692   6.761   2.915   6.068  1.2117 -2.3415 -1.6047
10067TIP3    H251693   6.694   2.979   5.949 -1.3294 -0.7235  0.6471
10068TIP3   OH251694   0.169   6.481   3.330  0.0946  0.2112  0.7913
10068TIP3    H151695   0.149   6.396   3.369  1.0391 -0.2793  0.2337
10068TIP3    H251696   0.236   6.518   3.388  1.7240 -0.6524 -0.5166
10069TIP3   OH251697   5.856   6.574  13.162  0.4010 -0.6362 -0.5979
10069TIP3    H151698   5.865   6.484  13.195  0.0354 -0.9065 -1.2164
10069TIP3    H251699   5.779   6.570  13.105  0.3035  0.1074 -0.5155
10070TIP3   OH251700   1.317   5.155  11.565 -0.3762  0.4351 -0.2682
10070TIP3    H151701   1.230   5.155  11.605 -0.4685  3.3458 -0.3177
10070TIP3    H251702   1.303   5.117  11.478 -1.4837  0.3126 -0.0488
10071TIP3   OH251703   2.597   5.516   5.523 -0.3426  0.2196 -1.0732
10071TIP3    H151704   2.528   5.568   5.481 -0.4140  0.3835 -0.7517
10071TIP3    H251705   2.671   5.521   5.462 -0.0955  1.3184 -0.6980
10072TIP3   OH251706   5.266   5.345  16.902  0.2910 -0.0609  0.2305
10072TIP3    H151707   5.308   5.348  16.816 -2.0930 -3.0724 -1.1090
10072TIP3    H251708   5.175   5.370  16.885 -0.1012 -0.3091  1.9297
10073TIP3   OH251709   5.335   3.768  14.084 -0.1738  0.0942  0.0257
10073TIP3    H151710   5.331   3.856  14.122  0.5505 -0.9443  2.6576
10073TIP3    H251711   5.263   3.721  14.126 -0.1531 -0.7424 -0.8724
10074TIP3   OH251712   0.869   5.644  15.568  0.5137  0.2292 -0.0345
10074TIP3    H151713   0.865   5.620  15.475 -1.0500 -1.3826  0.4276
10074TIP3    H251714   0.945   5.596  15.602  0.8432  0.4971 -0.3909
10075TIP3   OH251715   2.709   4.742   4.043  0.0619  0.4772  0.1191
10075TIP3    H151716   2.786   4.724   3.990 -0.1361 -0.0220  0.0029
10075TIP3    H251717   2.743   4.788   4.121  0.3039  1.5665 -0.6172
10076TIP3   OH251718   2.445   5.266  14.614  0.7267  0.1515  0.2942
10076TIP3    H151719   2.371   5.230  14.565  0.0328  1.5683  0.2699
10076TIP3    H251720   2.428   5.360  14.617  1.5417  0.2637  1.9363
10077TIP3   OH251721   5.929   4.041  15.260 -0.1559 -0.3865  0.2154
10077TIP3    H151722   5.991   4.103  15.222  0.8163 -1.1277  0.5698
10077TIP3    H251723   5.845   4.063  15.219  0.7558 -0.8290 -1.9833
10078TIP3   OH251724   5.264   5.204   4.755  0.1810  0.6142 -0.5645
10078TIP3    H151725   5.221   5.150   4.689  0.3966  1.8503 -1.7380
10078TIP3    H251726   5.199   5.271   4.777  0.6423  1.0788 -0.6114
10079TIP3   OH251727   3.622   1.595  15.656 -0.2047  0.4656  0.2465
10079TIP3    H151728   3.550   1.655  15.676 -0.1039  0.3010  1.1321
10079TIP3    H251729   3.697   1.631  15.703 -0.8842 -2.0794  3.5356
10080TIP3   OH251730   0.515   2.977   4.268 -0.2306 -0.3168  0.7418
10080TIP3    H151731   0.453   2.926   4.320  1.8533 -1.4124  2.2239
10080TIP3    H251732   0.582   3.005   4.331  0.1228  1.9522 -0.5758
10081TIP3   OH251733   6.178   3.373   2.456  0.2478 -0.7680 -0.0595
10081TIP3    H151734   6.255   3.426   2.477  0.5565 -0.9884 -0.6292
10081TIP3    H251735   6.121   3.431   2.407 -0.1381 -0.4806  0.7147
10082TIP3   OH251736   1.060   6.747   3.332 -0.5538  0.0332 -0.3202
10082TIP3    H151737   1.135   6.759   3.391 -0.3275 -1.2662 -0.3371
10082TIP3    H251738   1.005   6.824   3.348  0.1425  0.3450  0.6483
10083TIP3   OH251739   1.693   5.585  16.045 -0.0596 -0.1944  0.8275
10083TIP3    H151740   1.660   5.501  16.078  0.1441 -0.2709  0.8437
10083TIP3    H251741   1.702   5.639  16.123 -2.3279  0.6059  0.5623
10084TIP3   OH251742   1.579   1.007  17.008  0.2393 -0.1742  0.4780
10084TIP3    H151743   1.603   1.090  16.967  0.8073 -0.9413 -0.7659
10084TIP3    H251744   1.662   0.964  17.026 -0.0632 -0.6431  0.7597
10085TIP3   OH251745   4.248   6.618  15.560 -0.4931  0.1766  0.1994
10085TIP3    H151746   4.327   6.650  15.517 -1.5350  0.2560 -1.6756
10085TIP3    H251747   4.246   6.666  15.643  1.5421 -0.0120  0.3857
10086TIP3   OH251748   6.507   6.635   0.763 -0.5889 -0.0481  0.4435
10086TIP3    H151749   6.475   6.696   0.831  1.4152  1.2904  0.2411
10086TIP3    H251750   6.579   6.682   0.722 -0.8069 -1.4793 -1.6246
10087TIP3   OH251751   1.039   4.948   2.995  0.3901 -0.4808 -0.2462
10087TIP3    H151752   1.001   5.006   2.930 -0.3372 -2.4584 -1.6455
10087TIP3    H251753   0.986   4.961   3.074  0.7429  1.3072 -0.2899
10088TIP3   OH251754   3.208   1.505   6.151 -0.1079 -0.2675 -0.3892
10088TIP3    H151755   3.215   1.412   6.172 -0.5610  0.0719  1.3456
10088TIP3    H251756   3.288   1.544   6.184  0.0691 -0.0209 -1.0860
10089TIP3   OH251757   0.893   5.455   1.362  0.9072  0.1330 -0.4766
10089TIP3    H151758   0.894   5.498   1.276 -1.3135 -1.6149 -1.4198
10089TIP3    H251759   0.873   5.525   1.424  0.8512  1.1134 -1.5847
10090TIP3   OH251760   2.044   0.753   4.811  0.6565 -0.0724  0.3026
10090TIP3    H151761   1.969   0.700   4.839 -0.0830  0.8138  0.0327
10090TIP3    H251762   2.006   0.822   4.757  1.8504 -0.5964 -1.2497
10091TIP3   OH251763   4.453   0.171  13.005  0.1709  0.0047 -0.5477
10091TIP3    H151764   4.503   0.148  13.082 -0.6478 -0.2953 -0.0976
10091TIP3    H251765   4.517   0.175  12.934  0.6336 -1.6140 -0.2318
10092TIP3   OH251766   5.422   6.130   0.497 -0.0352  0.8245  0.0809
10092TIP3    H151767   5.488   6.115   0.428 -0.4345  0.0723 -0.1494
10092TIP3    H251768   5.358   6.188   0.457 -2.1154 -2.3271 -1.4387
10093TIP3   OH251769   2.309   6.494   4.750  0.3262 -0.7890  0.2442
10093TIP3    H151770   2.262   6.548   4.812  0.0939 -0.7021 -0.0090
10093TIP3    H251771   2.359   6.556   4.697  1.1642 -0.9137  0.8696
10094TIP3   OH251772   5.840   4.381  13.249  0.3244  0.4884  0.5240
10094TIP3    H151773   5.836   4.427  13.165 -0.0034  3.5473  2.1395
10094TIP3    H251774   5.753   4.395  13.288  0.9561  0.3665  2.0074
10095TIP3   OH251775   3.335   2.155   2.229 -0.3616 -0.0805 -0.1938
10095TIP3    H151776   3.342   2.167   2.134 -0.3952  0.1978 -0.1613
10095TIP3    H251777   3.424   2.172   2.262 -0.7975  1.8738  0.0452
10096TIP3   OH251778   0.114   5.666   3.277  0.5070 -0.0625  0.5508
10096TIP3    H151779   0.026   5.674   3.241 -0.1764 -2.3357  1.5766
10096TIP3    H251780   0.165   5.624   3.207  0.2642 -0.5270  0.6465
10097TIP3   OH251781   6.242   0.380   3.067  0.4249  0.3757  0.3457
10097TIP3    H151782   6.194   0.323   3.008  1.4491 -1.1163  0.9156
10097TIP3    H251783   6.319   0.407   3.017  1.3206 -0.9321  0.9829
10098TIP3   OH251784   3.671   5.774  13.834 -0.2852 -0.2039 -0.2370
10098TIP3    H151785   3.611   5.841  13.803 -0.3910  0.3193  1.0494
10098TIP3    H251786   3.641   5.693  13.792 -0.2812  0.4996 -1.6246
10099TIP3   OH251787   4.682   6.126   6.628  0.5600 -0.2488 -0.2930
10099TIP3    H151788   4.608   6.066   6.629 -0.0144  0.4616  2.5289
10099TIP3    H251789   4.757   6.073   6.657  0.5929 -0.2595 -0.3947
10100TIP3   OH251790   4.448   0.149   1.526  0.5668  0.2792  0.3391
10100TIP3    H151791   4.445   0.072   1.583 -0.9992  0.4670  0.5381
10100TIP3    H251792   4.361   0.154   1.488  0.2521  2.6519  1.2757
10101TIP3   OH251793   6.332   2.616   1.263 -0.0779 -0.0358 -0.3095
10101TIP3    H151794   6.274   2.683   1.298  2.0733  1.7291  0.0031
10101TIP3    H251795   6.391   2.594   1.335  0.6383 -0.6424 -1.0594
10102TIP3   OH251796   5.308   3.361  15.503  0.1634  0.1001 -0.9946
10102TIP3    H151797   5.355   3.380  15.585 -0.2001  1.4205 -1.0862
10102TIP3    H251798   5.324   3.267  15.488  0.3349 -0.1348  0.5190
10103TIP3   OH251799   0.316   5.413  14.917 -0.2936  0.3957  0.0563
10103TIP3    H151800   0.357   5.428  14.832  1.7457 -1.3145  0.6796
10103TIP3    H251801   0.344   5.487  14.971 -0.0246  0.4951 -0.2204
10104TIP3   OH251802   4.521   4.270  13.085 -0.1449  0.1530 -0.5413
10104TIP3    H151803   4.581   4.261  13.011  0.7938  0.5502  0.1510
10104TIP3    H251804   4.578   4.264  13.162 -0.7821  2.2110  0.1067
10105TIP3   OH251805   5.819   5.995   2.321 -0.1639  0.3071 -0.1437
10105TIP3    H151806   5.798   5.904   2.302 -0.8763 -0.0792  2.2878
10105TIP3    H251807   5.824   6.037   2.235  0.8210 -2.1440 -1.3381
10106TIP3   OH251808   4.231   4.975  17.016 -0.1422 -0.2929 -0.4283
10106TIP3    H151809   4.220   4.980  17.111 -0.7411 -1.5584 -0.4276
10106TIP3    H251810   4.310   4.922  17.004  0.4938  0.6825 -0.6302
10107TIP3   OH251811   3.685   6.751  15.478 -0.2032 -0.3470  0.0017
10107TIP3    H151812   3.774   6.749  15.511  0.9040  0.4003 -2.8374
10107TIP3    H251813   3.638   6.809  15.538  1.6645  0.7148  0.4462
10108TIP3   OH251814   6.761   5.852  12.467 -0.5592 -0.5822 -0.0492
10108TIP3    H151815   6.695   5.841  12.398  0.8022 -1.3876 -1.2662
10108TIP3    H251816   6.844   5.828  12.424  0.1851 -2.1756  2.1803
10109TIP3   OH251817   5.421   0.404  14.394  0.5725  0.1737 -0.4480
10109TIP3    H151818   5.441   0.419  14.301 -2.9560 -0.0460 -1.3263
10109TIP3    H251819   5.328   0.425  14.402  0.1772 -2.3661  2.4914
10110TIP3   OH251820   4.209   1.978  14.275 -0.7821  0.0935 -0.1108
10110TIP3    H151821   4.232   2.045  14.340 -0.3634 -3.0352  3.1021
10110TIP3    H251822   4.280   1.980  14.212 -0.5024  2.2660  0.2229
10111TIP3   OH251823   6.472   3.135  16.918  0.6005 -0.6849  0.3308
10111TIP3    H151824   6.414   3.096  16.852  0.6374  1.4834 -1.0560
10111TIP3    H251825   6.414   3.183  16.976  0.8485  0.4286 -0.3075
10112TIP3   OH251826   6.021   2.547  16.901 -0.0036 -0.5753  0.0628
10112TIP3    H151827   5.979   2.527  16.818  2.1373 -1.8498 -0.7711
10112TIP3    H251828   5.998   2.638  16.919 -2.4770 -1.0325 -0.6896
10113TIP3   OH251829   0.135   6.133   2.306 -0.7741  0.9246  0.7144
10113TIP3    H151830   0.166   6.203   2.363  0.2644  0.4281  0.7657
10113TIP3    H251831   0.203   6.124   2.239 -2.0264  1.5556 -0.6589
10114TIP3   OH251832   6.125   0.856   0.526  0.6899 -0.2156  0.3027
10114TIP3    H151833   6.075   0.775   0.513  1.5946 -0.5440 -1.2730
10114TIP3    H251834   6.117   0.902   0.443  3.1085 -0.3416 -0.0268
10115TIP3   OH251835   4.240   1.927  10.554 -0.1283  0.2871  0.4721
10115TIP3    H151836   4.305   1.968  10.497  1.1263 -1.0163  0.9281
10115TIP3    H251837   4.165   1.912  10.498  0.1510  1.3455 -0.2020
10116TIP3   OH251838   0.565   3.251   3.011  0.1126  0.6059  0.2954
10116TIP3    H151839   0.538   3.253   2.919  0.6262 -0.1559  0.1169
10116TIP3    H251840   0.541   3.163   3.041  3.2039 -0.4615 -0.1476
10117TIP3   OH251841   3.045   1.636   1.943 -0.1613  0.1712  0.1067
10117TIP3    H151842   3.079   1.571   2.005  0.5870 -0.3949 -0.8702
10117TIP3    H251843   3.065   1.599   1.857 -2.0455  0.4795 -0.4902
10118TIP3   OH251844   3.846   6.216  13.783 -0.0641  0.0055  0.1702
10118TIP3    H151845   3.809   6.180  13.702 -1.8036 -1.3656  1.5006
10118TIP3    H251846   3.771   6.256  13.827  0.6339 -0.1720  1.5564
10119TIP3   OH251847   0.326   1.184   2.107 -0.5736 -0.4421 -0.2163
10119TIP3    H151848   0.350   1.186   2.014  2.0820 -0.9703  0.4252
10119TIP3    H251849   0.249   1.241   2.113 -0.2568  0.2789 -2.5935
10120TIP3   OH251850   2.519   0.427  15.794 -0.0591  0.3836  0.0264
10120TIP3    H151851   2.558   0.417  15.881  0.5927 -1.9348 -0.4913
10120TIP3    H251852   2.575   0.492  15.750  0.3157  0.6743  0.9259
10121TIP3   OH251853   4.983   4.300  13.367  0.2537  0.3567 -0.1192
10121TIP3    H151854   4.926   4.373  13.392  0.6518  0.5981  0.0946
10121TIP3    H251855   5.068   4.341  13.352  0.3464  0.0134 -0.5390
10122TIP3   OH251856   1.262   3.696  11.280  0.1455  0.7299 -0.3637
10122TIP3    H151857   1.311   3.716  11.200  0.5469  0.6828 -0.1287
10122TIP3    H251858   1.286   3.765  11.341  1.3431 -0.3080  0.3618
10123TIP3   OH251859   6.426   2.886   5.087  0.6525  0.5222  0.1958
10123TIP3    H151860   6.383   2.875   5.002  3.1144 -0.7490 -0.9587
10123TIP3    H251861   6.448   2.796   5.114 -1.1373  0.7999  2.7795
10124TIP3   OH251862   1.391   3.344   0.740 -0.5088 -0.0145 -0.0967
10124TIP3    H151863   1.469   3.337   0.685 -1.3309 -0.9429 -1.1797
10124TIP3    H251864   1.364   3.435   0.731 -0.0726  0.0867 -0.4371
10125TIP3   OH251865   1.471   0.937  13.843 -0.1895 -0.4852  0.7683
10125TIP3    H151866   1.406   0.997  13.808 -0.2054  0.0019  1.6072
10125TIP3    H251867   1.459   0.856  13.794  0.5261  0.5048 -1.0910
10126TIP3   OH251868   3.867   2.677   5.578  0.0128 -0.4018 -0.3861
10126TIP3    H151869   3.923   2.609   5.615  0.1941 -0.0451  0.0061
10126TIP3    H251870   3.916   2.710   5.502  0.1657 -0.3433 -0.2620
10127TIP3   OH251871   4.615   3.064  13.725  0.5450  0.1206  0.7903
10127TIP3    H151872   4.679   3.083  13.656 -0.3136  1.8681  0.4491
10127TIP3    H251873   4.558   2.998  13.686  1.7406 -0.9777  0.8680
10128TIP3   OH251874   0.825   2.893   3.963 -0.2450  0.1667 -0.2749
10128TIP3    H151875   0.751   2.935   4.008 -1.2491 -2.1288  0.2891
10128TIP3    H251876   0.903   2.931   4.005 -1.1012  1.7467 -0.0676
10129TIP3   OH251877   3.706   2.920   1.523  0.1061  0.2006 -0.0006
10129TIP3    H151878   3.630   2.921   1.581  0.7181  0.6416  0.7921
10129TIP3    H251879   3.674   2.878   1.443 -1.3063  1.5309 -0.1400
10130TIP3   OH251880   4.316   1.948   1.715  0.2576 -0.0323  0.0366
10130TIP3    H151881   4.320   1.935   1.810  0.6257  0.0778  0.0361
10130TIP3    H251882   4.391   2.003   1.695 -0.8985  1.5243 -0.0667
10131TIP3   OH251883   3.327   1.091   2.456  0.1984  0.0389 -0.4623
10131TIP3    H151884   3.317   1.168   2.512  2.7156  0.8113 -1.0230
10131TIP3    H251885   3.273   1.024   2.498  0.5944  1.1324  1.8721
10132TIP3   OH251886   0.283   2.994  11.370  0.5567 -0.5306  0.3747
10132TIP3    H151887   0.243   3.038  11.295 -0.1126  0.4347  1.2844
10132TIP3    H251888   0.377   3.000  11.354  0.4428  0.4955  0.0776
10133TIP3   OH251889   0.130   0.930   2.087  0.1891  0.1512 -0.0169
10133TIP3    H151890   0.157   0.971   2.005 -1.1841 -1.9549 -1.5629
10133TIP3    H251891   0.122   1.003   2.149  4.3103  1.4061 -0.8419
10134TIP3   OH251892   0.431   0.083   3.941 -0.0420  0.0654 -0.2278
10134TIP3    H151893   0.440   0.108   3.849 -0.0457 -0.9193 -0.5003
10134TIP3    H251894   0.509   0.119   3.983  1.0666 -1.3749 -1.0365
10135TIP3   OH251895   4.582   5.320   6.320 -0.0757  0.3951  0.5823
10135TIP3    H151896   4.545   5.392   6.268  1.3266  0.7544  0.0739
10135TIP3    H251897   4.544   5.241   6.281  0.6883  0.6821 -0.7938
10136TIP3   OH251898   2.578   6.054  16.214  0.3404 -0.0020 -0.0213
10136TIP3    H151899   2.487   6.060  16.183 -0.1920 -2.2457  0.9672
10136TIP3    H251900   2.629   6.033  16.136 -0.5553 -2.5224  0.0259
10137TIP3   OH251901   2.485   0.481  12.707  0.0804 -0.7101 -0.4084
10137TIP3    H151902   2.437   0.512  12.784  1.4233 -0.1820  0.2188
10137TIP3    H251903   2.418   0.436  12.655 -1.8205  2.6570 -1.0509
10138TIP3   OH251904   0.349   1.018   2.324  0.7916 -0.2036  0.8378
10138TIP3    H151905   0.271   0.982   2.366  0.0601  0.5723  0.1625
10138TIP3    H251906   0.315   1.072   2.253  1.9764 -0.4582  0.0694
10139TIP3   OH251907   2.191   3.183   3.576  0.4963 -0.0684  0.2925
10139TIP3    H151908   2.128   3.251   3.599  1.2907  0.4176  1.0491
10139TIP3    H251909   2.276   3.222   3.594  1.0752 -0.3195 -1.7708
10140TIP3   OH251910   1.153   3.747   2.717 -0.2697  0.4251  0.1456
10140TIP3    H151911   1.114   3.833   2.728  0.4687  0.7831 -0.0398
10140TIP3    H251912   1.095   3.688   2.766 -1.1886  0.9064 -0.3463
10141TIP3   OH251913   1.841   0.725  15.948  0.0019  0.1390 -0.2482
10141TIP3    H151914   1.935   0.724  15.930 -0.2791 -0.1636 -1.7668
10141TIP3    H251915   1.828   0.653  16.010  1.0045  1.2419  1.2569
10142TIP3   OH251916   0.123   3.576   0.904  0.3342 -0.0466  0.0525
10142TIP3    H151917   0.089   3.599   0.990 -1.3865 -0.9985 -0.3446
10142TIP3    H251918   0.201   3.523   0.922 -0.5282 -0.9947  1.0408
10143TIP3   OH251919   0.296   0.113   4.788  0.0501  0.0805 -0.5011
10143TIP3    H151920   0.283   0.110   4.693  1.1354 -1.8402 -0.6123
10143TIP3    H251921   0.388   0.139   4.799 -0.4839  1.7769  0.0592
10144TIP3   OH251922   1.093   0.236  14.553  0.1274  1.0289  0.1444
10144TIP3    H151923   1.064   0.317  14.510 -0.4410  0.7460 -0.0037
10144TIP3    H251924   1.019   0.176  14.544  0.7888  0.2752 -0.3175
10145TIP3   OH251925   4.752   4.836  14.764 -0.3954 -0.5300 -0.3598
10145TIP3    H151926   4.679   4.891  14.736  0.5562  0.4530 -0.9240
10145TIP3    H251927   4.716   4.783  14.836 -1.0933  1.3768  0.7143
10146TIP3   OH251928   0.259   2.802  12.531  0.6098 -0.4672 -0.1529
10146TIP3    H151929   0.165   2.788  12.523  0.5406 -0.0530 -0.0402
10146TIP3    H251930   0.288   2.823  12.442  0.2350  1.6505  0.2009
10147TIP3   OH251931   5.819   5.417  12.853 -0.1055 -0.1766  0.1477
10147TIP3    H151932   5.747   5.459  12.808  0.5896  0.0412 -0.7779
10147TIP3    H251933   5.801   5.431  12.946  0.1519  2.2235 -0.1366
10148TIP3   OH251934   1.120   4.356   0.185 -0.6079  0.1772  0.1539
10148TIP3    H151935   1.101   4.349   0.092  0.4309 -1.6989  0.0567
10148TIP3    H251936   1.193   4.418   0.190  0.8278 -1.4260 -0.5088
10149TIP3   OH251937   1.085   1.322   5.432 -0.0041 -0.7151  0.0773
10149TIP3    H151938   1.174   1.340   5.400 -0.6014 -0.0895 -1.3023
10149TIP3    H251939   1.067   1.233   5.401 -1.0576  0.3522 -2.5299
10150TIP3   OH251940   2.696   4.003  14.249 -0.2383 -0.0474  0.0240
10150TIP3    H151941   2.607   4.011  14.214 -0.9411  0.8913  1.9846
10150TIP3    H251942   2.695   4.051  14.331  2.1817  0.2196 -0.0500
10151TIP3   OH251943   6.770   0.095  14.698 -1.0036 -0.3554  0.0746
10151TIP3    H151944   6.864   0.108  14.682 -0.6230 -2.0000  0.8928
10151TIP3    H251945   6.729   0.177  14.668  0.8729  1.1493  1.5096
10152TIP3   OH251946   4.548   3.500  13.670  0.1782 -0.5252  0.4844
10152TIP3    H151947   4.536   3.411  13.701 -1.9836  0.2643  2.0365
10152TIP3    H251948   4.535   3.495  13.575  2.5669 -2.2414  0.2001
10153TIP3   OH251949   6.295   0.910   3.584  0.2451 -0.2523 -0.3946
10153TIP3    H151950   6.328   0.966   3.514  0.0611 -1.2374 -1.2786
10153TIP3    H251951   6.334   0.946   3.664 -1.5775  2.4222 -0.6712
10154TIP3   OH251952   3.460   4.319  11.924  0.0206 -0.4481  0.9687
10154TIP3    H151953   3.445   4.413  11.933  1.6110  0.1908 -2.3260
10154TIP3    H251954   3.555   4.310  11.921 -0.1672 -1.7626 -2.1567
10155TIP3   OH251955   5.949   1.346   1.056  0.0735 -0.4032  0.3836
10155TIP3    H151956   5.886   1.344   1.128  1.4711 -0.0611  1.6427
10155TIP3    H251957   5.963   1.440   1.040  1.7993 -0.4527  1.5028
10156TIP3   OH251958   1.461   6.295   4.169  0.0999 -0.0557  0.2649
10156TIP3    H151959   1.554   6.281   4.187  0.4640 -0.7895 -1.9986
10156TIP3    H251960   1.452   6.275   4.075 -2.3592 -0.1258  0.4925
10157TIP3   OH251961   6.595   0.729   3.378  0.1895 -0.1711  0.4635
10157TIP3    H151962   6.616   0.654   3.323 -1.2895 -0.0713 -0.2489
10157TIP3    H251963   6.655   0.798   3.349 -0.2669 -0.2616 -0.7274
10158TIP3   OH251964   2.624   5.522  17.258  0.5707 -0.1181 -0.1357
10158TIP3    H151965   2.624   5.429  17.234  0.3248  0.1607 -1.2512
10158TIP3    H251966   2.544   5.556  17.218  2.0039  1.1440 -2.0288
10159TIP3   OH251967   1.905   1.670   5.670  0.0161  0.3830 -0.0578
10159TIP3    H151968   1.860   1.717   5.599 -0.6944 -1.8158 -1.0841
10159TIP3    H251969   1.846   1.677   5.745 -0.5579  0.2408 -0.4963
10160TIP3   OH251970   0.992   4.592   2.017 -0.1208  0.2805 -0.0266
10160TIP3    H151971   0.997   4.604   2.112 -2.0436  1.3174 -0.0332
10160TIP3    H251972   1.026   4.674   1.981  1.1708 -0.3484 -0.2434
10161TIP3   OH251973   3.251   5.424  14.907 -0.2924  0.6898 -0.0697
10161TIP3    H151974   3.162   5.450  14.884  0.0124 -0.7095 -3.0017
10161TIP3    H251975   3.305   5.500  14.887 -0.6986  1.2313  0.8689
10162TIP3   OH251976   3.236   2.991   0.868  0.2933 -0.1190  0.0075
10162TIP3    H151977   3.253   2.956   0.781 -0.0310 -0.0643 -0.0776
10162TIP3    H251978   3.314   2.969   0.918  0.3302 -0.4589 -0.1998
10163TIP3   OH251979   6.749   2.796  15.373 -0.5133  0.0772 -0.4874
10163TIP3    H151980   6.703   2.755  15.446 -2.5434  1.2197 -1.0821
10163TIP3    H251981   6.689   2.789  15.299  1.3591 -0.7337 -1.9726
10164TIP3   OH251982   4.222   4.419  15.673 -0.1399 -0.2082  0.3145
10164TIP3    H151983   4.307   4.407  15.631  1.0355  0.8994  2.2622
10164TIP3    H251984   4.199   4.333  15.707 -0.8137 -0.9716 -2.0540
10165TIP3   OH251985   3.292   1.871  12.864  0.0332  0.0689 -0.1062
10165TIP3    H151986   3.356   1.931  12.902 -1.1360  0.5502  1.1176
10165TIP3    H251987   3.236   1.925  12.809  1.4897 -0.5677 -2.2844
10166TIP3   OH251988   2.446   0.278  16.476 -0.1046 -0.6179 -0.1922
10166TIP3    H151989   2.488   0.362  16.494 -0.4021 -1.0894  3.1080
10166TIP3    H251990   2.357   0.301  16.449  0.0885  0.1398 -0.1880
10167TIP3   OH251991   4.060   3.040   3.132  0.0828 -0.6504 -0.3923
10167TIP3    H151992   4.139   3.083   3.097 -0.0172  0.2803  0.4830
10167TIP3    H251993   3.998   3.112   3.146  0.2232 -0.9451  1.9407
10168TIP3   OH251994   6.423   5.877  13.814 -1.2423  0.1538  0.1922
10168TIP3    H151995   6.392   5.876  13.723  0.0347 -0.2038 -0.2481
10168TIP3    H251996   6.408   5.788  13.845 -1.6328  0.2626  0.3309
10169TIP3   OH251997   2.209   2.442  10.965  0.2263  0.0692  0.0596
10169TIP3    H151998   2.225   2.394  10.884  0.1310 -0.9150  0.6187
10169TIP3    H251999   2.186   2.530  10.936 -0.2559 -0.3927 -1.0048
10170TIP3   OH252000   0.872   2.177  16.906 -0.7302  0.2771  0.2927
10170TIP3    H152001   0.897   2.085  16.916 -0.8995  0.0840 -0.9903
10170TIP3    H252002   0.821   2.180  16.825 -0.3990  1.5599  0.1106
10171TIP3   OH252003   3.160   3.330   4.015 -0.6005  0.6036  0.0812
10171TIP3    H152004   3.123   3.356   3.931 -0.5631 -1.0321 -0.4539
10171TIP3    H252005   3.232   3.391   4.029 -0.7098  0.9957 -0.9876
10172TIP3   OH252006   1.421   0.295   1.184 -0.4911 -0.1801 -0.0506
10172TIP3    H152007   1.418   0.378   1.231  0.4413  0.4718 -1.0971
10172TIP3    H252008   1.365   0.309   1.107  0.9905  0.0664 -1.1039
10173TIP3   OH252009   5.529   5.807   1.787 -0.2459  0.3849  0.3070
10173TIP3    H152010   5.541   5.732   1.846 -1.3535  0.6958  0.9459
10173TIP3    H252011   5.608   5.860   1.799  1.2714 -1.4454 -1.3173
10174TIP3   OH252012   2.988   2.441  16.252 -0.1498 -0.3684  0.6793
10174TIP3    H152013   3.074   2.482  16.262 -0.8384  1.5681 -0.9703
10174TIP3    H252014   3.003   2.367  16.193  0.3316  0.2095  0.0663
10175TIP3   OH252015   5.707   5.113   2.169  0.2233 -0.4239 -0.4867
10175TIP3    H152016   5.695   5.050   2.098 -0.9118 -0.2045 -0.4927
10175TIP3    H252017   5.791   5.089   2.208  1.5228  0.2683 -2.7290
10176TIP3   OH252018   1.004   3.743  11.414 -0.5017 -0.7319 -0.4785
10176TIP3    H152019   0.983   3.794  11.336 -0.1909 -0.8086 -0.6136
10176TIP3    H252020   1.012   3.653  11.383 -3.1563 -1.2253  0.1000
10177TIP3   OH252021   2.726   3.438   0.020  0.5653  0.0970  0.6307
10177TIP3    H152022   2.750   3.422  -0.071  2.7402 -1.2846  1.3890
10177TIP3    H252023   2.747   3.530   0.035 -1.0452  0.6924 -0.5891
10178TIP3   OH252024   3.922   2.286  11.839  0.4832 -0.1296  0.0556
10178TIP3    H152025   4.012   2.274  11.870 -0.9824 -4.0328  3.2679
10178TIP3    H252026   3.884   2.349  11.901  0.0433 -1.1690  0.8531
10179TIP3   OH252027   3.915   6.812   5.613  0.0093  0.1445 -0.3760
10179TIP3    H152028   3.904   6.882   5.677  0.0718  0.1321 -0.3512
10179TIP3    H252029   3.883   6.734   5.658  0.5661  0.0414 -0.1670
10180TIP3   OH252030   5.881   3.332   5.977 -0.0929  0.0509 -0.0355
10180TIP3    H152031   5.916   3.400   6.035  2.2413  0.6985 -2.1308
10180TIP3    H252032   5.789   3.355   5.967  0.5089  2.5728 -0.1950
10181TIP3   OH252033   6.033   4.854  16.315  0.0511  0.3476  0.2510
10181TIP3    H152034   5.972   4.889  16.250 -0.6194  1.2498  1.3432
10181TIP3    H252035   6.017   4.759  16.314 -2.4315  0.6906  1.5203
10182TIP3   OH252036   5.504   5.619   5.544 -0.7319  0.6926 -0.0872
10182TIP3    H152037   5.459   5.585   5.622  1.4486  0.3722  1.0834
10182TIP3    H252038   5.596   5.623   5.570 -0.2318  2.4586 -2.0151
10183TIP3   OH252039   1.412   4.922   5.176 -0.5838 -0.1369 -0.3312
10183TIP3    H152040   1.361   4.856   5.223 -1.0035  0.4772  0.0848
10183TIP3    H252041   1.380   5.006   5.211 -0.7527  0.3198 -1.5562
10184TIP3   OH252042   1.199   3.695   1.361  0.2940  0.3450 -0.2978
10184TIP3    H152043   1.164   3.754   1.295 -1.5492  0.0741  0.4010
10184TIP3    H252044   1.122   3.662   1.407  1.5350  0.7353  2.1486
10185TIP3   OH252045   3.750   3.323  15.424 -0.1765 -0.0051 -0.6899
10185TIP3    H152046   3.786   3.407  15.452 -1.0957 -0.0780  0.8197
10185TIP3    H252047   3.768   3.318  15.331 -0.8608  2.2734 -0.9750
10186TIP3   OH252048   6.001   6.079  12.699  0.1288  0.5000  0.1535
10186TIP3    H152049   6.048   6.124  12.768  1.2890 -1.1473  0.4600
10186TIP3    H252050   5.971   6.149  12.641  0.3611  1.7829  1.5482
10187TIP3   OH252051   2.339   6.684  13.358  0.1830 -0.3482 -0.4266
10187TIP3    H152052   2.318   6.603  13.404 -2.0433  0.7096  0.5117
10187TIP3    H252053   2.362   6.746  13.427 -0.4535  0.4745 -0.9340
10188TIP3   OH252054   2.621   6.513  13.505 -0.1405  0.1231  0.0695
10188TIP3    H152055   2.663   6.480  13.426 -2.0611 -1.3151 -0.3596
10188TIP3    H252056   2.677   6.482  13.577 -0.5059 -1.8596 -0.4939
10189TIP3   OH252057   6.386   0.235   0.214 -0.2180  0.4135  0.0485
10189TIP3    H152058   6.391   0.297   0.140 -1.1037  0.9997  0.4794
10189TIP3    H252059   6.400   0.289   0.291  0.2955 -0.1421  0.3496
10190TIP3   OH252060   5.079   1.840  10.823  0.6414 -0.2798  0.2255
10190TIP3    H152061   5.123   1.766  10.863  0.0421  0.2950  1.9760
10190TIP3    H252062   4.988   1.811  10.811  0.3740  0.1970  1.0335
10191TIP3   OH252063   1.614   0.595   1.261  0.1875  0.2755  0.2362
10191TIP3    H152064   1.583   0.677   1.298 -0.5340  0.1047  0.0246
10191TIP3    H252065   1.547   0.571   1.196  0.7410 -0.1243 -0.1891
10192TIP3   OH252066   3.270   3.300   4.981 -0.0621  0.1872 -0.2074
10192TIP3    H152067   3.270   3.394   4.994  0.7417  0.0549  0.8046
10192TIP3    H252068   3.254   3.288   4.887  0.6738  1.3521 -0.4851
10193TIP3   OH252069   4.061   5.867   6.563  0.1113 -0.1522 -0.1306
10193TIP3    H152070   4.011   5.946   6.541 -0.4474 -0.5542 -0.3272
10193TIP3    H252071   3.994   5.803   6.590  0.5351 -0.6459 -0.2363
10194TIP3   OH252072   1.434   2.150   4.158  0.0690  0.2455 -0.0092
10194TIP3    H152073   1.415   2.160   4.251 -1.7053 -0.6491 -0.2463
10194TIP3    H252074   1.524   2.117   4.155 -0.1193 -0.4414  1.4344
10195TIP3   OH252075   0.602   2.532   4.237  0.4284 -0.4576  0.3382
10195TIP3    H152076   0.528   2.553   4.179  0.4640 -3.1283 -0.7355
10195TIP3    H252077   0.561   2.502   4.318  0.3777  3.3760  1.8379
10196TIP3   OH252078   5.452   1.348   3.606  0.4307 -0.4997  0.8226
10196TIP3    H152079   5.415   1.291   3.539 -1.6813  0.2395  1.3409
10196TIP3    H252080   5.444   1.436   3.570  0.1111 -0.1803  1.6571
10197TIP3   OH252081   0.682   6.158   0.327 -0.2769 -0.0420  0.5341
10197TIP3    H152082   0.729   6.234   0.360  0.6458 -1.0821  1.6478
10197TIP3    H252083   0.684   6.168   0.232  1.3485  0.4268  0.6140
10198TIP3   OH252084   0.410   5.106   6.244  0.3466 -0.5445 -0.2078
10198TIP3    H152085   0.409   5.197   6.274 -0.4029 -0.7807  0.5020
10198TIP3    H252086   0.499   5.076   6.263  1.0242  0.4423 -1.7233
10199TIP3   OH252087   5.644   4.183  15.378  0.2469 -0.4041  0.4183
10199TIP3    H152088   5.666   4.090  15.387 -0.3925 -0.5256  0.7462
10199TIP3    H252089   5.646   4.199  15.283  1.0054 -0.5935  0.4011
10200TIP3   OH252090   4.927   4.046  13.126 -0.2995 -0.4400  0.2938
10200TIP3    H152091   5.022   4.050  13.113 -0.0514 -1.4038  1.7251
10200TIP3    H252092   4.913   3.969  13.181 -2.0890 -1.3265 -1.3369
10201TIP3   OH252093   0.409   0.457  14.449 -0.6394 -0.1676  0.1081
10201TIP3    H152094   0.427   0.452  14.355 -0.9870 -2.6476  0.1500
10201TIP3    H252095   0.495   0.457  14.490 -0.5138 -1.2356 -0.1395
10202TIP3   OH252096   2.221   5.569  13.150  0.0233 -0.1417  0.1312
10202TIP3    H152097   2.148   5.545  13.094  0.4141  1.1033 -0.9515
10202TIP3    H252098   2.297   5.568  13.092  0.7209 -0.5307  1.0325
10203TIP3   OH252099   3.575   1.653   4.390  0.2451  0.0636  0.3611
10203TIP3    H152100   3.570   1.722   4.455  0.0044  0.9900 -0.6281
10203TIP3    H252101   3.631   1.689   4.321 -0.8083 -0.2742 -0.6871
10204TIP3   OH252102   4.982   5.075   3.069  0.1608 -0.4366  0.3362
10204TIP3    H152103   4.937   5.124   3.001 -1.2198 -0.1764  1.4195
10204TIP3    H252104   4.917   5.065   3.139  1.5631 -0.6584  1.6323
10205TIP3   OH252105   2.255   5.997   3.890  0.7201 -0.3425  0.2649
10205TIP3    H152106   2.170   5.970   3.923  0.6899  0.6100  0.9762
10205TIP3    H252107   2.318   5.942   3.937  0.5218 -0.8433 -0.0508
10206TIP3   OH252108   5.924   5.462   1.898  0.8535  0.2345  0.0603
10206TIP3    H152109   5.868   5.482   1.823  2.3653 -2.0530 -1.7231
10206TIP3    H252110   5.862   5.440   1.968 -0.5438  0.4397 -1.0706
10207TIP3   OH252111   2.695   0.599   5.393 -0.3426  0.0145 -0.1576
10207TIP3    H152112   2.633   0.653   5.443  1.2689  2.1081 -0.3703
10207TIP3    H252113   2.663   0.509   5.405 -0.7682  0.5926  3.5566
10208TIP3   OH252114   0.415   1.368  16.596 -0.1894 -0.2478 -0.2551
10208TIP3    H152115   0.320   1.362  16.601 -0.1441 -0.4722  0.3812
10208TIP3    H252116   0.435   1.352  16.503 -0.7341 -0.6094 -0.3133
10209TIP3   OH252117   3.384   1.921  10.362 -0.6735 -0.1821 -0.2665
10209TIP3    H152118   3.370   1.975  10.439 -0.3421  0.8528 -0.9280
10209TIP3    H252119   3.431   1.978  10.300  0.3902 -1.4529 -0.6648
10210TIP3   OH252120   6.197   5.616   3.435  0.2041 -0.7395 -0.0566
10210TIP3    H152121   6.206   5.663   3.353 -0.6767  0.8100  0.7180
10210TIP3    H252122   6.105   5.590   3.438 -0.3161  1.1803  1.4674
10211TIP3   OH252123   2.267   5.567   3.502  0.2757 -0.3053 -0.4320
10211TIP3    H152124   2.273   5.511   3.425  5.2467 -0.7424  0.0952
10211TIP3    H252125   2.347   5.619   3.500 -0.1051  0.6563  3.6808
10212TIP3   OH252126   2.887   3.667   0.767  0.3565  0.0433  0.0665
10212TIP3    H152127   2.793   3.668   0.787 -0.2072  0.0802 -2.3143
10212TIP3    H252128   2.917   3.581   0.797 -0.6081 -0.2625  0.1643
10213TIP3   OH252129   6.129   2.207   1.060 -0.3006  0.4723  0.1416
10213TIP3    H152130   6.092   2.279   1.009 -1.2903  0.0414  0.2411
10213TIP3    H252131   6.211   2.186   1.016 -0.8226  0.5517 -0.8826
10214TIP3   OH252132   5.239   4.240  15.734 -0.3265 -0.1953 -0.3044
10214TIP3    H152133   5.203   4.281  15.813  1.0377 -0.7596  0.6350
10214TIP3    H252134   5.285   4.311  15.689  0.6502 -0.3053  0.4882
10215TIP3   OH252135   5.305   0.005   2.416 -0.2749  0.0919  0.0365
10215TIP3    H152136   5.213  -0.015   2.432  0.0554 -2.2492 -0.8268
10215TIP3    H252137   5.307   0.099   2.399 -2.5595  0.0862 -0.3562
10216TIP3   OH252138   3.804   1.578  16.184 -0.1209  0.0096  0.1757
10216TIP3    H152139   3.811   1.655  16.127  0.7532 -1.4176 -1.6978
10216TIP3    H252140   3.875   1.589  16.247  1.8124 -0.6565 -1.8448
10217TIP3   OH252141   4.040   3.360  14.596  0.5517 -0.2428  0.1024
10217TIP3    H152142   4.106   3.402  14.651 -2.3792  2.1828  1.9422
10217TIP3    H252143   4.008   3.430  14.539 -0.4902 -1.3439 -0.7078
10218TIP3   OH252144   1.316   2.627  12.948 -0.2387  0.4875 -0.0142
10218TIP3    H152145   1.339   2.581  13.029 -0.5466  1.9499  0.9112
10218TIP3    H252146   1.395   2.677  12.926 -0.1357  0.0512 -0.6544
10219TIP3   OH252147   5.344   2.544   2.497  0.0567 -0.8811  0.1539
10219TIP3    H152148   5.355   2.449   2.497  0.2102 -0.8717 -0.8624
10219TIP3    H252149   5.352   2.569   2.405 -1.1835 -0.0148  0.2718
10220TIP3   OH252150   2.755   5.917  15.967 -0.2024  0.0412 -0.0192
10220TIP3    H152151   2.822   5.985  15.959  1.1985 -1.1942  0.8518
10220TIP3    H252152   2.703   5.924  15.887  0.5694  1.4352 -0.4147
10221TIP3   OH252153   5.814   6.427   1.209  0.0602 -0.2209  0.1555
10221TIP3    H152154   5.848   6.505   1.254 -0.9728 -0.1259  0.7908
10221TIP3    H252155   5.773   6.462   1.130  2.6886 -0.4760 -1.3691
10222TIP3   OH252156   3.230   6.391   4.139 -0.3827  0.1886 -0.6468
10222TIP3    H152157   3.242   6.326   4.070  0.7277 -2.5870  1.9967
10222TIP3    H252158   3.319   6.415   4.165 -0.7509  0.0505  0.7937
10223TIP3   OH252159   3.445   1.358   1.248  0.2866 -0.3282  0.1926
10223TIP3    H152160   3.512   1.371   1.180 -1.3332 -0.5267 -1.4964
10223TIP3    H252161   3.463   1.270   1.283  0.5580 -0.6198 -0.6650
10224TIP3   OH252162   3.745   2.133  12.329  0.1537 -0.0291 -0.1255
10224TIP3    H152163   3.729   2.044  12.363  0.2878 -0.4880 -1.2452
10224TIP3    H252164   3.666   2.153  12.279 -0.5058  1.0794  1.3083
10225TIP3   OH252165   4.369   5.628   2.087  0.4104 -0.4810  0.2056
10225TIP3    H152166   4.423   5.704   2.069  0.8959 -0.9073 -0.1569
10225TIP3    H252167   4.331   5.605   2.002  0.5373 -0.8485  0.2462
10226TIP3   OH252168   3.832   2.568  14.414 -0.1020  0.4248 -0.0794
10226TIP3    H152169   3.895   2.637  14.436 -0.4982 -0.1195  3.0008
10226TIP3    H252170   3.794   2.543  14.498  0.7651 -4.2949 -0.9254
10227TIP3   OH252171   1.808   5.477  14.901  0.4945 -0.5154  0.0316
10227TIP3    H152172   1.824   5.527  14.981  0.6039 -0.8919  0.2473
10227TIP3    H252173   1.797   5.387  14.931  0.0722 -0.5856 -0.3323
10228TIP3   OH252174   1.013   0.523   3.329 -0.1356 -0.7725  0.1493
10228TIP3    H152175   0.932   0.490   3.368  0.2482 -0.7011  1.0079
10228TIP3    H252176   1.083   0.473   3.371  0.2833 -0.6653 -0.4132
10229TIP3   OH252177   6.298   0.087  17.172 -0.0962  0.1768  0.1981
10229TIP3    H152178   6.362   0.033  17.124 -0.4854 -0.5777  0.5192
10229TIP3    H252179   6.280   0.160  17.113 -0.8607 -0.9349 -0.9860
10230TIP3   OH252180   3.620   5.849  11.299  0.1941 -0.1957 -0.3884
10230TIP3    H152181   3.599   5.784  11.367 -0.2582 -0.2804 -0.6085
10230TIP3    H252182   3.654   5.797  11.226  0.4409 -0.1245 -0.3254
10231TIP3   OH252183   6.687   5.665  17.067  0.7726 -0.1947  0.2624
10231TIP3    H152184   6.631   5.716  17.125  3.3628 -0.0527  2.7449
10231TIP3    H252185   6.629   5.637  16.996 -2.2192  0.6279  2.2842
10232TIP3   OH252186   0.239   6.264  12.260 -0.0913 -0.4205 -0.0739
10232TIP3    H152187   0.320   6.301  12.227 -1.1156  0.3803 -1.7353
10232TIP3    H252188   0.233   6.178  12.219 -0.3923 -0.2118 -0.4770
10233TIP3   OH252189   4.250   4.135   2.506  0.3506 -0.6878  0.6942
10233TIP3    H152190   4.241   4.041   2.525 -0.0601 -1.0603 -1.2404
10233TIP3    H252191   4.213   4.145   2.419 -0.5496  1.4831  1.3083
10234TIP3   OH252192   3.095   0.391   4.599  0.0086  0.0878 -0.1548
10234TIP3    H152193   3.108   0.303   4.561 -0.1862  0.2566 -0.6169
10234TIP3    H252194   3.034   0.434   4.539 -0.3494  0.3388  0.3897
10235TIP3   OH252195   1.071   5.831   5.959 -0.2835  0.4032  0.2345
10235TIP3    H152196   1.163   5.851   5.937 -1.0319  2.1921 -1.4873
10235TIP3    H252197   1.039   5.911   6.001 -1.1267 -0.1212  0.5966
10236TIP3   OH252198   5.488   2.188   6.340 -0.6052 -0.4292  0.1305
10236TIP3    H152199   5.514   2.253   6.406 -0.9866  0.9827 -1.0776
10236TIP3    H252200   5.467   2.110   6.391  0.6823  0.1244  1.5536
10237TIP3   OH252201   0.481   6.562   2.867  0.1409  0.0161  0.3804
10237TIP3    H152202   0.525   6.478   2.878  2.0259  0.7327 -1.3461
10237TIP3    H252203   0.387   6.541   2.870  0.5851 -2.1233  0.0129
10238TIP3   OH252204   5.399   3.406   1.433  0.1618 -0.1194 -0.2827
10238TIP3    H152205   5.418   3.313   1.419  1.5191  0.3239 -1.3890
10238TIP3    H252206   5.447   3.428   1.513 -1.0664 -0.6259  0.6207
10239TIP3   OH252207   3.714   1.246   0.926  0.1821 -0.3173  0.3809
10239TIP3    H152208   3.741   1.208   0.843  1.6954  1.3240  0.0946
10239TIP3    H252209   3.619   1.254   0.919  0.0722 -2.0102 -0.3732
10240TIP3   OH252210   3.080   6.486  11.777  1.0131 -0.2232 -0.0229
10240TIP3    H152211   3.128   6.472  11.696  0.5773  0.5359 -0.4117
10240TIP3    H252212   2.992   6.452  11.759  0.6772  0.6928 -0.1461
10241TIP3   OH252213   5.287   3.534   3.186 -0.0475  0.6453  0.1693
10241TIP3    H152214   5.220   3.564   3.125 -0.4903 -0.4931  0.0787
10241TIP3    H252215   5.359   3.596   3.175 -0.9412  1.6650  0.0049
10242TIP3   OH252216   5.751   4.165  11.317 -0.1475 -0.3889  0.0717
10242TIP3    H152217   5.676   4.153  11.376 -0.1417 -0.6444  0.0242
10242TIP3    H252218   5.794   4.080  11.314  0.1795 -0.2298  0.1422
10243TIP3   OH252219   4.635   4.914  13.996 -0.1886 -0.1944 -0.6278
10243TIP3    H152220   4.725   4.896  14.020 -1.1516 -1.9252  1.7546
10243TIP3    H252221   4.590   4.830  14.003 -2.2502  0.8762 -0.5779
10244TIP3   OH252222   6.058   1.499   3.433  0.2523 -0.0288  0.4977
10244TIP3    H152223   6.032   1.582   3.473 -1.4593 -0.8019  1.0728
10244TIP3    H252224   6.085   1.445   3.508 -1.5097 -0.9740  0.4722
10245TIP3   OH252225   3.521   5.153  12.932 -0.0717  0.0065 -0.0399
10245TIP3    H152226   3.518   5.238  12.889 -1.8637  1.0984  2.1503
10245TIP3    H252227   3.429   5.132  12.951  0.5199 -1.3783  1.4320
10246TIP3   OH252228   3.495   2.160  16.198  0.0385 -0.1820  0.0799
10246TIP3    H152229   3.502   2.168  16.103 -1.5978 -0.6687 -0.0990
10246TIP3    H252230   3.488   2.066  16.214  0.2033 -0.0963  0.6857
10247TIP3   OH252231   5.091   4.330  15.502 -0.0872 -0.0904 -0.4354
10247TIP3    H152232   5.161   4.390  15.477  0.3759  0.3961  1.8725
10247TIP3    H252233   5.136   4.255  15.540 -0.7477 -0.7366 -0.9258
10248TIP3   OH252234   5.055   0.484   3.387 -0.0940 -0.3058  0.1020
10248TIP3    H152235   5.104   0.434   3.322  1.6535  1.2041  0.1907
10248TIP3    H252236   4.966   0.486   3.354  0.4244 -1.0095 -1.3783
10249TIP3   OH252237   4.629   0.332  14.610  0.0939  0.2213 -0.2730
10249TIP3    H152238   4.656   0.298  14.525 -0.0110 -1.5179  0.3678
10249TIP3    H252239   4.686   0.289  14.673 -1.0225  0.1072  0.6878
10250TIP3   OH252240   2.286   0.127   3.126 -0.1943 -0.2585  0.4200
10250TIP3    H152241   2.339   0.069   3.182 -1.1399 -2.3588 -0.8014
10250TIP3    H252242   2.311   0.215   3.153  2.2835 -1.2134  1.4295
10251TIP3   OH252243   1.465   1.336  11.654  0.0842 -0.2448 -0.2207
10251TIP3    H152244   1.466   1.241  11.662 -0.2476 -0.3311 -1.1233
10251TIP3    H252245   1.425   1.367  11.735  0.1145 -0.8767  0.0371
10252TIP3   OH252246   2.200   1.711   3.216 -0.2584  0.1448 -0.1061
10252TIP3    H152247   2.212   1.727   3.123  0.9806  0.3289  0.0800
10252TIP3    H252248   2.176   1.619   3.222 -1.0891  0.3179 -0.6587
10253TIP3   OH252249   4.793   1.431   1.561  0.7341  0.1774  0.2243
10253TIP3    H152250   4.821   1.359   1.504 -0.6919 -0.5025  0.3508
10253TIP3    H252251   4.795   1.395   1.649  0.9051  0.5865  0.3920
10254TIP3   OH252252   1.298   0.020   4.759 -0.0053 -0.2439  0.0384
10254TIP3    H152253   1.322  -0.037   4.832  0.8429 -2.0156 -1.5913
10254TIP3    H252254   1.222  -0.023   4.719 -1.4237  1.5157  0.7658
10255TIP3   OH252255   0.080   6.615   0.354 -0.4269  0.1984 -0.2169
10255TIP3    H152256   0.160   6.637   0.402 -1.1491  0.9068  0.6577
10255TIP3    H252257   0.025   6.570   0.418 -2.1220  2.6997  0.1330
10256TIP3   OH252258   2.725   0.482  13.257 -0.0995  0.0578 -0.0297
10256TIP3    H152259   2.656   0.509  13.197  1.3442 -1.1160 -2.3140
10256TIP3    H252260   2.753   0.563  13.300 -0.8630  1.0107 -1.2949
10257TIP3   OH252261   3.142   4.227   0.614  0.6484  0.8332 -0.4494
10257TIP3    H152262   3.140   4.157   0.680  2.0650  0.8419 -0.3796
10257TIP3    H252263   3.125   4.182   0.531  0.0627  0.6387 -0.2263
10258TIP3   OH252264   2.498   3.712  12.262  0.2236 -0.4736  0.3543
10258TIP3    H152265   2.505   3.636  12.320 -1.6974 -0.6007  0.4662
10258TIP3    H252266   2.418   3.696  12.212 -0.2263  1.4867  0.4063
10259TIP3   OH252267   5.959   5.154   1.696 -0.4719 -0.6159 -0.0936
10259TIP3    H152268   5.982   5.081   1.639  1.0434  0.3236 -0.7163
10259TIP3    H252269   5.871   5.179   1.670 -0.1526 -0.8152 -1.3914
10260TIP3   OH252270   0.759   5.252  17.236 -0.5143 -0.2099  0.4133
10260TIP3    H152271   0.765   5.312  17.163 -6.1248 -0.5909 -0.5630
10260TIP3    H252272   0.762   5.165  17.196 -1.1292 -0.4522  0.8789
10261TIP3   OH252273   3.485   2.975   1.024 -0.3263  0.0674  0.0585
10261TIP3    H152274   3.493   3.059   0.980 -0.0210 -0.0878 -0.1821
10261TIP3    H252275   3.466   2.997   1.115  2.4311  0.4592  0.5753
10262TIP3   OH252276   3.176   0.118   2.809 -0.7307 -0.0472  0.2183
10262TIP3    H152277   3.163   0.029   2.775  1.7022 -0.4028  0.1873
10262TIP3    H252278   3.143   0.114   2.898 -2.0637 -0.5590 -0.2818
10263TIP3   OH252279   3.424   5.950   4.300 -0.5111 -0.0891 -0.0160
10263TIP3    H152280   3.396   5.918   4.386 -1.0549 -0.9953 -0.5316
10263TIP3    H252281   3.344   5.952   4.248 -0.3512  1.3462 -0.2415
10264TIP3   OH252282   0.753   3.891   2.952  0.5312  0.0437  0.0354
10264TIP3    H152283   0.790   3.831   3.017 -0.4642 -1.7243 -0.9764
10264TIP3    H252284   0.693   3.946   3.003  1.4274  0.1668  0.9803
10265TIP3   OH252285   0.046   4.790   5.585  0.3258 -0.0196 -0.4068
10265TIP3    H152286   0.061   4.799   5.679 -0.7910 -0.4956 -0.1751
10265TIP3    H252287  -0.024   4.852   5.565  0.7104  0.2338 -0.9583
10266TIP3   OH252288   2.342   2.051  13.736  0.2322  0.0852  0.2003
10266TIP3    H152289   2.285   2.074  13.809 -0.8000 -1.5478 -0.0657
10266TIP3    H252290   2.283   2.039  13.662  1.1366  0.3713 -0.5814
10267TIP3   OH252291   4.246   6.342  15.714  0.0823  0.0348  0.8433
10267TIP3    H152292   4.288   6.382  15.637 -0.1210  1.0620  1.2484
10267TIP3    H252293   4.153   6.341  15.693  0.1718 -1.0650  0.4700
10268TIP3   OH252294   0.262   3.996   4.021  0.0232  0.4300 -0.2454
10268TIP3    H152295   0.188   4.056   4.024 -0.0554  0.2951  1.0830
10268TIP3    H252296   0.296   4.003   3.932 -0.4043  1.9317 -0.3011
10269TIP3   OH252297   2.014   6.056   1.127 -0.0530 -0.1179 -0.1926
10269TIP3    H152298   2.055   6.142   1.134  0.9517 -0.5140 -1.1397
10269TIP3    H252299   1.957   6.051   1.204  2.9177 -0.2057  2.0940
10270TIP3   OH252300   3.896   6.495   4.327  0.0430  0.3386  0.1710
10270TIP3    H152301   3.817   6.530   4.286  1.1823  1.7720 -0.8485
10270TIP3    H252302   3.947   6.459   4.255  0.2276 -0.7615  0.8482
10271TIP3   OH252303   2.485   1.987  12.289  0.0297 -0.0365  0.0616
10271TIP3    H152304   2.567   1.985  12.338  0.8206 -2.2742 -1.2456
10271TIP3    H252305   2.488   1.908  12.235 -1.3584  1.6756 -2.6656
10272TIP3   OH252306   6.724   4.909   2.472  0.1381 -0.2970  0.2326
10272TIP3    H152307   6.751   4.913   2.380 -1.8939  0.0042 -0.3730
10272TIP3    H252308   6.792   4.957   2.519 -0.2814  2.0223 -1.4634
10273TIP3   OH252309   0.624   4.484   5.573  0.2590  0.2188 -0.2604
10273TIP3    H152310   0.570   4.436   5.510  0.1023 -1.4842  1.1374
10273TIP3    H252311   0.563   4.544   5.616  0.4255  1.6071 -1.9074
10274TIP3   OH252312   0.498   2.073  13.133 -0.4828  0.6239  0.0823
10274TIP3    H152313   0.481   2.066  13.039 -0.0207 -0.5964  0.0759
10274TIP3    H252314   0.508   2.167  13.149  1.1175  0.7361 -1.4073
10275TIP3   OH252315   2.846   5.440   0.305 -0.7259 -0.1518  0.9874
10275TIP3    H152316   2.878   5.490   0.380  0.1596 -0.5852  0.9018
10275TIP3    H252317   2.759   5.410   0.332 -0.9148  0.7017  1.3715
10276TIP3   OH252318   5.167   0.511  16.224 -0.3576  0.2542 -0.0444
10276TIP3    H152319   5.171   0.421  16.192  0.0908  0.5458 -0.8381
10276TIP3    H252320   5.240   0.518  16.286  0.4672  0.4588 -1.0234
10277TIP3   OH252321   0.882   1.733  14.238  0.3001  0.5750 -0.1545
10277TIP3    H152322   0.818   1.779  14.184 -1.0198 -1.9076 -0.8039
10277TIP3    H252323   0.851   1.746  14.328 -0.1430  0.8070 -0.3407
10278TIP3   OH252324   3.371   2.073   1.135 -0.2931 -0.2540 -0.1983
10278TIP3    H152325   3.403   2.040   1.051 -0.4324  1.3858 -0.9110
10278TIP3    H252326   3.294   2.126   1.113 -1.5813 -1.5113  1.1800
10279TIP3   OH252327   5.496   4.995   5.783 -0.4672 -0.1956  0.0207
10279TIP3    H152328   5.547   4.948   5.849  1.0841  2.4216  0.7738
10279TIP3    H252329   5.542   4.979   5.701  0.2701  0.3197  0.3325
10280TIP3   OH252330   0.343   2.508   5.539  0.5882 -0.7148 -0.4159
10280TIP3    H152331   0.275   2.549   5.485  0.2092 -0.6684  0.0877
10280TIP3    H252332   0.421   2.508   5.484  0.7836  1.3282 -0.1903
10281TIP3   OH252333   2.511   3.901   0.279  0.4894 -0.3152  0.0660
10281TIP3    H152334   2.583   3.960   0.258  0.2941  0.2125  0.8471
10281TIP3    H252335   2.436   3.935   0.231  0.5860 -0.4364 -0.1698
10282TIP3   OH252336   6.372   6.463  11.846  0.1114  0.0172  0.0759
10282TIP3    H152337   6.380   6.376  11.886  1.7262 -0.0206 -0.2931
10282TIP3    H252338   6.436   6.517  11.893 -1.5142  1.2512  0.9066
10283TIP3   OH252339   1.060   5.394   5.501 -0.1141  0.5583 -0.0133
10283TIP3    H152340   0.979   5.417   5.546 -0.4471  1.0272 -0.8478
10283TIP3    H252341   1.032   5.351   5.421  0.4567  0.7879 -0.3429
10284TIP3   OH252342   0.377   5.408  11.507  0.1661  0.1077  0.0214
10284TIP3    H152343   0.334   5.327  11.480  1.7991 -0.4646 -0.9403
10284TIP3    H252344   0.447   5.380  11.565  2.3780  0.5770 -2.3461
10285TIP3   OH252345   3.289   1.890   1.974 -0.7466  0.3211 -0.4764
10285TIP3    H152346   3.211   1.918   2.020 -0.6120 -0.8859  0.5111
10285TIP3    H252347   3.305   1.959   1.909 -3.1551  0.1441 -1.3316
10286TIP3   OH252348   3.904   4.764   1.788  0.3577 -0.3447  1.0024
10286TIP3    H152349   3.913   4.851   1.749 -0.3136  0.1274  1.9001
10286TIP3    H252350   3.992   4.726   1.780  1.3728  1.4396  3.0417
10287TIP3   OH252351   2.243   3.938   5.222 -0.0860 -0.0265  0.2189
10287TIP3    H152352   2.252   3.846   5.196 -0.2121 -0.0867  0.3844
10287TIP3    H252353   2.153   3.960   5.197  0.1658  0.2552 -0.4447
10288TIP3   OH252354   3.836   4.815   5.133 -0.7979 -0.1057  0.3381
10288TIP3    H152355   3.755   4.863   5.116 -0.6880 -0.5768 -1.5808
10288TIP3    H252356   3.906   4.877   5.110 -0.6440 -0.7151 -0.8454
10289TIP3   OH252357   5.272   4.821  13.494  0.0259 -0.2771  0.1877
10289TIP3    H152358   5.292   4.915  13.489  2.5654 -0.9038 -3.7450
10289TIP3    H252359   5.357   4.780  13.510 -0.8333 -2.0326  0.3221
10290TIP3   OH252360   5.491   0.390  16.577 -0.5721  0.4406 -0.6500
10290TIP3    H152361   5.557   0.322  16.593 -2.2476 -0.7386  1.5813
10290TIP3    H252362   5.511   0.459  16.641 -2.1955 -0.5010  0.9479
10291TIP3   OH252363   5.829   0.987   5.843  0.2446 -0.6664 -0.2084
10291TIP3    H152364   5.771   0.968   5.917  3.3743 -2.0761  2.0054
10291TIP3    H252365   5.858   0.901   5.813  1.9293  0.0205 -0.6144
10292TIP3   OH252366   6.378   5.860  16.433  0.0575 -0.2835  0.1224
10292TIP3    H152367   6.446   5.927  16.439  0.2897 -0.6051  1.2698
10292TIP3    H252368   6.298   5.910  16.414  0.6739  0.0516 -1.6108
10293TIP3   OH252369   2.244   5.002  14.623  0.5269 -0.2312 -0.0507
10293TIP3    H152370   2.168   5.004  14.681  0.8114  2.1968  0.2875
10293TIP3    H252371   2.220   4.940  14.553 -1.5159  0.0597  0.3710
10294TIP3   OH252372   0.055   4.900  12.940  0.0315 -0.5928 -0.4895
10294TIP3    H152373   0.121   4.969  12.940 -0.6342  0.0710  0.8116
10294TIP3    H252374   0.034   4.886  12.848  0.3148  0.8042 -0.7725
10295TIP3   OH252375   3.288   0.609   4.668 -0.4274 -0.0836  0.0805
10295TIP3    H152376   3.365   0.559   4.694 -1.5483 -2.2525 -0.6399
10295TIP3    H252377   3.245   0.554   4.603 -0.2399  3.0563 -2.8445
10296TIP3   OH252378   2.971   5.329  13.926  0.4232  0.7110  0.2340
10296TIP3    H152379   2.914   5.255  13.904 -0.1433  1.3234 -0.3707
10296TIP3    H252380   3.057   5.289  13.941 -0.0526 -0.1614  0.6839
10297TIP3   OH252381   1.738   0.342   1.975  0.1504 -0.5298 -0.1393
10297TIP3    H152382   1.814   0.355   2.033 -0.1029 -0.0732  0.0996
10297TIP3    H252383   1.686   0.421   1.988  0.1657 -0.3600 -1.1154
10298TIP3   OH252384   4.912   6.794   2.713  0.3378 -0.0142  0.3165
10298TIP3    H152385   4.935   6.886   2.705  1.5391 -0.2879  0.5400
10298TIP3    H252386   4.826   6.794   2.754 -1.0687  1.1015 -2.4838
10299TIP3   OH252387   4.268   2.097  15.468 -0.7282  0.1072 -0.0871
10299TIP3    H152388   4.183   2.123  15.433 -0.6138  0.4393 -0.1269
10299TIP3    H252389   4.279   2.152  15.547  0.8611  2.4258 -1.8390
10300TIP3   OH252390   1.528   5.289   3.355 -0.1735  0.2265 -0.3935
10300TIP3    H152391   1.433   5.280   3.362 -0.1976 -0.6620 -1.6004
10300TIP3    H252392   1.563   5.204   3.381  0.2982  0.5556  0.0714
10301TIP3   OH252393   1.726   1.900   1.993  0.3194  0.5123  0.0608
10301TIP3    H152394   1.706   1.961   2.064 -0.3424  0.5094 -0.1202
10301TIP3    H252395   1.682   1.818   2.018 -2.2596  1.2939 -1.6561
10302TIP3   OH252396   5.478   3.893   3.504  0.1574  0.3052  0.3250
10302TIP3    H152397   5.448   3.804   3.487 -0.1509  0.5922 -0.6066
10302TIP3    H252398   5.401   3.940   3.537  0.9070 -0.4384  3.3040
10303TIP3   OH252399   4.005   2.745  14.540  0.1585  0.0862 -0.0228
10303TIP3    H152400   4.040   2.740  14.629  0.4094  0.6827 -0.0808
10303TIP3    H252401   4.079   2.726  14.483  0.0597 -0.0419 -0.1069
10304TIP3   OH252402   1.423   2.208   0.084  0.3731 -0.3461  0.0349
10304TIP3    H152403   1.495   2.238   0.028  0.6424 -0.4061  0.3517
10304TIP3    H252404   1.449   2.233   0.172 -0.4993  0.6022  0.0244
10305TIP3   OH252405   2.007   1.985   5.019  0.7163 -0.2479  0.1525
10305TIP3    H152406   1.948   2.060   5.010  0.6507 -0.2871  0.2584
10305TIP3    H252407   1.977   1.939   5.097  1.2974  0.1004  0.5814
10306TIP3   OH252408   0.460   3.424   4.231  0.5620 -0.3792 -0.2303
10306TIP3    H152409   0.399   3.350   4.237  0.5650 -0.2596  1.8037
10306TIP3    H252410   0.494   3.420   4.142 -1.9529 -0.8080 -1.2041
10307TIP3   OH252411   2.729   3.659  12.035 -0.0062  0.1904  0.4799
10307TIP3    H152412   2.818   3.694  12.038  0.4907 -1.0248  0.4836
10307TIP3    H252413   2.681   3.709  12.101  0.4073  1.5565 -0.2528
10308TIP3   OH252414   1.902   2.226   6.278  0.2233  0.4311 -0.2550
10308TIP3    H152415   1.811   2.202   6.294  0.2008  1.6621  1.7656
10308TIP3    H252416   1.947   2.203   6.360  1.9276 -0.9841 -1.5329
10309TIP3   OH252417   4.875   0.408   1.633 -0.1560  0.5253  0.8231
10309TIP3    H152418   4.783   0.422   1.655 -0.5545 -0.1180 -0.3701
10309TIP3    H252419   4.901   0.332   1.686 -0.6550 -0.0290  0.2815
10310TIP3   OH252420   2.270   1.149   1.858  0.5941  0.1709  0.1225
10310TIP3    H152421   2.262   1.241   1.832  3.1188 -0.6178 -3.8894
10310TIP3    H252422   2.233   1.100   1.784  0.1537 -2.0936  1.7794
10311TIP3   OH252423   4.394   2.303  17.216 -0.3791  0.2588  0.0621
10311TIP3    H152424   4.485   2.329  17.230  0.0602  0.5211 -2.8945
10311TIP3    H252425   4.359   2.370  17.157 -2.1825 -0.4162  0.3369
10312TIP3   OH252426   5.183   5.830  11.888  0.4248 -0.7588 -0.2517
10312TIP3    H152427   5.104   5.835  11.833 -0.3433 -2.0475  0.7083
10312TIP3    H252428   5.206   5.921  11.906  0.4655 -0.3124 -2.3835
10313TIP3   OH252429   3.986   4.226   3.995 -0.0388 -0.1730 -0.0970
10313TIP3    H152430   3.999   4.131   3.988  1.1523  0.2317 -4.0590
10313TIP3    H252431   4.013   4.261   3.911 -3.0016  3.4669  0.3211
10314TIP3   OH252432   1.327   1.922   5.041 -0.4484 -0.5888 -0.3237
10314TIP3    H152433   1.393   1.935   5.109 -0.3726 -1.1891 -0.2787
10314TIP3    H252434   1.376   1.930   4.959 -0.6845  0.9236 -0.3295
10315TIP3   OH252435   6.047   3.900  16.313  0.0505 -0.1032 -0.2265
10315TIP3    H152436   6.037   3.993  16.335  3.2125  0.0129  1.0263
10315TIP3    H252437   6.141   3.884  16.318 -0.5051 -3.6278  0.6137
10316TIP3   OH252438   3.105   0.674   1.749 -0.0533 -0.4425  0.2350
10316TIP3    H152439   3.063   0.614   1.810 -0.9386 -0.7996 -0.7113
10316TIP3    H252440   3.150   0.617   1.687 -2.0564 -0.2099 -1.5006
10317TIP3   OH252441   5.376   2.051   5.548 -0.9363  0.5935 -0.5588
10317TIP3    H152442   5.441   2.051   5.618 -0.9284 -0.4468 -0.5546
10317TIP3    H252443   5.326   2.132   5.561 -2.5282 -0.7769  2.1374
10318TIP3   OH252444   1.941   0.076   4.873 -0.4060  0.4623  0.7680
10318TIP3    H152445   1.882   0.063   4.948 -0.8514  0.8102  0.4809
10318TIP3    H252446   1.884   0.110   4.804 -0.4831 -2.0759 -0.4940
10319TIP3   OH252447   2.236   3.521  13.944 -0.3827  0.1174  0.1136
10319TIP3    H152448   2.291   3.500  13.869 -1.4735  1.3388 -1.0428
10319TIP3    H252449   2.279   3.595  13.986 -0.2729  0.0241  0.1666
10320TIP3   OH252450   3.706   1.037  15.138 -0.7830 -0.5477 -0.1964
10320TIP3    H152451   3.647   0.963  15.125 -2.4047  0.5991  0.4930
10320TIP3    H252452   3.684   1.071  15.225  3.1335 -2.0483  1.5253
10321TIP3   OH252453   4.414   5.822   1.640  0.5492 -0.3432 -0.9642
10321TIP3    H152454   4.411   5.846   1.547 -1.7837 -2.5896 -1.5394
10321TIP3    H252455   4.322   5.815   1.666  1.1633  0.2134  1.5228
10322TIP3   OH252456   3.391   3.083   2.798 -0.2830 -0.1389  0.0773
10322TIP3    H152457   3.477   3.049   2.772  0.2712  0.6590  0.8436
10322TIP3    H252458   3.335   3.006   2.800 -0.0799 -0.3868 -2.3708
10323TIP3   OH252459   1.227   1.114  15.903  0.7089 -0.3689 -0.2745
10323TIP3    H152460   1.277   1.169  15.842  0.1777  1.1015  0.5719
10323TIP3    H252461   1.293   1.077  15.961  0.9478  0.5697  0.0649
10324TIP3   OH252462   0.160   1.599  11.645  0.0529 -0.2136  0.2666
10324TIP3    H152463   0.167   1.533  11.714  0.6329 -0.4442 -0.0055
10324TIP3    H252464   0.070   1.591  11.613  0.4132 -1.5928 -0.4569
10325TIP3   OH252465   6.575   0.871   5.254 -0.5369 -0.2804  0.0733
10325TIP3    H152466   6.491   0.916   5.246 -0.8650 -0.8957  0.0822
10325TIP3    H252467   6.567   0.819   5.334 -0.0431 -0.1276  0.2283
10326TIP3   OH252468   6.288   2.473  16.256 -0.0945 -0.0684  0.5922
10326TIP3    H152469   6.269   2.417  16.331  1.8675 -0.0105  1.1359
10326TIP3    H252470   6.293   2.412  16.182  0.8035 -0.4702  0.9789
10327TIP3   OH252471   2.521   5.151  10.980  0.0567  0.5577  0.2728
10327TIP3    H152472   2.565   5.222  10.933  2.4150 -2.0735 -1.6790
10327TIP3    H252473   2.449   5.125  10.923  1.4580 -1.0477 -0.7881
10328TIP3   OH252474   4.533   4.768  15.390  0.3466 -0.2439  0.1845
10328TIP3    H152475   4.557   4.854  15.425  1.4386 -0.3123 -0.4011
10328TIP3    H252476   4.505   4.718  15.467  0.1682  0.4715  0.5892
10329TIP3   OH252477   6.214   1.460   0.402 -0.1769  0.2419 -0.1597
10329TIP3    H152478   6.201   1.369   0.427  0.2794 -0.0279 -0.8806
10329TIP3    H252479   6.239   1.456   0.309  0.9893  1.0096  0.1068
10330TIP3   OH252480   5.673   5.761  12.101  0.2408  0.3145 -0.3645
10330TIP3    H152481   5.580   5.745  12.084  0.0633 -0.7524  1.5403
10330TIP3    H252482   5.716   5.680  12.074  0.6982  0.9866 -1.7071
10331TIP3   OH252483   2.892   3.180   4.614 -0.2595  0.0119  0.2360
10331TIP3    H152484   2.975   3.199   4.570 -0.6984 -0.7397 -0.9495
10331TIP3    H252485   2.894   3.086   4.630 -0.6811  0.0704  0.6355
10332TIP3   OH252486   4.355   1.718  13.469  0.7763  0.0809 -0.1191
10332TIP3    H152487   4.279   1.751  13.517  2.0709  3.3166 -0.1605
10332TIP3    H252488   4.393   1.652  13.526 -0.6886  0.1351  0.9599
10333TIP3   OH252489   5.571   0.817  12.236 -0.0955 -0.2035  0.0518
10333TIP3    H152490   5.495   0.769  12.202  0.2832 -0.4723 -0.4306
10333TIP3    H252491   5.608   0.760  12.303  0.7934 -0.9404 -1.0396
10334TIP3   OH252492   6.280   6.520  12.956 -0.7304 -0.7243  0.8470
10334TIP3    H152493   6.268   6.551  13.046 -1.2747 -0.0877  0.5570
10334TIP3    H252494   6.329   6.590  12.913 -3.3812  0.5128 -0.2553
10335TIP3   OH252495   4.672   2.642   3.924  0.2906 -0.5188  0.3273
10335TIP3    H152496   4.735   2.686   3.867  1.0024 -0.5302  1.1044
10335TIP3    H252497   4.691   2.549   3.913 -0.6591 -0.6070 -0.6685
10336TIP3   OH252498   3.882   5.613   6.571  0.1909  0.1786  0.0957
10336TIP3    H152499   3.810   5.578   6.624  0.0887  1.1663  0.6194
10336TIP3    H252500   3.953   5.550   6.584 -0.0309  0.0927  0.9379
10337TIP3   OH252501   3.523   4.856   4.940  0.5057 -0.7118 -0.1959
10337TIP3    H152502   3.566   4.937   4.967 -2.4494  1.1224 -0.6873
10337TIP3    H252503   3.500   4.812   5.023  1.4053 -0.6628  0.0816
10338TIP3   OH252504   2.014   5.504   3.297 -0.0508  0.1467 -0.3435
10338TIP3    H152505   2.064   5.423   3.300 -2.1167 -1.1030  0.9165
10338TIP3    H252506   1.923   5.477   3.301 -0.7771  2.5425  0.4091
10339TIP3   OH252507   3.265   6.362  15.730  0.3365  0.4366 -0.1809
10339TIP3    H152508   3.227   6.276  15.710 -1.9999  1.5330 -0.5151
10339TIP3    H252509   3.335   6.372  15.665  0.7862 -1.3003  0.0053
10340TIP3   OH252510   5.539   5.917   0.914  0.0838 -0.1924  0.1618
10340TIP3    H152511   5.483   5.859   0.863  1.0631  0.6643 -1.9496
10340TIP3    H252512   5.502   6.004   0.900  1.3061  0.2436 -0.4005
10341TIP3   OH252513   4.549   2.391  10.304 -0.2365 -0.0985  0.5845
10341TIP3    H152514   4.641   2.384  10.279  0.0984 -2.5919  2.2845
10341TIP3    H252515   4.546   2.465  10.364  0.3202  1.0462 -0.7487
10342TIP3   OH252516   4.014   2.193   5.376 -0.3651 -0.2592 -0.0836
10342TIP3    H152517   4.015   2.120   5.313  0.2363  0.5599 -1.0377
10342TIP3    H252518   4.004   2.150   5.461 -0.7646 -1.4139 -0.6961
10343TIP3   OH252519   4.909   0.992   2.563  0.6160 -0.5828 -0.1119
10343TIP3    H152520   4.856   0.931   2.615  2.0788 -3.5701 -1.9856
10343TIP3    H252521   4.845   1.049   2.522 -0.7676 -0.4444  2.1297
10344TIP3   OH252522   5.300   5.427  14.561 -0.3178 -0.1936  0.4258
10344TIP3    H152523   5.208   5.455  14.568  0.0933  1.1288  0.5743
10344TIP3    H252524   5.350   5.508  14.565  0.8340 -0.8638 -0.2958
10345TIP3   OH252525   2.720   3.090  12.261 -0.0535 -0.4424  0.1115
10345TIP3    H152526   2.804   3.082  12.215  1.3362 -1.4925  2.7539
10345TIP3    H252527   2.677   3.006  12.247 -0.1780 -0.3126 -0.2964
10346TIP3   OH252528   4.182   0.347   2.204 -0.4981 -0.0201 -0.1296
10346TIP3    H152529   4.249   0.375   2.142 -0.3017  0.1539  0.1641
10346TIP3    H252530   4.131   0.426   2.222  1.3761  0.6685  2.3690
10347TIP3   OH252531   0.500   4.895  10.853  0.1482  0.1848  0.2979
10347TIP3    H152532   0.530   4.818  10.804 -2.5888 -0.9874  0.3092
10347TIP3    H252533   0.527   4.969  10.800  1.2370 -0.8804 -0.6723
10348TIP3   OH252534   0.927   6.222   5.587  0.0077 -0.7173 -0.2293
10348TIP3    H152535   0.847   6.238   5.537 -0.2117 -0.7442  0.1146
10348TIP3    H252536   0.943   6.304   5.634  0.9784 -0.2193 -1.4178
10349TIP3   OH252537   1.396   2.942  15.322  0.3535 -0.0221  0.5585
10349TIP3    H152538   1.375   2.924  15.230  1.9633  0.7205  0.0276
10349TIP3    H252539   1.386   3.037  15.331  0.8787  0.0016  0.9557
10350TIP3   OH252540   5.180   1.133   0.655 -0.3627 -0.1988  0.2653
10350TIP3    H152541   5.140   1.048   0.639 -0.9214 -0.0483  0.8466
10350TIP3    H252542   5.249   1.140   0.588 -1.5268 -0.3030 -0.9608
10351TIP3   OH252543   0.017   6.402   2.035  0.2410 -0.8867  0.4222
10351TIP3    H152544   0.072   6.421   2.111 -2.1167 -0.8479  2.1683
10351TIP3    H252545   0.015   6.483   1.986  1.1429 -0.6746  0.7205
10352TIP3   OH252546   6.701   2.311  12.896  0.1936  0.2989 -0.5165
10352TIP3    H152547   6.769   2.314  12.964  1.5212 -1.1897 -1.7224
10352TIP3    H252548   6.703   2.398  12.856  3.0440 -0.3957 -2.0551
10353TIP3   OH252549   5.855   4.105  13.240 -0.1465 -0.2485 -0.2781
10353TIP3    H152550   5.877   4.196  13.219 -1.6183  0.0191 -0.7503
10353TIP3    H252551   5.939   4.065  13.262  0.2945  1.6962  1.8065
10354TIP3   OH252552   2.737   4.225  12.356  0.1807  0.3537 -0.1561
10354TIP3    H152553   2.754   4.261  12.443  0.2730  0.2295 -0.1232
10354TIP3    H252554   2.662   4.167  12.367  0.3302  0.1684 -0.1164
10355TIP3   OH252555   4.289   5.641   5.114 -0.2751 -0.0584 -0.0302
10355TIP3    H152556   4.369   5.664   5.067 -0.2612 -0.5541 -0.2638
10355TIP3    H252557   4.226   5.621   5.044  0.0808 -1.9251  0.1500
10356TIP3   OH252558   0.873   5.177   1.362 -0.4858 -0.0480 -0.1428
10356TIP3    H152559   0.904   5.266   1.376 -0.7489 -0.0388  0.4202
10356TIP3    H252560   0.910   5.127   1.435 -0.8621 -0.2643 -0.0959
10357TIP3   OH252561   2.095   5.291   2.671  0.2123  0.4165 -0.3413
10357TIP3    H152562   2.093   5.223   2.738 -2.7947  0.3563 -0.4285
10357TIP3    H252563   2.140   5.250   2.596  0.1516 -0.8167  0.2861
10358TIP3   OH252564   4.048   4.530  11.212  0.3928  0.8593  1.1039
10358TIP3    H152565   4.069   4.437  11.201  0.5550  0.8232  1.6957
10358TIP3    H252566   4.124   4.567  11.257 -0.1488  1.0417  1.8907
10359TIP3   OH252567   5.205   2.436   0.538 -0.2822 -0.0438  0.2558
10359TIP3    H152568   5.296   2.437   0.509 -0.1212  0.9553  0.8128
10359TIP3    H252569   5.168   2.358   0.495  1.3464 -1.6318  1.6273
10360TIP3   OH252570   3.803   4.700  14.069 -0.5472  0.2365  0.0933
10360TIP3    H152571   3.812   4.794  14.083  0.3435  0.3341 -1.0816
10360TIP3    H252572   3.709   4.683  14.079 -0.5880  1.0681  1.3042
10361TIP3   OH252573   4.134   3.887   2.557 -0.6161 -0.4778 -0.1103
10361TIP3    H152574   4.040   3.906   2.560 -0.6205 -0.8379  3.1226
10361TIP3    H252575   4.150   3.832   2.634  2.1676 -0.8260 -0.8950
10362TIP3   OH252576   4.393   0.395   5.090 -0.0179 -0.1288  0.0827
10362TIP3    H152577   4.422   0.446   5.166 -0.8922  0.8879 -0.2425
10362TIP3    H252578   4.468   0.394   5.031  0.2055  0.3000  0.3541
10363TIP3   OH252579   0.131   4.253   4.661  0.2051  0.1870  0.3562
10363TIP3    H152580   0.210   4.305   4.646  1.3105 -1.0485  1.6839
10363TIP3    H252581   0.102   4.278   4.749 -0.5270  0.1600  0.1280
10364TIP3   OH252582   4.724   2.998   0.713  0.3230  0.0587  0.2334
10364TIP3    H152583   4.686   3.031   0.632  0.7188  1.5082  0.6138
10364TIP3    H252584   4.710   2.904   0.710 -0.8653  0.2567 -0.8899
10365TIP3   OH252585   4.583   1.788   4.752  0.5065 -0.1883 -0.0601
10365TIP3    H152586   4.604   1.743   4.670  1.8061 -0.0545  0.1801
10365TIP3    H252587   4.511   1.738   4.790 -0.4391  0.0312 -1.5093
10366TIP3   OH252588   4.290   3.359   2.504 -0.3096  0.2330  0.0398
10366TIP3    H152589   4.322   3.346   2.415 -2.1433 -2.7080 -0.2584
10366TIP3    H252590   4.231   3.435   2.497 -0.2255  0.1921 -1.2059
10367TIP3   OH252591   6.048   4.031  12.332  0.0319  0.1678 -0.8175
10367TIP3    H152592   6.039   3.952  12.279 -0.1481 -0.6875  0.4540
10367TIP3    H252593   6.070   4.100  12.270  0.5414 -0.9550 -1.9007
10368TIP3   OH252594   5.640   6.195   2.081 -0.0320 -0.2469 -0.2612
10368TIP3    H152595   5.719   6.237   2.116 -0.2298 -0.4751  0.4878
10368TIP3    H252596   5.576   6.266   2.076 -1.4692 -1.0171  4.3479
10369TIP3   OH252597   2.144   0.061   5.323 -0.2842  0.2734 -0.0027
10369TIP3    H152598   2.174  -0.011   5.380  0.1458 -0.2920 -0.9305
10369TIP3    H252599   2.050   0.069   5.342 -0.2136 -0.1438  0.5312
10370TIP3   OH252600   3.751   3.460   3.338  0.2502 -0.8119  0.2220
10370TIP3    H152601   3.767   3.554   3.348 -1.3522 -0.2571 -2.1284
10370TIP3    H252602   3.710   3.434   3.421  0.9654  0.4682  1.0061
10371TIP3   OH252603   5.064   2.060  14.023  0.5389 -0.2668 -0.1448
10371TIP3    H152604   5.083   2.110  14.102  0.1858 -0.5586  0.1264
10371TIP3    H252605   5.001   1.994  14.051 -1.1008  0.8622 -1.0984
10372TIP3   OH252606   6.762   4.433   1.719  0.5745  0.6922  0.2658
10372TIP3    H152607   6.734   4.450   1.809  0.7838  0.5633  0.3551
10372TIP3    H252608   6.858   4.426   1.724  0.5457  0.1951  0.1132
10373TIP3   OH252609   0.497   6.008   3.056  0.1963 -0.5860 -0.1647
10373TIP3    H152610   0.554   6.066   3.105 -1.9625  0.9800  0.5725
10373TIP3    H252611   0.410   6.020   3.095 -0.5956 -3.2202 -0.9492
10374TIP3   OH252612   3.202   1.423  14.420  0.7377 -0.0737 -0.4281
10374TIP3    H152613   3.202   1.334  14.385  2.2587 -0.2168 -0.0986
10374TIP3    H252614   3.270   1.423  14.487  0.2863  1.1579  0.0498
10375TIP3   OH252615   3.668   4.294   4.085  0.4268  0.3517  0.0798
10375TIP3    H152616   3.649   4.242   4.007 -1.5853 -0.1744  0.8987
10375TIP3    H252617   3.746   4.254   4.123 -0.1962 -1.1016 -0.1581
10376TIP3   OH252618   3.201   5.214  15.095 -0.3909  0.5587  0.3737
10376TIP3    H152619   3.252   5.255  15.026  0.9904 -0.8468  0.5267
10376TIP3    H252620   3.148   5.285  15.131 -0.7504  1.4108 -1.7703
10377TIP3   OH252621   5.019   5.222   0.054  0.6264  0.3246 -0.7451
10377TIP3    H152622   5.072   5.232  -0.025 -0.1580  1.4807 -1.1401
10377TIP3    H252623   4.946   5.283   0.042  1.0070  1.2211  1.2878
10378TIP3   OH252624   5.996   4.589  16.367 -0.0059 -0.5860 -0.1977
10378TIP3    H152625   5.930   4.535  16.412 -0.2226  1.0685  1.5035
10378TIP3    H252626   6.061   4.526  16.337 -1.1508 -1.9974  0.2163
10379TIP3   OH252627   2.648   5.338   4.402  0.0207 -0.0296 -0.1892
10379TIP3    H152628   2.652   5.433   4.386  2.2196 -0.1177 -0.2550
10379TIP3    H252629   2.608   5.330   4.489  3.6054  1.1743  1.6645
10380TIP3   OH252630   3.849   6.384   2.400  0.2047  0.2005 -0.0539
10380TIP3    H152631   3.845   6.478   2.417 -0.7391  0.3067 -0.7933
10380TIP3    H252632   3.885   6.377   2.312 -0.8487 -0.0679 -0.4771
10381TIP3   OH252633   1.201   0.046  15.391 -0.1058  0.3616  0.6613
10381TIP3    H152634   1.266  -0.003  15.441  0.9270  0.5929 -0.4268
10381TIP3    H252635   1.237   0.049  15.302 -1.7241  0.2777 -0.0130
10382TIP3   OH252636   1.412   2.156  16.994  0.1463  0.3542  0.4837
10382TIP3    H152637   1.427   2.062  17.000 -0.1918  0.2693  0.0393
10382TIP3    H252638   1.322   2.168  17.025 -0.2784  0.3625 -0.6880
10383TIP3   OH252639   2.435   2.671  13.345  0.1866 -0.5847 -0.2861
10383TIP3    H152640   2.352   2.634  13.315  0.4529 -0.9291 -0.6136
10383TIP3    H252641   2.477   2.599  13.392 -0.7179  0.2746  1.9084
10384TIP3   OH252642   2.377   0.666  14.744 -0.0929  0.8197  0.3611
10384TIP3    H152643   2.326   0.597  14.787 -0.4227  0.8870  0.0752
10384TIP3    H252644   2.464   0.658  14.783 -0.0718  0.1028  0.1817
10385TIP3   OH252645   2.612   6.376   2.331 -0.4488  0.5950 -0.1897
10385TIP3    H152646   2.517   6.388   2.336 -0.4898 -0.0894  0.9891
10385TIP3    H252647   2.645   6.458   2.294 -1.6970 -0.0337 -2.8005
10386TIP3   OH252648   3.332   1.048  12.512 -0.4269 -0.1440  0.0172
10386TIP3    H152649   3.325   1.107  12.587 -0.3615 -0.1316  0.0138
10386TIP3    H252650   3.380   0.972  12.545  0.4593  0.2855 -0.2602
10387TIP3   OH252651   4.801   4.396   0.044  0.6134  0.8283  0.0088
10387TIP3    H152652   4.840   4.371  -0.040 -0.0331 -1.4186  0.3340
10387TIP3    H252653   4.876   4.410   0.102  1.0413  1.0202 -0.5889
10388TIP3   OH252654   1.726   2.188   2.708 -0.0014 -0.1731  0.4790
10388TIP3    H152655   1.642   2.163   2.669  0.3401 -0.7673  0.1248
10388TIP3    H252656   1.744   2.119   2.771  0.1061  0.0824  0.7271
10389TIP3   OH252657   2.055   0.813  15.457 -0.6397  0.3886  0.3047
10389TIP3    H152658   2.130   0.797  15.401 -0.3618 -0.3973  0.8860
10389TIP3    H252659   1.989   0.850  15.399 -0.3468 -0.3863 -0.5425
10390TIP3   OH252660   1.658   4.073   2.144 -0.0335 -0.0626  0.0735
10390TIP3    H152661   1.657   4.004   2.210  0.5435 -0.5274 -0.3936
10390TIP3    H252662   1.730   4.130   2.171 -1.2929  1.0538  1.1501
10391TIP3   OH252663   2.912   1.445   4.929 -0.1604  0.3200 -0.0433
10391TIP3    H152664   2.828   1.429   4.885  0.5667 -1.6966 -0.7670
10391TIP3    H252665   2.910   1.387   5.005  0.9183 -0.3768 -0.5359
10392TIP3   OH252666   6.200   3.957  15.010 -0.7916  0.3599  0.4667
10392TIP3    H152667   6.218   3.888  14.946 -1.4825  0.6202 -0.0121
10392TIP3    H252668   6.235   3.923  15.092  0.8406  0.3763 -0.2073
10393TIP3   OH252669   1.323   6.310  16.533  0.3395  0.1577 -0.2307
10393TIP3    H152670   1.368   6.239  16.487 -2.1136 -1.3381 -0.4274
10393TIP3    H252671   1.355   6.305  16.623  1.4549 -0.1144 -0.6394
10394TIP3   OH252672   4.647   5.931  16.024 -0.4483 -0.2661 -0.8162
10394TIP3    H152673   4.703   5.858  15.997  0.5994  0.3377 -0.3306
10394TIP3    H252674   4.679   6.005  15.972 -1.0045  0.0127 -0.7615
10395TIP3   OH252675   3.761   0.880   1.888  0.0245 -0.1336  0.1212
10395TIP3    H152676   3.709   0.948   1.845 -0.6393 -0.1505  0.8669
10395TIP3    H252677   3.809   0.927   1.957  1.0791 -0.1034 -0.6327
10396TIP3   OH252678   4.699   5.441   3.498 -0.1814  0.3600 -0.0902
10396TIP3    H152679   4.650   5.444   3.416  0.0990 -0.6443 -0.3025
10396TIP3    H252680   4.640   5.398   3.560 -0.2801  0.8456  0.1488
10397TIP3   OH252681   3.806   5.659   2.695 -0.2767  0.3576  0.1089
10397TIP3    H152682   3.779   5.722   2.628  0.7254  1.7484  0.9763
10397TIP3    H252683   3.797   5.707   2.777  1.2372 -0.3785  0.7193
10398TIP3   OH252684   6.309   3.320  11.745  0.4109  0.2569 -0.1414
10398TIP3    H152685   6.274   3.343  11.831 -0.3743 -0.8459 -0.1507
10398TIP3    H252686   6.337   3.229  11.755 -0.0330  0.0084 -1.1560
10399TIP3   OH252687   1.320   2.595   2.892 -0.2641 -0.5324  0.1835
10399TIP3    H152688   1.387   2.629   2.833  1.0529 -2.2393  0.6492
10399TIP3    H252689   1.362   2.520   2.935 -2.1203 -0.9842  1.2567
10400TIP3   OH252690   3.569   4.913  15.120 -0.9182 -0.0950 -0.3595
10400TIP3    H152691   3.616   4.946  15.196 -0.0433 -0.8739 -0.5399
10400TIP3    H252692   3.627   4.844  15.085 -2.7361 -1.9099  0.1157
10401TIP3   OH252693   0.725   4.474   1.904 -0.0739 -0.2980 -0.4767
10401TIP3    H152694   0.737   4.380   1.896  0.0558 -0.7496  3.9525
10401TIP3    H252695   0.812   4.511   1.888 -0.1756 -0.8563 -2.4536
10402TIP3   OH252696   2.371   5.371   2.323  0.1455 -0.6240  0.1236
10402TIP3    H152697   2.448   5.331   2.282 -0.3456 -0.8942 -0.5423
10402TIP3    H252698   2.320   5.297   2.356 -0.3286 -0.4961 -0.3265
10403TIP3   OH252699   3.761   5.222   4.603 -0.1934  0.3950 -0.2822
10403TIP3    H152700   3.779   5.133   4.573 -0.3440  1.0058 -2.2910
10403TIP3    H252701   3.845   5.267   4.598 -0.5079  0.9042 -1.3133
10404TIP3   OH252702   2.954   4.495  11.766  0.4677 -0.4022 -0.3723
10404TIP3    H152703   2.955   4.399  11.758 -0.4834 -0.4354 -0.0673
10404TIP3    H252704   2.891   4.524  11.700  0.1405 -0.0392  0.0967
10405TIP3   OH252705   0.588   1.854   0.762 -0.2520  0.0021  0.1253
10405TIP3    H152706   0.600   1.864   0.668 -1.3272  0.1931  0.0031
10405TIP3    H252707   0.493   1.846   0.774 -0.0593 -0.9976  1.0961
10406TIP3   OH252708   5.906   6.083   0.567 -0.3705  0.0841  0.5181
10406TIP3    H152709   5.963   6.151   0.601 -0.2915  0.1606  0.2354
10406TIP3    H252710   5.904   6.016   0.636 -0.0801  0.1614  0.6005
10407TIP3   OH252711   4.069   4.268  15.196 -0.0088  0.2741 -1.2064
10407TIP3    H152712   4.062   4.362  15.180 -1.7563  0.5184  0.6952
10407TIP3    H252713   3.986   4.233  15.164 -1.0412 -0.0253  1.5970
10408TIP3   OH252714   6.254   5.156   6.037  0.6204  0.1044 -0.1620
10408TIP3    H152715   6.330   5.150   6.095  1.8708  0.2725 -1.7283
10408TIP3    H252716   6.249   5.071   5.994 -0.2438  0.0069  0.1148
10409TIP3   OH252717   3.595   5.528  14.440  0.1101 -0.1111  0.3639
10409TIP3    H152718   3.579   5.607  14.389  2.8399  0.5410  0.4498
10409TIP3    H252719   3.526   5.467  14.411 -0.9382  1.6607 -0.9977
10410TIP3   OH252720   0.955   4.427   0.424  0.2988  0.0312  0.0092
10410TIP3    H152721   0.889   4.358   0.433  3.1044 -2.7780  0.1223
10410TIP3    H252722   0.968   4.436   0.330  0.0717  0.2302 -0.0012
10411TIP3   OH252723   3.615   3.944  15.039 -0.0061 -0.4439 -0.1716
10411TIP3    H152724   3.581   4.033  15.044  2.2277  0.4843 -1.0548
10411TIP3    H252725   3.646   3.924  15.127 -0.2198 -0.2235 -0.0477
10412TIP3   OH252726   6.774   0.184   5.886 -0.2292 -0.1334 -0.2396
10412TIP3    H152727   6.691   0.193   5.934 -0.3913 -1.7095 -0.2151
10412TIP3    H252728   6.842   0.197   5.953 -0.4591  0.0954 -0.0524
10413TIP3   OH252729   2.275   4.546   4.750  0.7146 -0.4344 -0.0593
10413TIP3    H152730   2.347   4.600   4.785  0.1492 -0.4295  1.1415
10413TIP3    H252731   2.310   4.457   4.749  1.4186 -0.1589 -1.3986
10414TIP3   OH252732   5.161   5.204  15.173  0.2684 -0.6168  0.2202
10414TIP3    H152733   5.182   5.250  15.091  2.5620  0.3432  1.2998
10414TIP3    H252734   5.224   5.132  15.176 -1.0928 -1.8285  0.2125
10415TIP3   OH252735   0.963   4.105  13.198 -0.4427  0.5409 -0.0014
10415TIP3    H152736   0.886   4.100  13.256 -0.4541 -1.5158 -0.1515
10415TIP3    H252737   0.937   4.057  13.120  0.7450  0.4838 -0.3631
10416TIP3   OH252738   5.227   5.394   1.493  0.0792  0.3719  0.5674
10416TIP3    H152739   5.174   5.348   1.559 -1.7414  0.9558 -0.4370
10416TIP3    H252740   5.184   5.375   1.410  1.6453  0.6372 -0.3249
10417TIP3   OH252741   1.500   1.327  13.246 -0.6130 -0.2701  0.6886
10417TIP3    H152742   1.450   1.285  13.317  0.7784 -1.9210  0.7211
10417TIP3    H252743   1.458   1.297  13.166 -0.6035 -0.4692  0.7566
10418TIP3   OH252744   6.433   4.986  17.270  0.2601  0.8281 -0.0659
10418TIP3    H152745   6.431   5.082  17.269 -0.1309  0.8476  2.0954
10418TIP3    H252746   6.343   4.960  17.250  0.2789  0.9003 -0.2506
10419TIP3   OH252747   0.212   0.582  13.277 -0.1868 -0.2068 -0.1419
10419TIP3    H152748   0.201   0.677  13.277 -0.7913 -0.2702 -0.9059
10419TIP3    H252749   0.127   0.549  13.249  0.6623 -0.8877 -1.9799
10420TIP3   OH252750   4.855   0.831  12.560 -0.2395  0.1421 -0.0814
10420TIP3    H152751   4.889   0.920  12.553 -0.3875  0.4153  2.2896
10420TIP3    H252752   4.924   0.783  12.605 -1.2133 -0.3058  0.9616
10421TIP3   OH252753   6.027   6.731  12.961 -0.0151 -0.2319  0.0202
10421TIP3    H152754   6.023   6.652  12.907 -0.7438 -2.0821  2.6940
10421TIP3    H252755   5.989   6.705  13.045 -1.4746  3.3078  0.5686
10422TIP3   OH252756   0.914   1.348   6.179  0.0618  0.9666  0.4704
10422TIP3    H152757   0.939   1.256   6.166  0.5140  1.1007  0.4082
10422TIP3    H252758   0.820   1.344   6.198 -0.0154  0.5313  0.0050
10423TIP3   OH252759   0.772   0.024   5.251 -0.2286  0.0421  0.2772
10423TIP3    H152760   0.845  -0.017   5.205 -1.3060  0.0318 -1.4785
10423TIP3    H252761   0.804   0.110   5.276 -0.3260  0.9541 -2.5433
10424TIP3   OH252762   0.571   4.219  11.967 -0.9004 -0.1338  0.0043
10424TIP3    H152763   0.506   4.161  12.008 -1.0791 -0.2585 -0.4502
10424TIP3    H252764   0.655   4.181  11.991 -1.0336 -1.6346 -1.7949
10425TIP3   OH252765   5.107   0.470  11.431 -0.5988  0.4573 -0.2393
10425TIP3    H152766   5.071   0.492  11.517 -0.4096 -1.0571  0.2479
10425TIP3    H252767   5.036   0.491  11.370 -1.7361 -0.9309  0.5539
10426TIP3   OH252768   0.586   1.103   6.556  0.1625 -0.0874 -0.2750
10426TIP3    H152769   0.665   1.155   6.573 -0.6596  1.0965 -0.0157
10426TIP3    H252770   0.552   1.138   6.474 -0.3186 -0.3276 -0.1773
10427TIP3   OH252771   4.976   3.779  11.309 -0.5748  0.2579 -0.1472
10427TIP3    H152772   5.037   3.828  11.364 -0.7530  0.4998 -0.1663
10427TIP3    H252773   4.918   3.735  11.371 -1.0868  0.9279 -0.1505
10428TIP3   OH252774   0.903   3.268   6.057  1.1017 -0.7635 -0.3233
10428TIP3    H152775   0.998   3.262   6.067  1.1179  0.9457  0.9171
10428TIP3    H252776   0.883   3.358   6.083 -0.8773 -1.1605 -0.4471
10429TIP3   OH252777   1.438   0.437   6.748 -0.0638  0.1113  0.0341
10429TIP3    H152778   1.346   0.437   6.775 -0.2599 -1.7675 -0.5276
10429TIP3    H252779   1.446   0.512   6.690 -1.9946 -1.3807 -2.2813
10430TIP3   OH252780   0.978   0.440  16.951  0.2381 -0.2397 -0.3014
10430TIP3    H152781   1.045   0.372  16.953  0.4647 -0.0839 -1.7604
10430TIP3    H252782   0.973   0.472  17.041  0.7808 -1.5408  0.2047
10431TIP3   OH252783   3.712   5.229  15.365  0.2167 -0.0926  0.3275
10431TIP3    H152784   3.676   5.278  15.291  0.4931  0.5327  0.6034
10431TIP3    H252785   3.804   5.213  15.341  0.6556  1.2128  1.0812
10432TIP3   OH252786   0.097   6.046  14.778 -0.2262 -0.5745 -0.0994
10432TIP3    H152787   0.128   6.005  14.697  0.2481 -0.5307  0.0571
10432TIP3    H252788   0.161   6.114  14.797  0.0565 -1.0512  0.6912
10433TIP3   OH252789   2.328   1.627  14.358  0.2127 -1.0443 -0.2731
10433TIP3    H152790   2.380   1.548  14.343  1.3872 -0.4733  0.7061
10433TIP3    H252791   2.380   1.679  14.419 -1.9592 -0.9096  1.5427
10434TIP3   OH252792   4.819   5.249   2.923 -0.5605  0.5539 -0.3098
10434TIP3    H152793   4.817   5.292   3.008  0.8304  1.4898 -0.7251
10434TIP3    H252794   4.798   5.319   2.860 -0.7602  0.0602 -0.7968
10435TIP3   OH252795   6.315   6.527   0.099 -0.1387 -0.1224 -0.1948
10435TIP3    H152796   6.339   6.619   0.100  1.2399 -0.4745  0.7865
10435TIP3    H252797   6.316   6.502   0.007 -0.8674  0.9201 -0.4926
10436TIP3   OH252798   2.491   3.194   5.490  0.2265 -0.1219  0.4605
10436TIP3    H152799   2.562   3.131   5.479  0.1170 -0.1920  0.1360
10436TIP3    H252800   2.417   3.142   5.522 -0.0965 -0.2976 -0.5622
10437TIP3   OH252801   0.857   1.061   0.811 -0.2023 -0.1939 -0.3562
10437TIP3    H152802   0.924   1.051   0.743 -1.9972  0.3112 -2.2678
10437TIP3    H252803   0.904   1.100   0.885  1.7356 -0.3784 -1.4435
10438TIP3   OH252804   0.342   0.546   0.992  0.0097 -0.5138  0.3422
10438TIP3    H152805   0.396   0.481   1.038 -0.1665 -0.9449 -0.0533
10438TIP3    H252806   0.295   0.592   1.062  1.0003 -0.0369  0.7010
10439TIP3   OH252807   3.501   6.307   3.419  0.2516 -0.3655 -0.1379
10439TIP3    H152808   3.500   6.217   3.451  0.9227 -0.0163  0.9029
10439TIP3    H252809   3.573   6.348   3.466 -1.5173  1.3395  1.1536
10440TIP3   OH252810   5.821   5.968  14.685  0.4461  0.0188  0.0863
10440TIP3    H152811   5.746   5.962  14.626 -0.3805 -1.1367  1.2201
10440TIP3    H252812   5.892   6.001  14.631  0.2298 -2.8241 -2.0375
10441TIP3   OH252813   0.328   2.576   5.120 -0.0575  1.0457 -0.0760
10441TIP3    H152814   0.360   2.666   5.122  0.3166  0.9052  0.2994
10441TIP3    H252815   0.247   2.579   5.171 -0.3869  1.2966 -0.6056
10442TIP3   OH252816   3.490   4.233   1.769  0.3630 -0.0173  0.5493
10442TIP3    H152817   3.481   4.163   1.834 -1.5350 -0.1026  0.2039
10442TIP3    H252818   3.403   4.244   1.732  1.2357  0.6281 -1.3984
10443TIP3   OH252819   2.685   4.016  16.561 -0.1922 -0.1471 -0.2347
10443TIP3    H152820   2.650   4.033  16.649 -1.2672 -0.0185 -0.6741
10443TIP3    H252821   2.608   4.019  16.504  0.5807  0.3261 -1.2639
10444TIP3   OH252822   1.729   3.140  13.126 -0.0332  0.7639 -0.3150
10444TIP3    H152823   1.755   3.077  13.059 -2.5135 -1.1337  0.4342
10444TIP3    H252824   1.651   3.182  13.090 -0.6281  0.6503  0.8294
10445TIP3   OH252825   4.204   3.835   0.033  0.1827 -0.2825  0.3725
10445TIP3    H152826   4.197   3.766  -0.033 -0.5363  1.5494 -1.4910
10445TIP3    H252827   4.115   3.870   0.041  0.7016  0.9410  0.7700
10446TIP3   OH252828   5.482   2.458  13.259  0.5610 -0.0590  0.1732
10446TIP3    H152829   5.482   2.374  13.213  2.7553 -0.1427  0.2736
10446TIP3    H252830   5.441   2.440  13.343 -1.0632 -0.4986 -0.6835
10447TIP3   OH252831   6.116   6.287   1.071 -0.3219  0.0069  0.5136
10447TIP3    H152832   6.093   6.356   1.008  1.7887  0.6973  0.4366
10447TIP3    H252833   6.210   6.274   1.058 -0.6893 -2.9151  0.5349
10448TIP3   OH252834   5.935   1.206  15.221  0.9155  0.5198  0.0490
10448TIP3    H152835   5.962   1.165  15.303  1.3079 -1.5150 -1.0740
10448TIP3    H252836   5.863   1.151  15.189  0.0500  1.9077 -0.4597
10449TIP3   OH252837   5.148   2.411  10.370  0.3858 -0.2525 -0.1623
10449TIP3    H152838   5.201   2.457  10.305 -1.3874 -0.9897 -2.2040
10449TIP3    H252839   5.148   2.468  10.447  1.2735  1.3643 -1.3426
10450TIP3   OH252840   6.640   1.081   1.449  0.0871 -0.4134 -0.5195
10450TIP3    H152841   6.657   1.043   1.535  1.6570 -0.1839 -0.7183
10450TIP3    H252842   6.574   1.024   1.410 -0.6137 -0.5322  0.8218
10451TIP3   OH252843   2.143   1.405   6.149  0.5075 -0.1625 -0.6331
10451TIP3    H152844   2.143   1.422   6.055  0.7151 -1.3621 -0.8568
10451TIP3    H252845   2.076   1.464   6.184 -0.0065 -0.1475 -1.6136
10452TIP3   OH252846   1.463   3.898  16.398 -0.6474  0.0679 -0.4045
10452TIP3    H152847   1.433   3.890  16.307 -0.3860  2.1231 -0.7030
10452TIP3    H252848   1.558   3.888  16.392 -0.7393 -0.9830 -0.1882
10453TIP3   OH252849   6.567   0.391  14.403  0.0712  0.0045 -0.1151
10453TIP3    H152850   6.644   0.447  14.417 -0.3067  0.2112  1.2546
10453TIP3    H252851   6.598   0.320  14.348  1.0756  0.4664 -0.1474
10454TIP3   OH252852   0.202   5.982  13.920 -0.1286  0.3126  0.5792
10454TIP3    H152853   0.231   5.920  13.987  1.0394  0.9331  0.6515
10454TIP3    H252854   0.109   5.962  13.908 -0.1627 -0.3232  1.8141
10455TIP3   OH252855   5.050   4.433   0.179  0.4123  0.0606  0.1199
10455TIP3    H152856   5.136   4.393   0.164  0.8035  0.5896  0.9155
10455TIP3    H252857   5.043   4.438   0.274 -0.3466  0.3570  0.0470
10456TIP3   OH252858   5.031   2.351   4.723 -0.2381  0.3970  0.2067
10456TIP3    H152859   5.117   2.352   4.681  0.4267  0.4296  1.5479
10456TIP3    H252860   5.044   2.394   4.807 -1.5648  0.3909  0.4381
10457TIP3   OH252861   5.972   1.305   3.059 -0.3342  0.3946 -0.3541
10457TIP3    H152862   5.946   1.394   3.039  2.1386  0.9648 -1.2574
10457TIP3    H252863   5.906   1.250   3.018 -0.7335  1.7610 -1.5761
10458TIP3   OH252864   2.523   4.369   4.483  0.1798  0.0635 -0.2218
10458TIP3    H152865   2.606   4.325   4.501  1.0254  2.1762  1.1461
10458TIP3    H252866   2.458   4.316   4.529  0.6878 -1.8043 -1.5908
10459TIP3   OH252867   0.189   5.294  15.131 -0.5427  0.0953 -0.2985
10459TIP3    H152868   0.221   5.337  15.211 -0.9907 -1.2102  0.6036
10459TIP3    H252869   0.239   5.336  15.060 -0.2561  1.3934  0.6367
10460TIP3   OH252870   4.383   2.115   0.447  0.0651  0.0377  0.2525
10460TIP3    H152871   4.395   2.041   0.506  0.6413 -0.4681 -0.4795
10460TIP3    H252872   4.288   2.129   0.444  0.0039 -0.2333  0.9245
10461TIP3   OH252873   5.704   3.929   3.352 -0.3145 -0.6181 -0.5305
10461TIP3    H152874   5.763   3.894   3.418 -0.2102 -1.0397 -0.8482
10461TIP3    H252875   5.617   3.924   3.392 -0.2871 -1.1421 -0.5366
10462TIP3   OH252876   4.471   5.116  14.098  0.1202  0.2054  0.1135
10462TIP3    H152877   4.511   5.033  14.073  2.6050  1.3221  0.1732
10462TIP3    H252878   4.425   5.145  14.019 -0.6827 -1.1693  0.0682
10463TIP3   OH252879   5.840   4.665   1.034 -0.0996 -0.6331  0.1186
10463TIP3    H152880   5.921   4.638   1.078  0.3696  0.5730  0.0104
10463TIP3    H252881   5.859   4.659   0.941  0.0809  0.2516  0.0908
10464TIP3   OH252882   5.504   5.662  15.933 -0.3114  0.3464  0.2412
10464TIP3    H152883   5.591   5.689  15.903 -0.8902 -0.4530 -2.2618
10464TIP3    H252884   5.457   5.745  15.948 -0.0620  0.7830 -1.2905
10465TIP3   OH252885   4.578   6.292  13.758  0.3433 -0.1448 -0.0506
10465TIP3    H152886   4.576   6.274  13.665  0.0739  0.1601 -0.1059
10465TIP3    H252887   4.526   6.372  13.768 -0.4330 -0.7193  0.4844
10466TIP3   OH252888   6.044   2.976   0.566  0.3308  0.7133  0.4783
10466TIP3    H152889   5.993   3.057   0.572 -0.6064  0.2385 -0.7159
10466TIP3    H252890   6.086   2.982   0.480 -0.6729 -0.5929 -0.1108
10467TIP3   OH252891   5.987   6.745   5.796  0.3256  0.0342 -0.2995
10467TIP3    H152892   5.910   6.725   5.849 -0.3303 -2.8660 -2.1972
10467TIP3    H252893   6.060   6.709   5.846  0.1247  0.3633  0.2336
10468TIP3   OH252894   6.209   6.309  14.754 -0.1718  0.0024  0.2960
10468TIP3    H152895   6.197   6.246  14.826 -1.6575  1.5581  1.4469
10468TIP3    H252896   6.121   6.342  14.737  0.3710  0.6087 -1.3867
10469TIP3   OH252897   3.399   0.021   1.952 -0.1125 -0.5935 -0.4119
10469TIP3    H152898   3.314   0.005   1.912  0.2855 -1.0979 -1.0482
10469TIP3    H252899   3.417  -0.058   2.004  0.2923 -0.7832 -0.8422
10470TIP3   OH252900   3.562   6.035  13.890 -0.1554 -0.6361  0.1849
10470TIP3    H152901   3.578   6.129  13.886  1.4664 -0.8672  1.0735
10470TIP3    H252902   3.483   6.026  13.943 -0.7217  0.2544 -0.4939
10471TIP3   OH252903   5.053   4.148   2.299 -0.0698 -0.0038  0.1189
10471TIP3    H152904   5.026   4.240   2.297  2.1383  0.7444  1.7467
10471TIP3    H252905   4.993   4.107   2.361 -0.3120  0.6417  0.3228
10472TIP3   OH252906   5.233   5.482  12.778  0.2879  0.4901 -0.6099
10472TIP3    H152907   5.220   5.425  12.702 -0.2735 -0.6020  0.2858
10472TIP3    H252908   5.257   5.422  12.849 -4.1727  0.8282  1.3391
10473TIP3   OH252909   5.911   5.974  16.828  0.3262 -0.2352 -0.3503
10473TIP3    H152910   5.863   6.013  16.901 -0.4194  1.9565 -1.9800
10473TIP3    H252911   6.003   5.984  16.853  0.0725  0.0118  0.5310
10474TIP3   OH252912   5.681   6.295  16.780 -0.1910  0.0045 -0.0539
10474TIP3    H152913   5.639   6.271  16.862 -1.4350  2.0051 -0.0837
10474TIP3    H252914   5.702   6.211  16.738  0.2945 -1.0247  2.2022
10475TIP3   OH252915   5.283   1.036  16.800 -0.1643  0.4547 -0.1718
10475TIP3    H152916   5.227   1.038  16.722 -1.1281 -0.4784  0.4885
10475TIP3    H252917   5.347   0.967  16.781 -1.1168 -0.5773  0.3472
10476TIP3   OH252918   6.647   0.443   3.352 -0.4249  0.2671  0.4360
10476TIP3    H152919   6.721   0.473   3.299 -0.6401 -0.0743 -0.0578
10476TIP3    H252920   6.688   0.387   3.419 -0.2712 -0.2346 -0.0698
10477TIP3   OH252921   0.984   1.099   2.547  0.1076 -0.1593 -0.2162
10477TIP3    H152922   0.908   1.134   2.593  0.8422  1.5093 -0.2539
10477TIP3    H252923   1.057   1.112   2.607  0.5550 -0.7689 -0.6170
10478TIP3   OH252924   6.576   3.288  16.643 -0.0405 -0.9158  0.0481
10478TIP3    H152925   6.567   3.373  16.687 -0.4271 -0.8570 -0.1452
10478TIP3    H252926   6.551   3.305  16.552 -1.6372 -1.5959  0.3609
10479TIP3   OH252927   4.822   0.176   2.992  0.0664  0.0578 -0.0909
10479TIP3    H152928   4.863   0.158   3.076  1.6737 -1.1557 -1.0950
10479TIP3    H252929   4.854   0.263   2.968 -0.4136  0.4152  0.5522
10480TIP3   OH252930   2.132   1.819  11.440  0.2510 -0.0351  0.2928
10480TIP3    H152931   2.096   1.819  11.529  0.9136 -3.1923  0.6209
10480TIP3    H252932   2.055   1.818  11.383 -0.1637 -0.6388  0.8664
10481TIP3   OH252933   2.185   4.891  11.160 -0.0129  0.0857  0.1489
10481TIP3    H152934   2.208   4.914  11.250 -0.9889 -0.3041  0.5085
10481TIP3    H252935   2.197   4.972  11.111  2.1162 -0.1187  0.3140
10482TIP3   OH252936   2.619   2.670  17.209  0.1669 -0.3005 -0.5431
10482TIP3    H152937   2.638   2.683  17.302  1.2178 -0.4725 -0.7251
10482TIP3    H252938   2.525   2.652  17.206 -0.4554  2.5080  0.2131
10483TIP3   OH252939   1.381   4.659  10.755 -0.1758 -0.2799 -0.7532
10483TIP3    H152940   1.408   4.594  10.820  0.2339  0.8998  0.2798
10483TIP3    H252941   1.317   4.614  10.701 -0.9422 -1.1131  0.8261
10484TIP3   OH252942   2.730   5.710   1.387 -0.2562 -0.2366 -0.1327
10484TIP3    H152943   2.643   5.686   1.419  0.3802 -0.8288  1.1718
10484TIP3    H252944   2.733   5.675   1.298 -1.6951  0.6046 -0.5265
10485TIP3   OH252945   4.577   0.724  12.486  0.1311  0.0074  0.0042
10485TIP3    H152946   4.667   0.753  12.476  0.4855 -1.0966 -0.0510
10485TIP3    H252947   4.576   0.676  12.569  0.0401 -1.6589 -0.9408
10486TIP3   OH252948   0.046   6.656  12.656  0.1699  0.4330 -0.1149
10486TIP3    H152949   0.083   6.569  12.642  0.8232  0.7433 -0.3382
10486TIP3    H252950   0.001   6.649  12.740  1.7762  0.3802  0.7755
10487TIP3   OH252951   0.292   5.172  14.631  1.3398  0.2172 -0.3101
10487TIP3    H152952   0.314   5.101  14.571 -1.0641 -1.7369  1.0140
10487TIP3    H252953   0.374   5.220  14.644  2.5864 -1.2269 -2.6574
10488TIP3   OH252954   0.938   5.119  15.560  0.2008 -0.0637 -0.2162
10488TIP3    H152955   0.972   5.098  15.473 -0.3340  1.1478 -0.7308
10488TIP3    H252956   0.950   5.214  15.569  0.1807 -0.1619  1.0025
10489TIP3   OH252957   3.531   5.625   6.203 -0.0796  0.1526 -1.0782
10489TIP3    H152958   3.507   5.557   6.140 -0.4449  0.7700 -1.6133
10489TIP3    H252959   3.486   5.704   6.172 -0.0471  0.5278 -0.1943
10490TIP3   OH252960   0.214   3.766   0.545 -0.5120  0.3112  0.3138
10490TIP3    H152961   0.275   3.713   0.595  0.3096  1.3827  0.4581
10490TIP3    H252962   0.267   3.838   0.510 -1.4605  0.6339 -0.4858
10491TIP3   OH252963   4.558   4.162  15.817  0.2592 -0.1285  0.5276
10491TIP3    H152964   4.584   4.096  15.881  1.0207  0.4235  0.7953
10491TIP3    H252965   4.485   4.208  15.859  0.5982  0.0740  0.9020
10492TIP3   OH252966   1.142   1.792  13.044  0.0245 -0.0244 -0.1611
10492TIP3    H152967   1.201   1.859  13.010 -0.0147 -0.1864 -0.5516
10492TIP3    H252968   1.160   1.790  13.138  1.8176 -1.2107 -0.4933
10493TIP3   OH252969   3.491   5.520  13.015 -0.0913 -0.2009 -0.2721
10493TIP3    H152970   3.407   5.495  13.054 -0.7738  0.1870 -1.4785
10493TIP3    H252971   3.482   5.498  12.923  1.6780 -1.5060 -0.1540
10494TIP3   OH252972   6.295   0.708   0.294 -0.5380  1.0763  0.2427
10494TIP3    H152973   6.248   0.785   0.261  0.8484  0.7152 -2.7860
10494TIP3    H252974   6.374   0.703   0.240  0.5942 -1.0921  2.0061
10495TIP3   OH252975   4.606   2.376  16.436 -0.0809 -0.1631 -0.4847
10495TIP3    H152976   4.655   2.315  16.491  0.5660  1.4940  0.8218
10495TIP3    H252977   4.668   2.446  16.418 -0.6685 -0.1150 -2.3760
10496TIP3   OH252978   0.531   2.452   5.288 -0.1346  0.8427  0.3426
10496TIP3    H152979   0.464   2.486   5.228  0.2171  1.3039  0.2051
10496TIP3    H252980   0.516   2.357   5.289  0.9135  0.6110 -1.8120
10497TIP3   OH252981   6.218   5.387  11.794 -0.1811 -0.6419 -0.1872
10497TIP3    H152982   6.310   5.400  11.815  0.2006  1.7876 -3.0340
10497TIP3    H252983   6.171   5.444  11.855  0.1475 -1.8263  1.2189
10498TIP3   OH252984   4.213   5.926   4.372 -0.2077  0.1297  0.2851
10498TIP3    H152985   4.220   6.000   4.311  0.7187  0.6826  1.0547
10498TIP3    H252986   4.132   5.882   4.346 -0.7348  1.3670 -0.2321
10499TIP3   OH252987   2.932   0.782  13.859 -0.6140 -0.3468  0.4494
10499TIP3    H152988   2.925   0.688  13.844  2.6645 -0.7228  0.9388
10499TIP3    H252989   2.947   0.819  13.772 -1.8276 -0.2681  0.2658
10500TIP3   OH252990   0.920   1.324  12.810  0.1187  0.1457 -0.8258
10500TIP3    H152991   0.832   1.298  12.837  1.0052 -1.6862  0.4051
10500TIP3    H252992   0.910   1.349  12.718 -1.8368  0.8052 -0.4579
10501TIP3   OH252993   0.571   2.625  11.317 -0.2250  0.3035  0.1964
10501TIP3    H152994   0.520   2.617  11.397  2.0472  1.3586  1.7948
10501TIP3    H252995   0.544   2.709  11.280 -0.1348  0.5304  0.6499
10502TIP3   OH252996   1.243   4.721   5.925  0.5419  0.1339  0.1802
10502TIP3    H152997   1.248   4.645   5.983  1.2839  0.5240  0.6372
10502TIP3    H252998   1.195   4.690   5.848  1.5408 -1.0168  0.0062
10503TIP3   OH252999   4.543   1.470  12.875  0.6984 -1.0824  0.2401
10503TIP3    H153000   4.506   1.469  12.787  0.5235 -0.7927  0.3122
10503TIP3    H253001   4.597   1.549  12.878 -1.1002  0.1494  1.1337
10504TIP3   OH253002   5.177   3.173   4.558  0.0475 -0.0382 -0.0342
10504TIP3    H153003   5.199   3.086   4.525  0.9177 -0.1957  0.9571
10504TIP3    H253004   5.178   3.229   4.481 -0.4146 -0.8832 -0.6613
10505TIP3   OH253005   1.801   5.394   6.640 -0.7350 -0.3093 -0.1569
10505TIP3    H153006   1.760   5.414   6.555  0.4629 -0.7091 -0.8353
10505TIP3    H253007   1.821   5.301   6.636  1.4060  0.1334 -0.3520
10506TIP3   OH253008   3.561   1.931  11.744  0.2898 -0.8711  0.5495
10506TIP3    H153009   3.652   1.955  11.761  0.5037 -1.8372  0.8256
10506TIP3    H253010   3.511   1.978  11.811  0.5934 -0.4136  0.4558
10507TIP3   OH253011   5.082   6.237   5.632  0.7535  0.1062  0.6391
10507TIP3    H153012   5.158   6.202   5.585 -0.1850 -0.5445 -0.4130
10507TIP3    H253013   5.029   6.160   5.651 -0.8985  0.8286 -0.8951
10508TIP3   OH253014   6.199   2.132  14.886 -0.0375  0.5653  0.3836
10508TIP3    H153015   6.130   2.076  14.923 -0.6890  0.9438 -0.2527
10508TIP3    H253016   6.190   2.123  14.792  0.8261  0.5755  0.2986
10509TIP3   OH253017   0.953   3.310   1.748  0.3986 -0.4201 -0.2406
10509TIP3    H153018   0.906   3.367   1.808  1.1597  0.4828 -0.4965
10509TIP3    H253019   0.966   3.229   1.798  0.1541 -0.0372  0.4538
10510TIP3   OH253020   0.370   0.265   0.669  0.8075  0.0418  0.0941
10510TIP3    H153021   0.396   0.252   0.577 -0.3912 -0.2362 -0.2139
10510TIP3    H253022   0.425   0.336   0.700  2.9828 -1.4873 -0.1115
10511TIP3   OH253023   3.867   6.320   0.088  0.2629 -0.1008 -0.1012
10511TIP3    H153024   3.790   6.324   0.031  0.4084 -0.2354 -0.3053
10511TIP3    H253025   3.926   6.387   0.054  0.4863 -0.4018 -0.3094
10512TIP3   OH253026   3.472   5.820   5.249 -0.4244 -0.0717  0.0786
10512TIP3    H153027   3.463   5.915   5.236 -0.6220 -0.3415 -1.9766
10512TIP3    H253028   3.393   5.795   5.298  0.4709  1.0675  2.1509
10513TIP3   OH253029   2.403   5.534  17.069  0.8834  0.0693 -0.3931
10513TIP3    H153030   2.408   5.595  16.995  0.5378  1.5218  0.7633
10513TIP3    H253031   2.400   5.448  17.028 -0.2069  0.8881 -2.1108
10514TIP3   OH253032   4.794   4.369   5.866  0.0122  0.2240  0.1227
10514TIP3    H153033   4.740   4.291   5.852 -0.9354  0.0161  4.2664
10514TIP3    H253034   4.737   4.442   5.847 -0.8908 -0.0544  1.6660
10515TIP3   OH253035   0.990   3.548  13.576 -0.2060 -0.1980 -0.3434
10515TIP3    H153036   1.065   3.606  13.560  0.3925 -1.4321 -2.1797
10515TIP3    H253037   0.975   3.555  13.670  1.8815  0.4998 -0.0192
10516TIP3   OH253038   4.036   2.783  11.977 -0.0742 -0.5436 -0.4434
10516TIP3    H153039   3.995   2.822  12.054 -1.2089  1.1793 -1.8898
10516TIP3    H253040   3.963   2.753  11.923  0.6672 -0.6987 -1.3697
10517TIP3   OH253041   3.161   0.326   3.352  0.6873 -0.2809 -0.0737
10517TIP3    H153042   3.223   0.368   3.411 -0.5118  0.2937  0.7888
10517TIP3    H253043   3.172   0.371   3.268  0.7210  0.4780  0.3432
10518TIP3   OH253044   4.190   4.003   3.953  0.2753 -0.6042 -0.1738
10518TIP3    H153045   4.265   4.047   3.912 -1.3676  2.6978  0.1973
10518TIP3    H253046   4.214   3.996   4.045  1.0362 -1.5948 -0.4389
10519TIP3   OH253047   5.379   1.668   0.750  0.1502  0.0041 -0.7264
10519TIP3    H153048   5.386   1.680   0.655  1.5584  2.0935 -0.3806
10519TIP3    H253049   5.420   1.583   0.766 -0.1248 -0.3831 -1.9710
10520TIP3   OH253050   4.063   2.478  12.509 -0.0961 -0.1744 -0.3010
10520TIP3    H153051   4.093   2.557  12.555 -0.5383  0.1300 -0.5287
10520TIP3    H253052   4.035   2.418  12.578 -0.3622  0.1174 -0.1547
10521TIP3   OH253053   4.142   6.115   4.964 -0.9391  0.3876 -0.0380
10521TIP3    H153054   4.095   6.165   4.897 -0.8089  0.9330  0.2727
10521TIP3    H253055   4.073   6.084   5.023 -1.0295  0.1141 -0.2855
10522TIP3   OH253056   1.383   4.095  12.437  0.1457 -0.2004  0.2827
10522TIP3    H153057   1.459   4.089  12.379 -0.8418 -1.9688 -0.8244
10522TIP3    H253058   1.379   4.010  12.481  0.6488  0.9702  2.6852
10523TIP3   OH253059   3.786   5.369  16.502  0.0039 -0.1799 -0.0168
10523TIP3    H153060   3.810   5.359  16.410  1.2191  2.3998 -0.0364
10523TIP3    H253061   3.690   5.377  16.501  0.1275  1.7109 -1.3090
10524TIP3   OH253062   1.412   2.054  15.734  0.2287  0.1859  0.0918
10524TIP3    H153063   1.392   2.001  15.811  0.9915 -0.7206 -0.3274
10524TIP3    H253064   1.395   2.144  15.762  1.3912 -0.0466  1.6229
10525TIP3   OH253065   4.111   1.294  11.511 -0.5181  0.0615 -1.0231
10525TIP3    H153066   4.133   1.322  11.600 -2.2991 -2.2154  0.1806
10525TIP3    H253067   4.089   1.376  11.465  0.8142  1.2944  0.5042
10526TIP3   OH253068   2.904   3.488   3.191 -0.4763  0.1532  0.1927
10526TIP3    H153069   2.960   3.559   3.158 -0.7953  0.5057  0.4051
10526TIP3    H253070   2.962   3.412   3.194 -0.1363  0.3979 -0.0608
10527TIP3   OH253071   2.036   0.395   5.236  0.4451  0.3179  0.0302
10527TIP3    H153072   1.989   0.470   5.200  0.0074 -0.6292 -1.4640
10527TIP3    H253073   1.993   0.377   5.319 -0.9442  0.3339 -0.6623
10528TIP3   OH253074   2.688   2.712   1.203  0.3326 -0.6055 -0.0975
10528TIP3    H153075   2.610   2.740   1.251 -1.1323 -2.9456 -1.0597
10528TIP3    H253076   2.655   2.671   1.124  2.5342 -1.8581 -0.4101
10529TIP3   OH253077   4.762   1.723   3.242 -0.2189  0.0286  0.8090
10529TIP3    H153078   4.748   1.633   3.211  0.6727  0.5142 -1.0623
10529TIP3    H253079   4.700   1.775   3.192  0.8305  0.7488  0.2398
10530TIP3   OH253080   4.109   3.649  15.332 -0.3253 -0.4221 -0.5730
10530TIP3    H153081   4.109   3.672  15.425 -0.1288 -2.0111 -0.1765
10530TIP3    H253082   4.041   3.705  15.294  1.6696  2.4597 -0.0554
10531TIP3   OH253083   2.807   5.745   5.445  1.5239  0.2975  0.1139
10531TIP3    H153084   2.723   5.766   5.486  2.1711  0.3715  1.4151
10531TIP3    H253085   2.848   5.830   5.427  1.3746  0.2596 -0.4286
10532TIP3   OH253086   4.290   6.211  13.387  0.2311 -0.2201 -0.1255
10532TIP3    H153087   4.219   6.256  13.432  0.2339  0.2708 -0.6101
10532TIP3    H253088   4.270   6.222  13.294  1.0540  0.1163 -0.2705
10533TIP3   OH253089   0.266   2.002   4.979  0.5376  0.0952 -0.3015
10533TIP3    H153090   0.356   1.975   4.999 -0.3673 -3.4502 -0.7027
10533TIP3    H253091   0.227   2.021   5.065  1.8426  2.5380 -0.1770
10534TIP3   OH253092   6.606   5.993   4.439  0.0585 -0.0606  0.0268
10534TIP3    H153093   6.593   6.088   4.440 -1.1444 -0.2282  0.2619
10534TIP3    H253094   6.518   5.957   4.444  0.3341 -1.2052 -2.7653
10535TIP3   OH253095   0.021   1.662   1.669  0.0763 -0.1990 -0.0280
10535TIP3    H153096   0.100   1.611   1.687 -0.3275 -0.9488 -0.3654
10535TIP3    H253097   0.024   1.678   1.574 -1.0431 -1.6879 -0.3269
10536TIP3   OH253098   5.414   6.368  17.288 -0.0376  0.8610 -0.0957
10536TIP3    H153099   5.389   6.311  17.360 -0.5486 -0.7644 -1.5258
10536TIP3    H253100   5.499   6.404  17.314  0.8515 -1.4952  0.3085
10537TIP3   OH253101   6.782   4.267  17.287  0.1415  0.5153 -0.2618
10537TIP3    H153102   6.703   4.229  17.247  0.3332  0.7406 -0.8709
10537TIP3    H253103   6.759   4.280  17.379  0.4572 -2.0754  0.1988
10538TIP3   OH253104   5.238   2.734   0.590  0.4113  0.2036  0.3848
10538TIP3    H153105   5.319   2.784   0.590 -0.1960  1.2032 -0.3161
10538TIP3    H253106   5.252   2.666   0.524 -0.1059  1.7093 -1.3276
10539TIP3   OH253107   6.396   5.869  11.454 -0.1604 -0.6926 -0.4613
10539TIP3    H153108   6.433   5.802  11.397 -1.7443 -1.2229 -0.8726
10539TIP3    H253109   6.401   5.950  11.403  2.4868 -0.3069  0.3329
10540TIP3   OH253110   0.702   6.673   1.101 -0.4522 -0.4771  0.1740
10540TIP3    H153111   0.667   6.585   1.101  1.4033 -1.2470  0.6163
10540TIP3    H253112   0.657   6.717   1.174 -2.1049 -0.7283 -0.6772
10541TIP3   OH253113   4.799   6.577   2.423  0.0715  0.2064 -0.7492
10541TIP3    H153114   4.872   6.534   2.380 -0.7476  0.4224 -2.4107
10541TIP3    H253115   4.767   6.514   2.487  0.9469 -0.3562 -0.8687
10542TIP3   OH253116   4.826   0.607  14.338  0.1671 -0.3136  0.0966
10542TIP3    H153117   4.868   0.687  14.305  0.5451 -0.1688  0.9146
10542TIP3    H253118   4.804   0.627  14.429  0.3116 -1.1587  0.3269
10543TIP3   OH253119   1.244   6.812   2.151 -0.4190 -0.0663 -0.0309
10543TIP3    H153120   1.279   6.876   2.213 -0.7450 -1.2254  1.3603
10543TIP3    H253121   1.152   6.835   2.141 -0.8342 -1.0701  1.4278
10544TIP3   OH253122   1.795   6.074   0.936 -0.3504 -0.8855 -0.1604
10544TIP3    H153123   1.699   6.074   0.935 -0.3554  0.1162 -0.3156
10544TIP3    H253124   1.819   6.150   0.989  0.3665 -1.1654 -0.0661
10545TIP3   OH253125   3.703   3.149   1.276 -0.9314  0.1323 -0.5057
10545TIP3    H153126   3.626   3.092   1.274  0.0310 -1.2416  0.5574
10545TIP3    H253127   3.777   3.090   1.291  0.1488  1.5882  0.0886
10546TIP3   OH253128   0.798   0.170  12.150  0.3132 -0.2405  0.4242
10546TIP3    H153129   0.724   0.200  12.098  0.0029  0.3644  1.2121
10546TIP3    H253130   0.790   0.074  12.151  0.8333 -0.3231 -1.3835
10547TIP3   OH253131   6.497   6.125   2.696 -0.2551 -0.6562 -0.8229
10547TIP3    H153132   6.427   6.094   2.753  0.4701 -1.4482 -0.3388
10547TIP3    H253133   6.529   6.046   2.653  1.5424 -0.5886  0.3354
10548TIP3   OH253134   4.683   1.066   4.371 -0.6099  0.1329 -0.4575
10548TIP3    H153135   4.728   1.148   4.348  1.5990 -0.7955  0.4721
10548TIP3    H253136   4.714   1.003   4.307 -0.8031 -0.4599  0.0290
10549TIP3   OH253137   4.429   0.757   4.791 -0.0570 -0.2147  0.0787
10549TIP3    H153138   4.513   0.766   4.745 -0.6058 -3.7699 -1.8224
10549TIP3    H253139   4.453   0.722   4.877  0.4324 -1.6640 -0.6226
10550TIP3   OH253140   3.051   5.376   3.961 -0.5028  1.1559  0.5773
10550TIP3    H153141   3.093   5.451   3.920  0.8408  0.0819 -0.0817
10550TIP3    H253142   2.971   5.411   4.001 -0.9266  2.5395 -1.4392
10551TIP3   OH253143   5.790   2.121   5.683  0.2290 -0.0602 -0.3242
10551TIP3    H153144   5.752   2.147   5.599  0.7478 -0.1670 -0.5921
10551TIP3    H253145   5.755   2.184   5.746 -1.0723 -0.6620 -0.4249
10552TIP3   OH253146   1.865   2.832  12.929  0.2559 -0.5320 -0.2564
10552TIP3    H153147   1.910   2.916  12.921  0.8142 -0.6943  1.2059
10552TIP3    H253148   1.889   2.785  12.850  0.9646  0.1821 -0.4747
10553TIP3   OH253149   6.435   6.531   6.642  0.3726 -0.2180  0.5736
10553TIP3    H153150   6.387   6.483   6.710 -0.1647 -1.7923 -0.8575
10553TIP3    H253151   6.526   6.533   6.673  0.3424 -1.8989  0.8493
10554TIP3   OH253152   5.275   4.075  15.526  0.2692 -0.6056  0.0911
10554TIP3    H153153   5.270   4.110  15.615  1.7745  1.1463 -0.4936
10554TIP3    H253154   5.328   3.996  15.535  1.0038 -0.0558  0.6443
10555TIP3   OH253155   2.037   4.540   0.877  0.6067 -0.2057  0.1847
10555TIP3    H153156   1.944   4.535   0.853  0.2842 -0.1293  1.3736
10555TIP3    H253157   2.066   4.449   0.881  0.5441 -0.2358 -0.0530
10556TIP3   OH253158   3.517   3.885   0.934  0.6005 -0.2646 -0.1495
10556TIP3    H153159   3.594   3.870   0.879  0.0294 -2.0861 -0.4778
10556TIP3    H253160   3.538   3.964   0.984  1.4644  0.9651 -2.3978
10557TIP3   OH253161   6.573   0.492   2.154 -0.1134  0.7145  0.0698
10557TIP3    H153162   6.662   0.478   2.121 -0.5393 -0.7919 -0.4804
10557TIP3    H253163   6.557   0.417   2.210 -1.1928  0.7731 -0.1589
10558TIP3   OH253164   1.241   4.261   0.747 -0.0854  0.1397 -0.5664
10558TIP3    H153165   1.223   4.201   0.820  0.2971 -2.5675 -2.5878
10558TIP3    H253166   1.176   4.331   0.757 -0.7127 -0.7227  1.7645
10559TIP3   OH253167   1.445   1.112  16.567  0.2324  0.0831  0.6385
10559TIP3    H153168   1.458   1.107  16.473 -0.4195 -2.0607  0.6403
10559TIP3    H253169   1.505   1.047  16.604 -0.4889 -0.0600  1.5974
10560TIP3   OH253170   6.572   4.087   4.176 -0.6615  0.1467 -0.4434
10560TIP3    H153171   6.560   4.024   4.105 -0.6332 -0.3850  0.0155
10560TIP3    H253172   6.567   4.172   4.134 -2.1919 -0.1326 -0.8429
10561TIP3   OH253173   2.179   5.853  10.823  0.0446  0.1283 -0.1618
10561TIP3    H153174   2.104   5.813  10.865  0.1581  0.7149  0.6122
10561TIP3    H253175   2.208   5.920  10.885 -0.6295  1.9435 -1.7641
10562TIP3   OH253176   3.746   3.245  11.758 -0.0769  0.1454  0.6214
10562TIP3    H153177   3.802   3.173  11.790 -1.7571 -1.0702  0.8852
10562TIP3    H253178   3.697   3.207  11.685 -0.6124  1.1758  0.4402
10563TIP3   OH253179   0.606   0.032  14.477  0.0030  0.3431  0.4031
10563TIP3    H153180   0.604   0.068  14.389 -0.0855 -0.2386  0.1636
10563TIP3    H253181   0.585   0.106  14.534 -1.1171  0.4454 -0.1402
10564TIP3   OH253182   0.506   0.880  16.796 -0.5611  0.3989  0.1857
10564TIP3    H153183   0.563   0.815  16.757 -1.3985  0.0905 -0.5475
10564TIP3    H253184   0.522   0.960  16.746 -1.1396  0.1779 -0.3643
10565TIP3   OH253185   2.650   4.651  13.308  0.5463 -0.0842 -0.1972
10565TIP3    H153186   2.594   4.594  13.361  0.7762 -0.6619 -0.5648
10565TIP3    H253187   2.600   4.665  13.228  1.4582 -1.6616 -1.0744
10566TIP3   OH253188   1.364   2.558  15.364 -0.2414 -0.1454  0.4094
10566TIP3    H153189   1.362   2.576  15.458  1.3544 -2.2763  0.9007
10566TIP3    H253190   1.292   2.497  15.349 -0.3231 -0.0208  0.2885
10567TIP3   OH253191   3.256   6.077  15.684  1.0202  0.2595 -0.0956
10567TIP3    H153192   3.268   5.983  15.699  1.2747  0.5799  1.9081
10567TIP3    H253193   3.264   6.088  15.590 -0.1886 -1.9081 -0.4778
10568TIP3   OH253194   1.862   0.533   4.884  0.3521  0.5058 -0.8901
10568TIP3    H153195   1.796   0.547   4.815 -1.0848 -0.4195  0.2571
10568TIP3    H253196   1.824   0.464   4.939  1.2476  1.5811  1.1077
10569TIP3   OH253197   2.755   2.051  13.060  0.1593 -0.5450  0.6137
10569TIP3    H153198   2.784   2.059  12.969  0.4370  0.1973  0.7652
10569TIP3    H253199   2.663   2.025  13.055 -0.0416  0.2631  0.1231
10570TIP3   OH253200   1.830   4.314  11.242 -0.0726 -0.7351 -0.1048
10570TIP3    H153201   1.739   4.286  11.250 -1.0516  2.4920  0.7422
10570TIP3    H253202   1.870   4.288  11.325 -1.1280  0.8147  0.9257
10571TIP3   OH253203   5.068   4.530   5.424  0.2338 -0.0180  0.0218
10571TIP3    H153204   4.988   4.561   5.381  1.2733  3.7413  0.5388
10571TIP3    H253205   5.039   4.505   5.512 -0.5718  0.3544 -0.1267
10572TIP3   OH253206   1.480   0.383   3.241  0.0927 -0.0970  0.1669
10572TIP3    H153207   1.504   0.369   3.149 -1.1860  0.0897 -0.2095
10572TIP3    H253208   1.409   0.321   3.257  1.9027 -1.8344  1.7479
10573TIP3   OH253209   1.526   0.027   5.591  0.1039 -0.3156  0.2773
10573TIP3    H153210   1.497  -0.029   5.663 -0.5909 -0.1410  0.1367
10573TIP3    H253211   1.621   0.024   5.595  0.0710 -1.3377  0.4042
10574TIP3   OH253212   4.163   1.449  11.757 -0.2829 -0.7014 -0.1782
10574TIP3    H153213   4.112   1.528  11.738 -0.4689 -0.6930  0.3427
10574TIP3    H253214   4.148   1.433  11.850  1.6417 -0.0209  0.2476
10575TIP3   OH253215   6.625   2.059   2.109  0.3990 -0.3546  0.0359
10575TIP3    H153216   6.538   2.035   2.076  0.0244 -0.2772  0.9628
10575TIP3    H253217   6.683   1.993   2.071 -0.1388 -0.7304 -0.1468
10576TIP3   OH253218   6.652   4.565  12.875  0.0632  0.3075 -0.0001
10576TIP3    H153219   6.672   4.471  12.873  0.1688  0.2916  1.4088
10576TIP3    H253220   6.619   4.584  12.787  0.8151 -0.8720 -0.5550
10577TIP3   OH253221   3.996   0.110  17.235 -0.2892 -0.1578 -0.7500
10577TIP3    H153222   3.918   0.095  17.182 -0.5368 -2.2751  0.1426
10577TIP3    H253223   3.965   0.159  17.311 -0.4120  0.5889 -1.2803
10578TIP3   OH253224   3.131   5.705   4.646 -0.1893 -0.1056 -0.2097
10578TIP3    H153225   3.144   5.732   4.736  0.7039  0.1737 -0.4111
10578TIP3    H253226   3.131   5.609   4.649 -0.0127 -0.0963  0.0734
10579TIP3   OH253227   5.273   3.888  15.767  0.1006 -0.4852 -0.0071
10579TIP3    H153228   5.324   3.818  15.727  2.5864  1.1955  0.1314
10579TIP3    H253229   5.318   3.907  15.850 -0.0239  1.8311 -0.4343
10580TIP3   OH253230   4.658   0.645   1.287  0.0890 -0.3433 -0.1258
10580TIP3    H153231   4.750   0.628   1.269  0.1830  0.3049 -0.2758
10580TIP3    H253232   4.617   0.559   1.289  0.9905 -0.7589  1.5945
10581TIP3   OH253233   1.041   6.417   2.075 -0.1103 -0.0431 -0.3924
10581TIP3    H153234   0.995   6.366   2.008 -1.1382  0.5129 -0.1204
10581TIP3    H253235   0.977   6.482   2.103  0.6001  0.2581  0.5384
10582TIP3   OH253236   1.541   2.399   1.961 -0.2908 -0.2891  0.6329
10582TIP3    H153237   1.449   2.398   1.986 -0.8110  1.7791 -1.1164
10582TIP3    H253238   1.560   2.490   1.938  1.7370 -0.9798 -0.6486
10583TIP3   OH253239   0.089   5.353   1.832 -0.4160  0.4574  0.3561
10583TIP3    H153240   0.140   5.316   1.760 -0.6164  2.3029 -0.7848
10583TIP3    H253241   0.125   5.441   1.844 -0.5874  0.2916  2.3269
10584TIP3   OH253242   3.880   3.388  11.361  0.0832 -0.3543  0.3249
10584TIP3    H153243   3.862   3.471  11.317 -2.0951 -1.6458 -1.3236
10584TIP3    H253244   3.800   3.368  11.410  0.2504 -1.8837  0.0210
10585TIP3   OH253245   5.266   3.034   5.238 -0.3145  0.6672 -0.2658
10585TIP3    H153246   5.281   2.979   5.314  1.1084  0.4585 -0.6804
10585TIP3    H253247   5.221   2.978   5.175  0.1913  0.2840 -0.2863
10586TIP3   OH253248   1.732   2.656  15.588 -0.2002 -0.2701  0.0597
10586TIP3    H153249   1.644   2.692  15.575 -0.5039 -1.2006 -0.5052
10586TIP3    H253250   1.757   2.685  15.676 -0.2044  1.8042 -0.5821
10587TIP3   OH253251   3.685   4.085  11.556 -0.4356 -0.4383  0.2818
10587TIP3    H153252   3.716   3.994  11.559 -0.2190 -0.3752 -0.0710
10587TIP3    H253253   3.764   4.138  11.563 -0.3291 -0.2811 -1.7311
10588TIP3   OH253254   1.792   5.538  11.383 -0.1495 -0.1753 -0.3776
10588TIP3    H153255   1.881   5.572  11.388  0.1852 -1.0937 -0.0493
10588TIP3    H253256   1.794   5.456  11.433 -0.9673 -0.6295 -1.0683
10589TIP3   OH253257   4.685   1.903   2.864 -0.3502  0.3702 -0.3660
10589TIP3    H153258   4.725   1.817   2.848 -0.5297  0.6865 -2.6302
10589TIP3    H253259   4.622   1.914   2.793 -1.4304  1.7258  0.7764
10590TIP3   OH253260   0.505   1.271  13.985 -0.2197 -0.1192 -0.2943
10590TIP3    H153261   0.569   1.341  14.000 -0.8179  0.0354  1.6015
10590TIP3    H253262   0.429   1.315  13.948 -0.2246  0.0909 -0.0343
10591TIP3   OH253263   1.927   2.107   2.534  0.1642 -0.4237 -0.2087
10591TIP3    H153264   1.976   2.185   2.508  0.2355 -0.5792 -0.5503
10591TIP3    H253265   1.862   2.139   2.596  0.7028 -0.2199  0.2483
10592TIP3   OH253266   6.385   4.368   4.380 -0.2163  0.9667 -0.2013
10592TIP3    H153267   6.437   4.297   4.341 -1.1469 -0.0114  0.3286
10592TIP3    H253268   6.295   4.337   4.373 -0.6972  2.4793 -0.7354
10593TIP3   OH253269   1.197   0.560   4.939 -0.1683  0.2922  0.3031
10593TIP3    H153270   1.133   0.581   4.871  0.5905 -0.1417 -0.5386
10593TIP3    H253271   1.190   0.465   4.950  0.5952  0.1924 -0.0547
10594TIP3   OH253272   1.839   6.663   0.227  0.0185  0.5064  0.1942
10594TIP3    H153273   1.815   6.742   0.178  1.0006  0.8427  0.2527
10594TIP3    H253274   1.934   6.666   0.233 -0.0527  0.1860  1.6628
10595TIP3   OH253275   5.053   0.126   6.474 -0.3858 -0.4021  0.0671
10595TIP3    H153276   5.050   0.220   6.491 -1.6929 -0.5958  0.9297
10595TIP3    H253277   4.983   0.111   6.410  0.7567 -0.5747 -1.1647
10596TIP3   OH253278   4.219   0.608  11.252 -0.8000  0.2624  0.1557
10596TIP3    H153279   4.219   0.648  11.165 -0.8909  1.5456  0.7413
10596TIP3    H253280   4.201   0.680  11.312 -2.0046 -0.8412  1.1529
10597TIP3   OH253281   5.208   0.941  12.514 -0.7249 -0.3554 -0.5292
10597TIP3    H153282   5.247   1.026  12.496 -0.9094 -0.4135 -1.2493
10597TIP3    H253283   5.157   0.922  12.435 -3.1021  0.2207  0.8186
10598TIP3   OH253284   3.669   5.213   2.748 -0.0511 -0.2276 -0.3239
10598TIP3    H153285   3.735   5.191   2.682 -0.8758 -0.4222 -1.0829
10598TIP3    H253286   3.595   5.248   2.698 -0.9749 -1.0644  0.4374
10599TIP3   OH253287   4.671   4.818   3.475  0.4311  0.2489  0.4398
10599TIP3    H153288   4.757   4.830   3.515 -0.7074  0.5746  2.8550
10599TIP3    H253289   4.627   4.753   3.529 -1.7403  1.8824  0.7355
10600TIP3   OH253290   5.267   5.773   2.814  0.1493  0.2086  0.3778
10600TIP3    H153291   5.237   5.747   2.901 -0.0289  0.3355  0.3553
10600TIP3    H253292   5.337   5.836   2.830  0.4804 -0.1675  0.4311
10601TIP3   OH253293   4.144   2.268  13.523  0.1680 -0.1393 -0.3339
10601TIP3    H153294   4.066   2.310  13.559  0.9985  0.4494  0.8274
10601TIP3    H253295   4.111   2.190  13.478 -0.9800 -0.5244  1.1361
10602TIP3   OH253296   2.506   3.291   6.130  0.2237 -0.1076 -0.3279
10602TIP3    H153297   2.589   3.301   6.084  0.9492 -0.7516  0.8130
10602TIP3    H253298   2.521   3.329   6.216  0.6945 -3.8495  1.3762
10603TIP3   OH253299   4.874   1.291  12.796  0.3388  0.1352 -0.3498
10603TIP3    H153300   4.788   1.265  12.763  0.1717 -0.4860  0.5632
10603TIP3    H253301   4.861   1.307  12.889  0.5396  3.1634 -0.7985
10604TIP3   OH253302   2.990   4.189  10.697 -0.3561 -0.3186 -0.3071
10604TIP3    H153303   3.043   4.235  10.632 -2.4311  1.2359 -0.9659
10604TIP3    H253304   3.054   4.150  10.756  1.5369  2.3886 -0.4467
10605TIP3   OH253305   3.350   5.705   1.707 -0.3186 -0.3077 -0.3189
10605TIP3    H153306   3.441   5.681   1.688 -0.5260 -2.0540  0.7935
10605TIP3    H253307   3.356   5.780   1.766  0.3869 -0.2093 -0.5149
10606TIP3   OH253308   6.429   1.411   3.616 -0.1291 -0.2402 -0.4839
10606TIP3    H153309   6.479   1.416   3.697 -0.0607  1.7267 -0.6227
10606TIP3    H253310   6.493   1.384   3.550  0.3906  0.6349 -0.3466
10607TIP3   OH253311   1.449   6.614   4.900 -0.2885 -0.1187 -0.4928
10607TIP3    H153312   1.387   6.555   4.941 -2.4753  2.2095 -0.2956
10607TIP3    H253313   1.511   6.637   4.969 -0.7910 -0.3774  0.0375
10608TIP3   OH253314   5.129   0.710  11.900  0.4561 -0.0551  0.2922
10608TIP3    H153315   5.069   0.667  11.838  1.5457 -0.1991 -0.6831
10608TIP3    H253316   5.151   0.641  11.964  1.1579 -0.5934 -0.5098
10609TIP3   OH253317   0.976   5.988   4.410  0.0211  0.9788  0.5636
10609TIP3    H153318   0.999   6.075   4.443  1.2631  0.3578  1.3654
10609TIP3    H253319   0.995   5.928   4.482  3.4101 -0.4823 -1.4313
10610TIP3   OH253320   4.067   5.210  15.670 -0.0305  0.7498  0.4381
10610TIP3    H153321   4.137   5.191  15.732  1.6596  2.8490 -0.7558
10610TIP3    H253322   4.014   5.277  15.713 -0.5155  0.1326  0.7956
10611TIP3   OH253323   0.247   0.324   3.344 -0.2049  0.0538  0.1789
10611TIP3    H153324   0.267   0.377   3.422 -1.9151  1.5471 -0.3493
10611TIP3    H253325   0.238   0.388   3.273  0.4548 -1.2145 -1.0816
10612TIP3   OH253326   5.955   5.601  13.627  0.0598  0.4925  0.4381
10612TIP3    H153327   5.921   5.512  13.639  0.9360  0.0529 -0.3107
10612TIP3    H253328   6.018   5.613  13.698  0.4841  0.2475  0.1022
10613TIP3   OH253329   1.630   4.513  13.730  0.1792  0.1311  0.4538
10613TIP3    H153330   1.661   4.599  13.760 -0.6530  0.0154  1.6691
10613TIP3    H253331   1.545   4.530  13.690  0.7174  0.0941 -0.7363
10614TIP3   OH253332   6.076   6.786  12.118 -0.0722 -0.2545  0.0380
10614TIP3    H153333   6.120   6.704  12.141  0.7410  0.4110  0.8859
10614TIP3    H253334   6.140   6.854  12.138 -0.1824  0.5212 -2.0666
10615TIP3   OH253335   3.280   5.179   3.348  0.4979 -0.0482  0.3219
10615TIP3    H153336   3.353   5.150   3.294  0.8367  0.9384  0.2261
10615TIP3    H253337   3.239   5.099   3.379  1.2892 -0.6132 -0.0731
10616TIP3   OH253338   4.530   6.191   0.123 -0.7034  0.0634 -0.2438
10616TIP3    H153339   4.622   6.167   0.114 -0.8969 -1.0598  0.6943
10616TIP3    H253340   4.493   6.123   0.179 -1.6530  1.6307  1.0710
10617TIP3   OH253341   1.058   1.466  13.442  0.5257 -0.0392 -0.3690
10617TIP3    H153342   1.126   1.516  13.487  1.1309  0.2688 -1.5771
10617TIP3    H253343   0.977   1.512  13.460  0.8349  0.3724 -0.0299
10618TIP3   OH253344   2.207   3.294   1.879 -0.0808  0.3801 -0.1225
10618TIP3    H153345   2.175   3.350   1.809  0.6837  1.9279  0.7539
10618TIP3    H253346   2.281   3.247   1.840 -0.6645  0.0201 -0.8195
10619TIP3   OH253347   2.496   3.676  14.854  0.0526 -0.0276 -0.3075
10619TIP3    H153348   2.494   3.612  14.926 -3.7030  1.6660  1.2378
10619TIP3    H253349   2.430   3.644  14.792  0.3628  0.7094 -1.0308
10620TIP3   OH253350   1.768   4.726  13.825 -0.6697  0.2182  0.1252
10620TIP3    H153351   1.864   4.732  13.817 -0.5127  0.4507  2.0421
10620TIP3    H253352   1.743   4.804  13.874 -1.6907 -0.5567  0.8540
10621TIP3   OH253353   1.789   4.972   2.052 -0.4176  0.2119 -0.1714
10621TIP3    H153354   1.853   5.032   2.014  1.6093 -2.3905 -1.0583
10621TIP3    H253355   1.712   4.978   1.995  0.1066  1.3078 -0.7665
10622TIP3   OH253356   3.542   4.338   3.324 -0.5849  0.4174  0.5401
10622TIP3    H153357   3.559   4.431   3.305  0.1292 -0.1774 -1.8201
10622TIP3    H253358   3.451   4.325   3.299  0.0221 -0.0876 -1.4688
10623TIP3   OH253359   1.916   4.055  14.427  0.8525 -0.5394 -0.2710
10623TIP3    H153360   1.873   4.012  14.353  0.1224  2.2380 -1.5293
10623TIP3    H253361   1.845   4.077  14.487  1.1511 -0.6277  0.1182
10624TIP3   OH253362   6.309   5.413  14.561 -0.5230 -0.1300  0.5600
10624TIP3    H153363   6.334   5.484  14.620 -1.7497 -1.0674  2.2332
10624TIP3    H253364   6.348   5.335  14.600 -2.0120 -0.8733  0.5825
10625TIP3   OH253365   5.924   5.886  15.318 -0.4259  0.1837  0.0876
10625TIP3    H153366   5.968   5.957  15.272 -0.6782 -0.1410 -0.6599
10625TIP3    H253367   5.902   5.823  15.250 -0.1828 -0.6240  0.7435
10626TIP3   OH253368   2.375   5.929   1.852  0.4303  0.3428 -0.3831
10626TIP3    H153369   2.399   5.842   1.885  0.1063  0.8830  1.2819
10626TIP3    H253370   2.292   5.914   1.806  0.3794 -0.2338 -0.1120
10627TIP3   OH253371   4.951   1.187   3.207 -0.2685 -0.4642  0.1902
10627TIP3    H153372   5.015   1.128   3.168 -0.8401 -1.9005  1.3953
10627TIP3    H253373   4.869   1.139   3.205 -1.0114  0.7896  0.0170
10628TIP3   OH253374   3.393   3.081  13.273 -0.3903 -0.9653 -0.4066
10628TIP3    H153375   3.348   3.019  13.215 -1.3321 -0.2885 -0.4058
10628TIP3    H253376   3.334   3.092  13.347 -0.5155  0.4067 -0.6968
10629TIP3   OH253377   1.842   3.130  14.616 -0.2628  0.0620  0.2836
10629TIP3    H153378   1.843   3.112  14.522 -2.1765  0.9686  0.0581
10629TIP3    H253379   1.810   3.049  14.656  1.5712 -0.6933  0.2759
10630TIP3   OH253380   3.000   1.795   1.550 -0.0446  0.4826 -0.4723
10630TIP3    H153381   3.065   1.822   1.615  0.0646 -2.4091  0.6599
10630TIP3    H253382   2.924   1.851   1.567  1.0768  1.8556  0.1124
10631TIP3   OH253383   1.316   2.744   1.200  0.1439  0.0166 -0.6097
10631TIP3    H153384   1.291   2.792   1.279 -0.4123  0.0136 -0.7823
10631TIP3    H253385   1.262   2.782   1.131 -0.3863 -0.9270 -0.7242
10632TIP3   OH253386   2.982   0.866   1.137  0.1818  0.3977 -0.2409
10632TIP3    H153387   3.024   0.782   1.122 -1.5288 -0.5388  0.1307
10632TIP3    H253388   2.896   0.858   1.097  0.2411  2.2216 -0.8149
10633TIP3   OH253389   6.736   0.562  15.522  0.6054 -0.0841 -0.5182
10633TIP3    H153390   6.807   0.511  15.484  1.1942 -1.2119  1.9536
10633TIP3    H253391   6.779   0.643  15.551  0.4825  0.0908 -0.8267
10634TIP3   OH253392   4.834   2.312   6.156 -0.2552  0.3740 -0.9555
10634TIP3    H153393   4.856   2.299   6.064  0.4025 -0.6515 -0.6660
10634TIP3    H253394   4.888   2.386   6.183  0.8727 -0.4450 -0.9452
10635TIP3   OH253395   2.208   2.770   4.058  0.2077  0.4590 -0.1900
10635TIP3    H153396   2.163   2.695   4.096 -0.7069  1.6890  1.2068
10635TIP3    H253397   2.172   2.777   3.969 -1.1716  0.4386  0.3544
10636TIP3   OH253398   2.751   4.205  11.523 -0.4173  0.3179 -0.3793
10636TIP3    H153399   2.699   4.282  11.498 -0.7468  0.4095  0.5367
10636TIP3    H253400   2.694   4.156  11.581  0.2400  0.0128  0.0179
10637TIP3   OH253401   2.964   5.057  13.865 -0.3663  0.4356 -0.1568
10637TIP3    H153402   2.990   5.031  13.776  1.4958  0.7858  0.2718
10637TIP3    H253403   2.876   5.093  13.854 -0.6568 -0.6791 -1.6678
10638TIP3   OH253404   3.642   3.314   2.116 -0.0480  0.2816 -0.1942
10638TIP3    H153405   3.625   3.234   2.065  2.0705 -1.1908  1.3265
10638TIP3    H253406   3.648   3.284   2.206 -4.1614  2.9243  1.1023
10639TIP3   OH253407   0.507   4.353   0.840 -0.3034  0.0343  0.6134
10639TIP3    H153408   0.478   4.333   0.752  2.2565 -1.4851  0.0618
10639TIP3    H253409   0.562   4.431   0.830 -0.6453  0.3198  0.9697
10640TIP3   OH253410   3.295   6.221   3.085  0.1158  0.0192 -0.4071
10640TIP3    H153411   3.236   6.290   3.115 -0.6735 -0.4965 -0.7454
10640TIP3    H253412   3.301   6.160   3.158 -0.0626 -0.1139 -0.5026
10641TIP3   OH253413   2.708   0.268   5.837  0.1519  0.5874  0.0917
10641TIP3    H153414   2.646   0.195   5.840 -0.8127  1.4431  5.4117
10641TIP3    H253415   2.660   0.337   5.790 -0.9216 -0.4591 -0.3883
10642TIP3   OH253416   5.349   4.822   2.876 -0.8157  0.5581  0.3381
10642TIP3    H153417   5.362   4.737   2.918 -2.8722 -0.2247 -0.5235
10642TIP3    H253418   5.436   4.850   2.849 -0.1020 -1.1887  0.7941
10643TIP3   OH253419   2.011   5.188   3.934 -0.0005  0.0073  0.6893
10643TIP3    H153420   1.955   5.221   3.864  0.6815 -1.2585 -0.4787
10643TIP3    H253421   2.032   5.265   3.987  0.7813  1.2862 -1.4236
10644TIP3   OH253422   4.039   5.860  14.028 -0.0728  0.0947  0.3891
10644TIP3    H153423   3.948   5.886  14.043 -0.0849 -0.1666  0.8010
10644TIP3    H253424   4.051   5.864  13.934 -0.8924 -1.0932  0.2248
10645TIP3   OH253425   6.804   5.793  12.052  0.7041 -0.1903  0.0949
10645TIP3    H153426   6.753   5.743  11.989  1.7000 -1.4701  0.2851
10645TIP3    H253427   6.740   5.823  12.117 -0.0467 -0.3690 -0.5610
10646TIP3   OH253428   4.651   6.392  17.145 -0.0120  0.5203  0.0202
10646TIP3    H153429   4.619   6.333  17.213  2.5219  2.0106  2.6271
10646TIP3    H253430   4.591   6.467  17.148  0.4996  0.8968  1.1501
10647TIP3   OH253431   4.373   3.076   0.174 -0.0091  0.2073 -0.2755
10647TIP3    H153432   4.438   3.016   0.137 -1.2469 -0.5238 -1.3178
10647TIP3    H253433   4.388   3.158   0.128  0.0916  0.0072 -0.6051
10648TIP3   OH253434   1.943   0.116   0.649  0.2474  0.5291 -0.0980
10648TIP3    H153435   1.858   0.130   0.692  0.0682 -1.0741  0.0956
10648TIP3    H253436   1.997   0.188   0.681 -0.3714  0.2844  1.5728
10649TIP3   OH253437   2.604   5.471   4.066  0.2944 -0.2090 -0.2692
10649TIP3    H153438   2.567   5.442   4.150 -0.1788 -0.4639 -0.5631
10649TIP3    H253439   2.684   5.419   4.057  0.1089 -0.5145 -0.1888
10650TIP3   OH253440   4.315   0.278   0.143  0.3473 -0.1288  0.0861
10650TIP3    H153441   4.396   0.287   0.094  0.3942  2.0809  0.5458
10650TIP3    H253442   4.342   0.242   0.228  0.9302  1.2392  0.4837
10651TIP3   OH253443   3.348   3.593  12.229  0.1290 -0.2619 -0.1093
10651TIP3    H153444   3.290   3.596  12.154  0.0007  1.7316  0.0477
10651TIP3    H253445   3.423   3.647  12.204  1.2754 -1.6523  0.2290
10652TIP3   OH253446   2.883   5.255  12.475 -0.2798 -0.0873  0.0556
10652TIP3    H153447   2.889   5.349  12.491  1.7310 -0.0906 -0.5622
10652TIP3    H253448   2.861   5.218  12.560 -1.3484  0.9551  0.2505
10653TIP3   OH253449   6.126   2.701  12.121  0.0910 -0.0208 -0.1852
10653TIP3    H153450   6.198   2.726  12.179  1.1321  0.1201 -1.5084
10653TIP3    H253451   6.151   2.614  12.088 -0.0148  0.3256 -1.1804
10654TIP3   OH253452   6.602   3.436  15.949 -0.6350  0.2226  0.2498
10654TIP3    H153453   6.587   3.493  15.873  0.1527 -0.1437 -0.1781
10654TIP3    H253454   6.696   3.420  15.949 -0.8327 -0.9331  0.4859
10655TIP3   OH253455   1.463   1.108  15.580 -0.0720 -1.0763  0.0662
10655TIP3    H153456   1.435   1.143  15.496 -0.5531 -2.2922 -0.2816
10655TIP3    H253457   1.489   1.185  15.631  0.4318 -0.3610 -1.2661
10656TIP3   OH253458   5.801   4.509   3.574 -0.4394 -0.4700  0.2828
10656TIP3    H153459   5.843   4.555   3.502  0.7143 -1.7726  0.1127
10656TIP3    H253460   5.841   4.422   3.574 -0.8041 -0.6574  2.1538
10657TIP3   OH253461   3.053   1.291   3.799  0.1541 -0.1035 -0.2358
10657TIP3    H153462   2.989   1.319   3.865  0.4038  1.0756 -0.4838
10657TIP3    H253463   2.999   1.266   3.724 -0.1251 -1.3561  0.3633
10658TIP3   OH253464   4.744   3.709  14.500  0.4180 -0.3572  0.5240
10658TIP3    H153465   4.827   3.690  14.543  0.2441  1.0856  1.5259
10658TIP3    H253466   4.738   3.804  14.499 -1.3360 -0.4486  0.6951
10659TIP3   OH253467   5.425   5.457  11.950  0.1392  0.7825  0.2642
10659TIP3    H153468   5.378   5.496  12.024  0.6384  2.1664 -0.1279
10659TIP3    H253469   5.379   5.375  11.933 -0.6230  0.9504  1.4441
10660TIP3   OH253470   6.308   4.024  13.875 -0.2502  0.1523 -0.0493
10660TIP3    H153471   6.306   4.018  13.970 -2.0751  2.1874  0.0626
10660TIP3    H253472   6.313   3.933  13.846  0.2664 -0.4931  1.9652
10661TIP3   OH253473   4.546   5.706   3.869 -0.9455 -0.3095  0.1225
10661TIP3    H153474   4.525   5.799   3.859 -0.4935 -0.2701 -0.4754
10661TIP3    H253475   4.640   5.705   3.887 -1.1814 -0.5735  1.4033
10662TIP3   OH253476   5.675   2.700  16.404 -0.0165 -0.3180  0.2617
10662TIP3    H153477   5.702   2.685  16.313  0.8606 -0.5219  0.5460
10662TIP3    H253478   5.589   2.740  16.397  0.1293 -0.1488 -0.6716
10663TIP3   OH253479   6.372   5.997  14.387 -0.1822 -0.0822  0.4714
10663TIP3    H153480   6.384   6.041  14.471  0.3588  0.5292  0.0795
10663TIP3    H253481   6.390   6.065  14.322  1.2779 -1.0429 -0.1581
10664TIP3   OH253482   4.325   5.427  11.393 -0.1222  0.8056  0.4446
10664TIP3    H153483   4.288   5.463  11.312 -0.6020 -0.2324  0.1848
10664TIP3    H253484   4.277   5.471  11.463 -1.0980  0.2613  0.1248
10665TIP3   OH253485   2.463   4.999   3.531  0.1428 -0.1261  0.2439
10665TIP3    H153486   2.444   4.923   3.475 -0.5273 -1.1672  1.8757
10665TIP3    H253487   2.476   4.962   3.618  0.6067  1.5595  0.8991
10666TIP3   OH253488   1.336   2.349  16.381 -0.1409  0.2279 -0.0246
10666TIP3    H153489   1.361   2.411  16.312 -0.4858  1.3694  0.8714
10666TIP3    H253490   1.258   2.387  16.420  0.4171 -0.1130  1.4220
10667TIP3   OH253491   0.538   6.770  13.173  0.2970  0.3643 -0.3242
10667TIP3    H153492   0.534   6.819  13.091 -1.1168 -2.4103 -1.9974
10667TIP3    H253493   0.447   6.743  13.189  0.7104  0.0498  1.6437
10668TIP3   OH253494   2.107   1.970  14.925  0.1258 -0.2050 -0.1277
10668TIP3    H153495   2.164   2.044  14.902 -0.7855  0.4743 -0.2108
10668TIP3    H253496   2.102   1.972  15.020  0.3728 -0.3633 -0.1115
10669TIP3   OH253497   3.441   5.887   2.785  0.1522  0.1063 -0.0025
10669TIP3    H153498   3.530   5.862   2.809  0.0797  0.6446  0.8512
10669TIP3    H253499   3.407   5.812   2.736  1.7162  0.6583 -1.9748
10670TIP3   OH253500   1.758   3.901  16.407 -0.3298 -0.3137  0.1756
10670TIP3    H153501   1.734   3.991  16.382  0.1860 -0.0248  0.6902
10670TIP3    H253502   1.827   3.877  16.346 -1.1937 -0.7516 -0.6282
10671TIP3   OH253503   0.133   0.843  15.322 -0.5128  0.5371  0.0269
10671TIP3    H153504   0.225   0.834  15.350 -0.8441 -0.1394  0.9208
10671TIP3    H253505   0.130   0.928  15.279  0.2141  1.2596  1.3448
10672TIP3   OH253506   3.357   5.160  12.157 -0.6700  0.2387 -0.2601
10672TIP3    H153507   3.400   5.078  12.182  0.7219  0.4597 -1.8579
10672TIP3    H253508   3.263   5.139  12.158 -0.3841 -1.0729  0.3403
10673TIP3   OH253509   1.462   5.562  16.747  0.0134  0.5638 -0.0602
10673TIP3    H153510   1.454   5.653  16.719  2.5833  1.4519  1.8529
10673TIP3    H253511   1.553   5.539  16.729 -0.3589 -1.3052  0.3438
10674TIP3   OH253512   0.699   3.422   4.388 -0.0296 -0.2064  0.1700
10674TIP3    H153513   0.630   3.429   4.323 -1.0619  2.2474  1.4548
10674TIP3    H253514   0.677   3.343   4.438 -0.6495 -0.6693 -0.8197
10675TIP3   OH253515   6.819   0.378   2.075 -0.1686  0.1442  0.0541
10675TIP3    H153516   6.903   0.334   2.070 -0.0330  0.4933 -0.8559
10675TIP3    H253517   6.770   0.346   1.999 -0.6391  0.3776  0.2554
10676TIP3   OH253518   4.989   0.946   4.367  0.2056  0.1900 -0.2682
10676TIP3    H153519   5.068   0.934   4.315  1.2782  2.7950  0.6412
10676TIP3    H253520   4.938   1.012   4.319 -0.0948  0.5648  0.5441
10677TIP3   OH253521   4.728   4.368  13.525  0.0674  0.1992  0.6667
10677TIP3    H153522   4.728   4.282  13.567 -0.2097  0.3335  0.9408
10677TIP3    H253523   4.682   4.425  13.586  0.1594  0.5219  0.4380
10678TIP3   OH253524   4.488   1.866   3.959  0.1729 -0.0596 -0.3483
10678TIP3    H153525   4.541   1.786   3.961  0.3481  0.0634  0.1444
10678TIP3    H253526   4.522   1.915   3.884  1.1479  0.2749  0.2910
10679TIP3   OH253527   0.511   6.176   4.365 -0.6122  0.4547  0.0701
10679TIP3    H153528   0.598   6.207   4.340  0.2230 -0.9866  1.1516
10679TIP3    H253529   0.462   6.173   4.282  0.6183  0.4314 -0.6630
10680TIP3   OH253530   1.083   0.953   4.988 -0.3029  0.0283 -0.2722
10680TIP3    H153531   1.050   0.954   4.898 -0.7302  0.9474 -0.1149
10680TIP3    H253532   1.173   0.922   4.981  0.2814  1.8551 -1.2447
10681TIP3   OH253533   0.502   2.930  15.965  0.3744 -0.0032  0.2812
10681TIP3    H153534   0.521   2.986  16.040  0.1339  0.2810  0.1317
10681TIP3    H253535   0.416   2.894  15.982  0.5088 -0.2917  0.3544
10682TIP3   OH253536   5.725   4.363  15.065 -0.1820 -0.4340  0.2455
10682TIP3    H153537   5.713   4.372  14.971 -3.7760  0.4505  0.7288
10682TIP3    H253538   5.782   4.436  15.089  0.0369 -0.1584 -1.0989
10683TIP3   OH253539   3.926   2.989   0.453  0.4114 -0.1193  0.4233
10683TIP3    H153540   3.923   3.081   0.428 -0.6180 -0.1861  0.2814
10683TIP3    H253541   3.976   2.947   0.383  0.1997  0.1992  0.0766
10684TIP3   OH253542   4.459   4.293  13.881 -0.2380  0.1663  0.0851
10684TIP3    H153543   4.400   4.365  13.905  1.0201  1.3234 -0.2452
10684TIP3    H253544   4.523   4.291  13.952 -0.3450 -0.7231  0.1592
10685TIP3   OH253545   6.495   2.805   1.672  0.1353  0.3829 -0.6467
10685TIP3    H153546   6.498   2.724   1.621 -2.7471 -0.2175  0.0763
10685TIP3    H253547   6.569   2.797   1.732 -0.2891 -1.8650 -0.3695
10686TIP3   OH253548   3.774   0.100   1.525 -0.1812 -0.3297 -0.5235
10686TIP3    H153549   3.704   0.058   1.475  0.1966 -1.6527  0.0388
10686TIP3    H253550   3.731   0.172   1.571 -1.7434 -2.7791  1.9531
10687TIP3   OH253551   4.001   2.314   1.368 -0.3006 -0.1390  0.8523
10687TIP3    H153552   4.060   2.358   1.306  1.4906 -1.4935  1.5781
10687TIP3    H253553   3.928   2.283   1.313  1.1583 -1.1471 -0.5645
10688TIP3   OH253554   1.758   2.629  15.973 -0.1102 -0.1700  0.5462
10688TIP3    H153555   1.761   2.701  15.911 -0.2505 -0.9370 -0.3589
10688TIP3    H253556   1.817   2.656  16.044  0.2539  0.5880 -0.0402
10689TIP3   OH253557   5.064   1.099  11.174  0.0077  0.7007  0.8080
10689TIP3    H153558   5.095   1.073  11.261  0.8637  0.3699  0.4116
10689TIP3    H253559   5.065   1.017  11.123 -2.5063  0.4658  1.0641
10690TIP3   OH253560   5.583   4.470  12.014 -0.4301  0.1915  0.5427
10690TIP3    H153561   5.567   4.406  11.945  2.3567 -0.5297  0.5208
10690TIP3    H253562   5.499   4.516  12.024 -2.2330 -2.8348 -0.0410
10691TIP3   OH253563   0.934   6.484  11.677 -0.1463  0.4209 -0.3370
10691TIP3    H153564   0.943   6.553  11.611 -0.2502  2.0661  1.3158
10691TIP3    H253565   0.852   6.440  11.655 -1.0687  2.0856 -0.2708
10692TIP3   OH253566   3.941   5.945   4.652 -0.4471 -0.3136  0.5152
10692TIP3    H153567   4.010   6.010   4.662 -1.7677  0.9264  1.8968
10692TIP3    H253568   3.984   5.861   4.666  1.1309  0.3052 -0.5495
10693TIP3   OH253569   2.986   3.131   1.773 -0.6266 -0.2589 -0.3343
10693TIP3    H153570   2.902   3.104   1.737 -0.6718 -0.2279 -0.2507
10693TIP3    H253571   2.980   3.112   1.866 -0.7060  0.1594 -0.2554
10694TIP3   OH253572   2.079   4.972   2.892 -0.0567  0.3371  0.4038
10694TIP3    H153573   2.010   4.912   2.921  0.9124 -0.2410  1.5592
10694TIP3    H253574   2.113   5.010   2.973 -0.2159  1.9651 -0.2815
10695TIP3   OH253575   0.979   1.953  17.049  0.1003 -0.3301 -0.3547
10695TIP3    H153576   0.939   1.898  17.116  0.8176 -1.0867 -0.5303
10695TIP3    H253577   1.039   2.010  17.097 -1.7217  1.3180 -0.0138
10696TIP3   OH253578   5.170   1.176   6.758 -0.0386  0.6933 -0.6447
10696TIP3    H153579   5.137   1.106   6.703 -0.5672 -1.2707  2.0885
10696TIP3    H253580   5.225   1.133   6.823  0.5020  2.9286  0.4567
10697TIP3   OH253581   0.278   0.357   4.438  0.2609  0.3105 -0.3137
10697TIP3    H153582   0.318   0.400   4.363  0.5728  4.4456  2.0563
10697TIP3    H253583   0.184   0.368   4.425  0.2222 -0.8212 -1.0762
10698TIP3   OH253584   0.203   3.151  13.994  0.3953 -0.0711  0.1728
10698TIP3    H153585   0.120   3.179  14.034  0.4399  2.0198 -1.1866
10698TIP3    H253586   0.177   3.095  13.921  0.2616 -1.3097  1.1373
10699TIP3   OH253587   2.175   1.819  11.954 -0.2217 -0.8207  0.6436
10699TIP3    H153588   2.181   1.778  11.868  0.4506 -0.8323  0.6976
10699TIP3    H253589   2.263   1.852  11.971 -0.1445 -1.5708  1.7039
10700TIP3   OH253590   5.500   4.679  13.228 -0.2747 -0.0010  0.2813
10700TIP3    H153591   5.536   4.602  13.270 -0.1235  0.0982  0.3334
10700TIP3    H253592   5.408   4.680  13.253 -0.1520  0.1372  0.7260
10701TIP3   OH253593   0.825   0.987   5.123  0.5700 -0.1197  0.1629
10701TIP3    H153594   0.904   0.947   5.087  0.0851 -0.0212 -1.0347
10701TIP3    H253595   0.769   0.913   5.146  0.5969 -0.1693  0.0683
10702TIP3   OH253596   0.476   3.595   2.394  0.7744 -0.0780  0.4427
10702TIP3    H153597   0.435   3.510   2.377 -1.8330  1.0078  1.0569
10702TIP3    H253598   0.474   3.640   2.310  0.1347  0.2194  0.6193
10703TIP3   OH253599   0.764   0.087   5.617 -0.1124  0.8264 -0.3073
10703TIP3    H153600   0.672   0.088   5.591 -0.1654 -1.0629 -0.2539
10703TIP3    H253601   0.809   0.133   5.546 -1.1373  2.0518 -0.1750
10704TIP3   OH253602   0.614   6.276   2.840  0.3783  0.4289 -0.1592
10704TIP3    H153603   0.664   6.201   2.873 -0.0161  0.4412  0.4768
10704TIP3    H253604   0.545   6.236   2.787  0.5272  0.3690 -0.3074
10705TIP3   OH253605   1.802   5.513  17.004 -0.5547  0.1859  0.1009
10705TIP3    H153606   1.762   5.431  17.032 -0.3877  0.3666  0.8760
10705TIP3    H253607   1.833   5.554  17.085 -0.0954  0.7251 -0.3418
10706TIP3   OH253608   1.347   0.123   3.286 -0.7605 -0.5073 -0.1904
10706TIP3    H153609   1.412   0.076   3.338 -1.4093  0.5832  1.6731
10706TIP3    H253610   1.350   0.081   3.200  1.6785 -1.1396  0.1520
10707TIP3   OH253611   0.473   3.127   2.118 -0.1278 -0.1650  0.1373
10707TIP3    H153612   0.543   3.125   2.183 -0.6474 -1.0985  0.6904
10707TIP3    H253613   0.449   3.219   2.111  0.2407 -0.0002  0.9416
10708TIP3   OH253614   1.910   4.975   5.319  0.1839 -0.8447  0.1701
10708TIP3    H153615   1.891   5.032   5.245 -0.8910 -1.0881  0.2559
10708TIP3    H253616   1.826   4.934   5.341  0.3443 -0.2509  1.9615
10709TIP3   OH253617   4.040   0.874  12.146 -0.0376  0.4186  0.1139
10709TIP3    H153618   4.041   0.938  12.217 -1.7795  0.6737 -0.0640
10709TIP3    H253619   4.029   0.926  12.067  1.4279  0.0967 -0.3159
10710TIP3   OH253620   3.428   2.522   3.765 -0.5740  0.2086 -0.4156
10710TIP3    H153621   3.405   2.599   3.818 -2.3995 -1.2722  1.0199
10710TIP3    H253622   3.429   2.450   3.827  0.1660 -1.1169 -1.9288
10711TIP3   OH253623   5.620   5.646  16.641  0.2375 -0.0583 -0.4900
10711TIP3    H153624   5.711   5.659  16.614  0.0928  1.7291 -0.2072
10711TIP3    H253625   5.614   5.692  16.724 -0.7152 -0.8966 -0.0950
10712TIP3   OH253626   1.969   3.366   2.832 -0.5316  0.0818  0.6314
10712TIP3    H153627   1.969   3.281   2.790 -1.1906  0.8061 -0.8665
10712TIP3    H253628   1.903   3.417   2.785 -1.0213  1.0416  2.2852
10713TIP3   OH253629   3.297   3.428  13.594  0.0539 -0.4085 -0.1463
10713TIP3    H153630   3.204   3.407  13.589 -0.0200 -0.3023  0.5997
10713TIP3    H253631   3.304   3.518  13.562 -0.1927 -0.1952  0.3935
10714TIP3   OH253632   3.571   5.877  13.490  0.3252 -0.1504  0.1932
10714TIP3    H153633   3.630   5.821  13.439  1.4226  0.5278  0.7007
10714TIP3    H253634   3.484   5.858  13.455  0.6698 -2.1968  0.3643
10715TIP3   OH253635   1.519   0.767  16.175  0.4258 -0.1978  0.2838
10715TIP3    H153636   1.582   0.816  16.227  0.6183 -0.9896  0.8032
10715TIP3    H253637   1.549   0.676  16.179  1.3303 -0.0714 -2.4743
10716TIP3   OH253638   3.680   3.704  11.462  0.4582  0.0716  0.3841
10716TIP3    H153639   3.751   3.710  11.525 -0.1059 -0.3308  1.0716
10716TIP3    H253640   3.685   3.786  11.412  1.3919  0.0414  0.4247
10717TIP3   OH253641   5.236   1.752   2.152  0.1868  0.4711 -0.4609
10717TIP3    H153642   5.285   1.693   2.209 -0.4514  0.6021  0.2241
10717TIP3    H253643   5.213   1.699   2.076  1.0385  0.2952 -0.5996
10718TIP3   OH253644   6.454   0.580  12.580  0.1121  0.3528 -0.2341
10718TIP3    H153645   6.446   0.489  12.608 -1.5004  0.3639 -0.6616
10718TIP3    H253646   6.391   0.628  12.634  2.0501  1.4773  1.1041
10719TIP3   OH253647   2.490   5.741  15.860  0.3904 -0.3395  0.3492
10719TIP3    H153648   2.398   5.754  15.881  0.3208 -1.1602  0.5738
10719TIP3    H253649   2.506   5.798  15.784 -0.3612 -0.3764  0.1631
10720TIP3   OH253650   2.560   1.142  13.785 -0.4068 -0.7836 -0.1197
10720TIP3    H153651   2.636   1.090  13.811 -1.4463 -1.9865  0.5993
10720TIP3    H253652   2.525   1.176  13.867 -0.5067 -0.0462 -0.4675
10721TIP3   OH253653   4.681   1.625  15.488 -0.7765 -0.1896  0.1643
10721TIP3    H153654   4.746   1.673  15.436 -1.1089 -0.4330 -0.4821
10721TIP3    H253655   4.720   1.619  15.575  0.8995 -1.9347 -0.6685
10722TIP3   OH253656   2.425   0.225   1.726  0.7082  0.4244 -0.2069
10722TIP3    H153657   2.473   0.212   1.808  0.7432  0.4284 -0.2264
10722TIP3    H253658   2.449   0.150   1.672  1.1579  0.7302 -0.4367
10723TIP3   OH253659   4.042   6.779  14.223  0.5144  0.4011 -0.9674
10723TIP3    H153660   4.008   6.778  14.133 -0.2927 -1.6685 -0.6758
10723TIP3    H253661   4.137   6.786  14.213  0.2296  3.7751 -1.8687
10724TIP3   OH253662   2.172   2.091   3.514  0.1697 -0.7114 -0.4534
10724TIP3    H153663   2.239   2.102   3.581  0.2248 -0.4180 -0.5567
10724TIP3    H253664   2.101   2.044   3.558  0.9749 -2.1618 -0.6853
10725TIP3   OH253665   5.929   5.452   2.549 -0.1973 -0.2986  0.0495
10725TIP3    H153666   5.966   5.364   2.553  1.4805  0.3689 -0.5230
10725TIP3    H253667   5.850   5.447   2.603  1.5117 -1.3784  2.5663
10726TIP3   OH253668   4.569   2.486  13.071 -0.6109 -0.3493  0.2569
10726TIP3    H153669   4.548   2.579  13.067 -2.1587 -0.7530 -2.6664
10726TIP3    H253670   4.547   2.459  13.160  0.4484  2.1855  1.3191
10727TIP3   OH253671   2.769   0.157   3.083  0.4339  0.1985  0.3022
10727TIP3    H153672   2.743   0.148   3.175 -0.0948  0.5706  0.1882
10727TIP3    H253673   2.865   0.159   3.086  0.3820  1.9353  1.0022
10728TIP3   OH253674   0.519   6.044  12.014  0.6074 -0.2252  0.0933
10728TIP3    H153675   0.463   6.016  11.942 -0.4134  0.1238  0.7402
10728TIP3    H253676   0.525   5.968  12.072  1.1830 -0.4072 -0.1949
10729TIP3   OH253677   0.727   0.959   1.065 -0.1227 -0.2608  0.1820
10729TIP3    H153678   0.716   1.050   1.035 -0.2291 -0.2638  0.2131
10729TIP3    H253679   0.807   0.930   1.022 -0.6728 -0.5043 -0.6817
10730TIP3   OH253680   5.184   0.104   0.472  0.3923 -0.1644 -0.1053
10730TIP3    H153681   5.149   0.140   0.391  1.7173 -1.4825 -1.2782
10730TIP3    H253682   5.256   0.163   0.496 -0.3892  0.5742  0.4586
10731TIP3   OH253683   6.818   3.182   6.155  0.0061  0.6102 -0.1781
10731TIP3    H153684   6.909   3.199   6.133  0.4369  0.2660  1.3250
10731TIP3    H253685   6.795   3.105   6.102 -0.2994  2.3735 -2.7370
10732TIP3   OH253686   2.116   4.846   4.802 -0.0688  0.3503  0.1320
10732TIP3    H153687   2.043   4.867   4.859 -1.7095 -1.1984 -1.3379
10732TIP3    H253688   2.076   4.822   4.718  2.0585 -1.2838 -0.4778
10733TIP3   OH253689   0.309   0.675  15.775  0.0748 -0.3082  0.1690
10733TIP3    H153690   0.253   0.750  15.794  1.9202  0.7618  1.6001
10733TIP3    H253691   0.265   0.601  15.816 -1.2704  0.1469 -0.4122
10734TIP3   OH253692   3.827   0.697  13.208  0.5125  0.0280  0.3622
10734TIP3    H153693   3.815   0.690  13.113 -0.4417  2.0267  0.3009
10734TIP3    H253694   3.916   0.731  13.218  0.7255 -0.4726  0.2127
10735TIP3   OH253695   1.802   0.823  11.742  0.1886 -0.2105 -0.5763
10735TIP3    H153696   1.741   0.759  11.778 -0.6980  0.3373 -1.0634
10735TIP3    H253697   1.883   0.810  11.790 -0.5314 -0.4830  0.5754
10736TIP3   OH253698   4.609   3.020   3.453  0.3069  0.2797  0.0135
10736TIP3    H153699   4.589   2.950   3.392 -0.9539 -0.2338  0.9896
10736TIP3    H253700   4.697   3.048   3.430 -0.6338  1.0480 -2.9365
10737TIP3   OH253701   2.552   3.791  14.424  0.1647  0.3665 -0.1560
10737TIP3    H153702   2.575   3.865  14.480 -1.7471 -0.7178  2.1311
10737TIP3    H253703   2.636   3.752  14.400  0.9864 -0.6741  4.0833
10738TIP3   OH253704   4.854   0.997  11.539 -0.6221 -0.0223 -0.1048
10738TIP3    H153705   4.928   1.057  11.548 -2.2738  1.6899  2.9667
10738TIP3    H253706   4.777   1.053  11.543 -2.1723 -2.1531  0.9349
10739TIP3   OH253707   1.429   0.869   2.401 -0.4421 -0.0765  0.2369
10739TIP3    H153708   1.496   0.860   2.333 -0.2023 -0.4677  0.5195
10739TIP3    H253709   1.475   0.847   2.483  0.1273  3.5633  0.9766
10740TIP3   OH253710   0.712   6.344   5.247  0.9204  0.1466  0.5676
10740TIP3    H153711   0.659   6.264   5.256 -0.1861  0.6318 -1.3862
10740TIP3    H253712   0.801   6.312   5.235  0.6230 -0.7751  0.7464
10741TIP3   OH253713   5.585   0.909  16.026 -0.0710 -0.0660  0.1082
10741TIP3    H153714   5.514   0.961  16.064 -0.7017 -1.3535  0.7146
10741TIP3    H253715   5.646   0.974  15.990 -0.0828  1.1418  2.2025
10742TIP3   OH253716   3.665   6.771   0.149 -0.0106  0.0808 -0.3361
10742TIP3    H153717   3.589   6.720   0.177  0.3176 -0.1112  0.2122
10742TIP3    H253718   3.628   6.840   0.094 -0.5480 -0.2060 -0.3424
10743TIP3   OH253719   1.679   2.293   0.598  0.1436  0.0632  0.1210
10743TIP3    H153720   1.668   2.257   0.510  1.5806  1.3762 -0.5995
10743TIP3    H253721   1.597   2.269   0.643 -1.7859  1.7187 -2.3746
10744TIP3   OH253722   3.706   0.153  15.162 -0.1580  0.4797 -0.0344
10744TIP3    H153723   3.694   0.158  15.067  1.2093 -1.1050 -0.3170
10744TIP3    H253724   3.790   0.109  15.173 -0.1223  0.9815  1.9250
10745TIP3   OH253725   0.440   4.766  16.930  0.4309  0.4402 -0.1260
10745TIP3    H153726   0.366   4.816  16.897  0.2030  0.5844  0.6020
10745TIP3    H253727   0.407   4.677  16.939  0.5564  0.3553 -0.4910
10746TIP3   OH253728   0.774   6.258   3.832  0.0925  0.3791  0.0620
10746TIP3    H153729   0.692   6.213   3.852 -1.2759  1.9517 -1.8364
10746TIP3    H253730   0.804   6.218   3.751  1.1125 -0.0202  0.6185
10747TIP3   OH253731   3.219   3.391  11.377 -0.7504 -0.0458  0.6003
10747TIP3    H153732   3.275   3.464  11.404 -0.2652  0.0932 -0.7586
10747TIP3    H253733   3.159   3.429  11.313 -1.4232 -0.5303  0.9311
10748TIP3   OH253734   1.598   5.071   6.518  0.4026 -0.0024 -0.2458
10748TIP3    H153735   1.574   4.984   6.548  2.6318 -0.5204  0.1266
10748TIP3    H253736   1.515   5.118   6.510 -0.7497 -1.9205  0.2660
10749TIP3   OH253737   5.895   5.129   0.182  0.2580  0.3833 -0.5007
10749TIP3    H153738   5.889   5.224   0.172 -0.7179  0.4901  0.9218
10749TIP3    H253739   5.804   5.099   0.183  0.5789 -0.6560 -1.6949
10750TIP3   OH253740   4.159   1.639  15.998  0.2458 -0.6895 -0.0191
10750TIP3    H153741   4.065   1.633  15.980  0.4293 -2.3825 -0.4530
10750TIP3    H253742   4.197   1.669  15.915  0.3120 -2.0227 -0.4868
10751TIP3   OH253743   6.290   4.970  11.940 -0.0440 -0.1328 -0.2715
10751TIP3    H153744   6.341   4.909  11.887  2.5459 -0.0702  2.0334
10751TIP3    H253745   6.329   5.055  11.922 -1.1658  0.3190 -0.5850
10752TIP3   OH253746   5.989   1.623   0.446 -0.0564  0.8325  0.2076
10752TIP3    H153747   5.981   1.624   0.351 -0.7129 -2.5189  0.1687
10752TIP3    H253748   6.069   1.573   0.463 -1.7841 -1.6244  1.4373
10753TIP3   OH253749   2.738   3.141  11.322 -0.0788 -0.0007  0.2694
10753TIP3    H153750   2.831   3.147  11.299  0.5026 -1.4700  2.1384
10753TIP3    H253751   2.717   3.048  11.310 -0.3345 -0.3910  3.3851
10754TIP3   OH253752   0.079   4.064   4.443  0.6527 -0.0035  0.2335
10754TIP3    H153753   0.100   4.096   4.531  2.8139  2.7934 -1.2028
10754TIP3    H253754   0.142   3.994   4.427  1.6995  0.9356  0.1441
10755TIP3   OH253755   0.702   1.036   1.340  0.0560  0.2166  0.6505
10755TIP3    H153756   0.630   0.976   1.359 -0.1843  0.3330  0.1211
10755TIP3    H253757   0.721   1.022   1.247  1.2821 -0.4149  0.9827
10756TIP3   OH253758   4.981   6.252  17.197 -0.6049 -0.2554  0.6333
10756TIP3    H153759   5.029   6.334  17.207  0.9434 -1.2093  1.1984
10756TIP3    H253760   4.970   6.242  17.102  0.3415 -0.0319  0.5013
10757TIP3   OH253761   6.502   6.266  12.655  0.2082 -0.1577  0.1453
10757TIP3    H153762   6.491   6.260  12.750  1.1763  0.1289  0.2805
10757TIP3    H253763   6.544   6.351  12.641  0.5746 -0.4427 -0.4970
10758TIP3   OH253764   4.616   4.271  14.097 -0.3512 -0.0577  0.0542
10758TIP3    H153765   4.559   4.231  14.162  0.2303 -0.3762  0.3758
10758TIP3    H253766   4.662   4.340  14.145 -0.4766  0.2101 -0.2088
10759TIP3   OH253767   2.879   1.791   4.257 -0.8156  0.2301  0.1530
10759TIP3    H153768   2.878   1.785   4.161 -0.9804  0.3695  0.1454
10759TIP3    H253769   2.788   1.808   4.281 -0.5317  1.7518  0.2305
10760TIP3   OH253770   4.971   5.630   0.806 -0.2921  0.4641  0.5783
10760TIP3    H153771   4.938   5.679   0.731  0.1209 -0.9096 -0.5275
10760TIP3    H253772   4.907   5.560   0.819  0.8701 -0.7334 -0.0205
10761TIP3   OH253773   0.524   5.772  13.880 -0.4750 -0.8821  0.3511
10761TIP3    H153774   0.513   5.801  13.790 -1.4789  3.3946  1.7600
10761TIP3    H253775   0.617   5.748  13.886  0.2103  1.2717 -1.1499
10762TIP3   OH253776   5.476   4.984   5.097  0.2986 -0.0007 -0.7487
10762TIP3    H153777   5.491   4.997   5.003 -0.2734  1.4134 -0.6598
10762TIP3    H253778   5.453   4.892   5.105 -2.1389  0.4193 -2.3432
10763TIP3   OH253779   5.413   3.383  16.444  0.5710 -0.3288  0.1627
10763TIP3    H153780   5.415   3.459  16.503  1.3128  0.3802 -0.7700
10763TIP3    H253781   5.430   3.419  16.357 -3.8647 -0.8684 -1.0796
10764TIP3   OH253782   2.779   3.824   2.808 -0.2580  0.4977  0.3917
10764TIP3    H153783   2.840   3.815   2.736  0.2913  0.8696  0.8099
10764TIP3    H253784   2.821   3.885   2.868 -1.0718  0.8246  0.6405
10765TIP3   OH253785   5.726   5.204  16.914  0.5597  0.3916 -0.3722
10765TIP3    H153786   5.784   5.276  16.890  0.4008  0.7301  0.2273
10765TIP3    H253787   5.780   5.126  16.907  1.0971  0.7029  0.1807
10766TIP3   OH253788   4.796   5.352   3.161 -0.0776 -0.3610  0.3108
10766TIP3    H153789   4.843   5.421   3.207 -0.6874 -0.0341  0.4551
10766TIP3    H253790   4.735   5.316   3.226 -1.8162  0.9411 -0.5626
10767TIP3   OH253791   3.297   3.856   0.277  0.2678 -0.3357  0.0631
10767TIP3    H153792   3.215   3.822   0.241  0.2454 -0.4501  0.2177
10767TIP3    H253793   3.325   3.788   0.338 -1.1022  1.0523  2.3130
10768TIP3   OH253794   0.686   0.864  14.976  0.1817  0.1721 -0.8841
10768TIP3    H153795   0.704   0.948  15.017  1.3008  0.3203 -1.6770
10768TIP3    H253796   0.601   0.877  14.932 -0.6066  0.2702  0.6207
10769TIP3   OH253797   3.426   1.642  17.270  0.0503  0.2648 -0.0679
10769TIP3    H153798   3.455   1.570  17.326  3.5345  1.5437 -0.1271
10769TIP3    H253799   3.405   1.713  17.330  2.6601  1.2363 -0.2078
10770TIP3   OH253800   4.486   6.816   2.119 -0.5651  0.1852 -0.1823
10770TIP3    H153801   4.403   6.831   2.164 -1.5788  0.5432 -2.1248
10770TIP3    H253802   4.507   6.900   2.078  2.1054  0.8658  2.3986
10771TIP3   OH253803   2.484   5.721   1.504 -0.2487 -0.3488 -0.0903
10771TIP3    H153804   2.407   5.683   1.547  0.5441  0.2410  1.9248
10771TIP3    H253805   2.448   5.785   1.443 -1.3493  1.1166  2.0230
10772TIP3   OH253806   6.138   1.172   5.591  0.2178 -0.3090 -0.7308
10772TIP3    H153807   6.084   1.212   5.659  0.4438 -1.0961 -0.0778
10772TIP3    H253808   6.158   1.243   5.531  0.4076  0.5108  0.2891
10773TIP3   OH253809   1.732   1.914  12.742 -0.3452 -0.0853  0.0600
10773TIP3    H153810   1.784   1.885  12.817 -0.0498 -0.8985 -0.4443
10773TIP3    H253811   1.790   1.971  12.692  0.0212 -0.8835 -0.4303
10774TIP3   OH253812   2.185   0.783   2.840 -0.3128  0.2276 -0.3604
10774TIP3    H153813   2.124   0.713   2.861 -0.3956  0.6269  0.7521
10774TIP3    H253814   2.131   0.853   2.804 -0.0674 -0.7907 -2.7792
10775TIP3   OH253815   2.991   5.735   1.482 -0.0672  0.6182  0.5780
10775TIP3    H153816   2.900   5.718   1.457  0.2616  0.6620 -0.6964
10775TIP3    H253817   2.986   5.766   1.572 -1.2806  0.2247  0.6554
10776TIP3   OH253818   2.190   4.623  14.952  0.3272 -0.6042  0.3902
10776TIP3    H153819   2.115   4.645  14.896  0.3758 -0.0951  0.5203
10776TIP3    H253820   2.154   4.568  15.021 -0.2071  0.8403  1.2879
10777TIP3   OH253821   5.262   3.746   1.546  0.3023 -0.3683  0.3360
10777TIP3    H153822   5.212   3.736   1.627  0.4778  0.5788  0.5689
10777TIP3    H253823   5.353   3.743   1.573  0.3605  0.7543  0.2813
10778TIP3   OH253824   6.138   1.002  11.034 -0.3710 -0.6522  0.3261
10778TIP3    H153825   6.111   0.996  10.943 -3.1974  0.0710  1.0659
10778TIP3    H253826   6.201   1.074  11.036 -2.1645  1.0111 -0.6894
10779TIP3   OH253827   3.735   1.826  15.052 -0.1702 -0.0735 -0.3208
10779TIP3    H153828   3.816   1.778  15.065  0.3583  0.6810 -0.7930
10779TIP3    H253829   3.748   1.875  14.971 -1.2748 -0.3118 -0.6508
10780TIP3   OH253830   1.818   4.005  15.513 -0.0229  0.3078  0.0792
10780TIP3    H153831   1.800   3.975  15.424 -0.4111  1.6852 -0.3246
10780TIP3    H253832   1.911   3.988  15.526  0.0988  0.3639 -0.7021
10781TIP3   OH253833   3.476   5.984  12.684 -0.6292 -0.1294 -0.8287
10781TIP3    H153834   3.408   5.926  12.718 -1.1628 -0.0871 -1.7901
10781TIP3    H253835   3.523   5.930  12.620 -1.5501  0.6725 -2.2199
10782TIP3   OH253836   5.204   0.075  14.398  0.4157 -0.6116  0.5296
10782TIP3    H153837   5.192   0.086  14.303 -0.9447  1.2512  0.8945
10782TIP3    H253838   5.158  -0.006  14.419 -0.3822 -0.3547 -0.1972
10783TIP3   OH253839   3.186   6.128   6.555 -0.1109 -0.5855 -0.3235
10783TIP3    H153840   3.106   6.078   6.574 -1.8868  2.2625 -0.0205
10783TIP3    H253841   3.252   6.061   6.535 -2.9703 -2.9962 -2.1850
10784TIP3   OH253842   1.810   1.272  15.518 -0.6673 -0.0073 -0.0498
10784TIP3    H153843   1.879   1.244  15.458  2.4598  2.4600  2.1880
10784TIP3    H253844   1.797   1.198  15.577  0.2034 -0.4283 -0.3779
10785TIP3   OH253845   6.728   3.996  12.881  0.4495  0.3398  0.2760
10785TIP3    H153846   6.698   4.048  12.956  3.5563  1.6366  0.6772
10785TIP3    H253847   6.788   3.932  12.919 -1.8973 -2.4004 -0.4828
10786TIP3   OH253848   5.692   1.752  10.622 -0.2637 -0.5263  0.9068
10786TIP3    H153849   5.784   1.756  10.595  0.0383  1.0850  2.0996
10786TIP3    H253850   5.648   1.704  10.551  1.2391 -0.0590 -0.3689
10787TIP3   OH253851   1.502   0.261   3.759 -0.3815 -0.2933  0.3312
10787TIP3    H153852   1.507   0.166   3.764 -0.4889 -0.2337  1.7397
10787TIP3    H253853   1.408   0.280   3.750 -0.2551 -0.3649 -1.2791
10788TIP3   OH253854   3.737   3.855   1.576  0.6641  0.3309  0.3122
10788TIP3    H153855   3.813   3.812   1.614  0.1442  0.1400  1.1606
10788TIP3    H253856   3.771   3.937   1.539  1.5051 -0.4017 -0.5310
10789TIP3   OH253857   3.924   1.749   0.697 -0.2817  0.5543  0.3729
10789TIP3    H153858   3.919   1.844   0.708 -1.5990  0.5185  0.1728
10789TIP3    H253859   3.973   1.719   0.774 -0.5467  1.3172  0.8488
10790TIP3   OH253860   0.191   1.804   3.982 -0.1791 -0.1897  0.6010
10790TIP3    H153861   0.121   1.866   3.961  1.3285  1.1650 -0.5911
10790TIP3    H253862   0.261   1.859   4.018  1.3861 -1.0948 -0.9557
10791TIP3   OH253863   2.070   3.213   1.383  0.1921 -0.0517  0.9304
10791TIP3    H153864   2.066   3.309   1.379  1.8143 -0.0059 -0.3031
10791TIP3    H253865   2.057   3.185   1.292 -0.7992 -1.0490  1.3609
10792TIP3   OH253866   0.108   4.456  12.394 -0.1639 -0.0158  0.0501
10792TIP3    H153867   0.019   4.452  12.360 -0.4177  0.2402  0.6712
10792TIP3    H253868   0.100   4.429  12.486  0.0823  1.9800  0.6814
10793TIP3   OH253869   1.992   1.514   4.063 -0.1576 -0.1985  0.3721
10793TIP3    H153870   2.046   1.592   4.074 -1.0571  0.3584  0.8960
10793TIP3    H253871   2.035   1.446   4.115 -0.5936  0.5554  1.7273
10794TIP3   OH253872   0.017   5.484   5.443 -0.8498 -0.2887 -0.0845
10794TIP3    H153873   0.027   5.389   5.434  2.9158 -0.1537  1.6782
10794TIP3    H253874  -0.053   5.494   5.507 -1.5035 -1.8496 -0.5171
10795TIP3   OH253875   5.645   2.639  17.114 -0.0620 -0.0296  0.1277
10795TIP3    H153876   5.591   2.624  17.191 -0.6263 -1.2960 -0.5036
10795TIP3    H253877   5.582   2.654  17.043  0.4501  1.6914  0.0155
10796TIP3   OH253878   5.644   2.775   4.797  0.1864 -1.0350 -0.3033
10796TIP3    H153879   5.662   2.839   4.866  3.5801 -0.5214 -1.5717
10796TIP3    H253880   5.595   2.825   4.731 -1.4952 -1.0649  0.8964
10797TIP3   OH253881   6.751   0.580  14.362 -0.2342  0.2156  0.0473
10797TIP3    H153882   6.835   0.581  14.407 -0.8193  2.1724  1.1359
10797TIP3    H253883   6.771   0.608  14.272  0.2482  0.8369  0.3496
10798TIP3   OH253884   4.777   4.249  12.929  0.0549  0.1526  0.1917
10798TIP3    H153885   4.802   4.308  13.000  2.5189 -0.5113 -0.0873
10798TIP3    H253886   4.817   4.165  12.951 -0.8970 -0.6216 -0.9341
10799TIP3   OH253887   1.075   5.896  16.294  0.2847  0.3707  0.1317
10799TIP3    H153888   1.080   5.820  16.235  0.4681  0.6487 -0.2093
10799TIP3    H253889   1.111   5.863  16.377 -0.1640 -0.0770  0.1511
10800TIP3   OH253890   4.116   5.961   1.104 -0.6427  0.1179  0.6438
10800TIP3    H153891   4.171   5.976   1.027  0.9588 -0.5076  1.6316
10800TIP3    H253892   4.063   6.041   1.112  2.0188  1.8979  1.1656
10801TIP3   OH253893   0.581   3.995  13.052 -0.0110 -0.2110 -0.5142
10801TIP3    H153894   0.586   4.030  13.141 -1.8401 -1.3364  0.0457
10801TIP3    H253895   0.660   3.942  13.042 -0.7167 -1.6063  1.1206
10802TIP3   OH253896   2.431   1.511   4.795  0.5530  0.2999 -0.0484
10802TIP3    H153897   2.373   1.514   4.871  1.1556  1.2044  0.3825
10802TIP3    H253898   2.378   1.472   4.725  0.4466 -1.9013  1.2177
10803TIP3   OH253899   0.175   0.162   2.005  0.3802 -0.2655  0.2120
10803TIP3    H153900   0.200   0.158   1.913 -0.3386 -0.5587  0.0273
10803TIP3    H253901   0.222   0.089   2.045 -0.5134 -1.0937 -0.2237
10804TIP3   OH253902   6.213   5.607  15.328  0.0899 -0.4229 -0.4493
10804TIP3    H153903   6.195   5.692  15.288  0.2186 -0.7793 -1.2660
10804TIP3    H253904   6.151   5.548  15.286  1.5688 -1.1997 -1.5797
10805TIP3   OH253905   0.445   0.002  14.968 -0.9539 -0.1930  0.1068
10805TIP3    H153906   0.443  -0.078  15.019 -0.8812 -0.7585 -0.7692
10805TIP3    H253907   0.521  -0.008  14.910 -0.2804  0.9805  0.7532
10806TIP3   OH253908   4.309   4.442  13.248 -0.1203 -0.0114  0.0639
10806TIP3    H153909   4.215   4.440  13.263 -0.0143  0.3416  0.8001
10806TIP3    H253910   4.324   4.382  13.175 -0.6797 -1.5134  1.1621
10807TIP3   OH253911   1.756   3.574   4.692 -0.2584 -0.2327 -0.4173
10807TIP3    H153912   1.841   3.616   4.678 -0.9430  1.1796 -0.4534
10807TIP3    H253913   1.694   3.647   4.691 -1.1321 -0.8752  2.8654
10808TIP3   OH253914   3.553   0.798  14.784 -0.0933 -0.0914  0.0340
10808TIP3    H153915   3.585   0.756  14.864 -0.3003  2.4063  1.4826
10808TIP3    H253916   3.491   0.735  14.747  1.1215 -1.9140  1.0337
10809TIP3   OH253917   6.148   5.720   4.419  0.4113  0.1976 -0.4615
10809TIP3    H153918   6.106   5.737   4.504  0.9030  0.1602 -0.2094
10809TIP3    H253919   6.087   5.756   4.355  0.6371  1.4124 -0.0275
10810TIP3   OH253920   4.528   0.679   0.346  0.5216 -0.5928  0.2850
10810TIP3    H153921   4.586   0.717   0.279  0.7928 -0.3122  0.6782
10810TIP3    H253922   4.524   0.586   0.323  1.6678 -0.7423  0.6393
10811TIP3   OH253923   1.963   2.029   5.728  0.5672  0.6773  0.0014
10811TIP3    H153924   1.975   2.111   5.681  1.3495  0.1182 -0.7784
10811TIP3    H253925   1.928   2.055   5.813 -0.2359  1.7367 -0.6412
10812TIP3   OH253926   1.571   5.112  10.859  0.5184  0.2297  0.1948
10812TIP3    H153927   1.482   5.138  10.884  0.1015 -0.7364 -0.2810
10812TIP3    H253928   1.561   5.027  10.817  1.6457  0.2161 -0.0694
10813TIP3   OH253929   4.456   2.116  13.708 -0.5011 -0.4695  0.0958
10813TIP3    H153930   4.479   2.025  13.722 -1.0877 -0.9103 -1.7006
10813TIP3    H253931   4.366   2.123  13.738 -0.6449 -0.6160 -0.3012
10814TIP3   OH253932   3.687   5.885  15.011 -0.3340  0.3868  0.5084
10814TIP3    H153933   3.614   5.901  14.952  0.1504  0.9915  0.0739
10814TIP3    H253934   3.686   5.960  15.071 -0.6452 -0.0762  1.0996
10815TIP3   OH253935   3.086   0.647   5.907 -0.3575  0.4678  0.0776
10815TIP3    H153936   3.113   0.729   5.864  1.0693 -0.5309 -0.9782
10815TIP3    H253937   3.028   0.605   5.844  2.2189 -1.2914 -1.2327
10816TIP3   OH253938   1.763   0.193   2.392  0.9444 -0.0605 -0.0881
10816TIP3    H153939   1.725   0.193   2.480  0.7101  0.7708 -0.1780
10816TIP3    H253940   1.702   0.143   2.339  0.6507  0.1421  0.0533
10817TIP3   OH253941   4.940   5.830  15.130  0.5143 -0.5877 -0.2416
10817TIP3    H153942   4.966   5.790  15.213 -2.6831 -1.3259  0.4516
10817TIP3    H253943   4.856   5.791  15.109 -0.2299  1.9175 -2.2475
10818TIP3   OH253944   4.654   2.512  16.690 -0.3081 -0.1330  0.3346
10818TIP3    H153945   4.567   2.473  16.679 -0.3276  0.0995 -0.4061
10818TIP3    H253946   4.697   2.457  16.755 -1.0826 -0.1316  0.8528
10819TIP3   OH253947   0.342   1.787  15.966  0.4732 -0.1360  0.3489
10819TIP3    H153948   0.388   1.820  16.043  1.2566 -0.1327 -0.1134
10819TIP3    H253949   0.411   1.749  15.912 -0.0851 -0.2145 -0.3119
10820TIP3   OH253950   4.632   2.496  10.789 -0.5768  0.1235  0.5497
10820TIP3    H153951   4.555   2.534  10.746  0.3040  3.2110  1.5553
10820TIP3    H253952   4.697   2.566  10.787  0.8705 -1.0740  3.2315
10821TIP3   OH253953   6.221   5.982  12.528 -0.2628 -0.2576  0.6848
10821TIP3    H153954   6.195   5.893  12.505  0.3228 -0.2682  0.0388
10821TIP3    H253955   6.143   6.021  12.568 -0.6497 -0.9178  0.5776
10822TIP3   OH253956   2.306   1.525  14.039 -0.2989  0.1661 -0.2310
10822TIP3    H153957   2.229   1.475  14.067 -0.4986  0.2289 -0.6593
10822TIP3    H253958   2.347   1.554  14.121 -1.4614  1.2445 -0.0296
10823TIP3   OH253959   3.572   4.278   1.102 -0.1575  0.4339  0.2387
10823TIP3    H153960   3.566   4.318   1.189  2.1679 -0.2351  0.7601
10823TIP3    H253961   3.572   4.184   1.120  0.2388  0.2960 -0.4745
10824TIP3   OH253962   2.080   3.945   0.333  0.6348 -0.2140 -0.5924
10824TIP3    H153963   2.165   3.942   0.288  1.6488 -2.1086  1.3489
10824TIP3    H253964   2.093   3.892   0.411 -1.8457  0.9246  0.6391
10825TIP3   OH253965   2.102   6.235  14.635  0.3069  0.5001 -0.4917
10825TIP3    H153966   2.178   6.285  14.605  0.5090  0.7010  0.3290
10825TIP3    H253967   2.027   6.293  14.620  0.3923  0.5485 -0.7264
10826TIP3   OH253968   5.627   4.546  14.501 -0.7883  0.8735 -0.2729
10826TIP3    H153969   5.679   4.467  14.514  0.2014  1.2849 -1.5608
10826TIP3    H253970   5.640   4.597  14.581  1.3612  1.2679 -0.8410
10827TIP3   OH253971   5.330   2.609  11.714  0.5085 -0.7237 -0.0562
10827TIP3    H153972   5.314   2.596  11.808 -2.9436 -1.5028 -0.6808
10827TIP3    H253973   5.253   2.656  11.683  1.6774 -0.3474 -2.5015
10828TIP3   OH253974   2.699   4.486   3.032 -0.2115  0.2063  0.3657
10828TIP3    H153975   2.706   4.495   3.127  2.6357  0.0835  0.2139
10828TIP3    H253976   2.742   4.565   2.998  0.8796 -0.8942 -0.8324
10829TIP3   OH253977   3.639   3.479   0.014 -0.3710 -0.4242 -0.3325
10829TIP3    H153978   3.677   3.567   0.021 -2.4842  0.4778  0.6024
10829TIP3    H253979   3.547   3.495  -0.007 -0.3930 -2.4950 -1.9076
10830TIP3   OH253980   3.256   4.350  12.391  0.2047 -0.0861 -0.5875
10830TIP3    H153981   3.351   4.362  12.396  0.1110  0.7626 -0.6236
10830TIP3    H253982   3.241   4.315  12.303  0.5099 -0.5103 -0.4712
10831TIP3   OH253983   3.893   4.004  17.079 -0.5196 -0.1367 -0.1131
10831TIP3    H153984   3.979   4.037  17.104 -0.4584 -0.6503  0.3625
10831TIP3    H253985   3.856   4.072  17.023 -1.6369  2.2049  3.2928
10832TIP3   OH253986   3.000   4.114  16.555  0.9506 -0.3144 -0.0544
10832TIP3    H153987   3.054   4.144  16.628 -0.4937  0.5555  0.6898
10832TIP3    H253988   2.916   4.092  16.595 -0.1062  0.8754 -1.5385
10833TIP3   OH253989   2.862   1.405  16.198  0.1531  0.3329  0.0298
10833TIP3    H153990   2.863   1.456  16.279  2.0945  1.6630 -0.8149
10833TIP3    H253991   2.886   1.316  16.226 -0.7496  0.4153  1.1243
10834TIP3   OH253992   3.019   1.741   0.391  0.7271 -1.1534 -0.5410
10834TIP3    H153993   3.104   1.734   0.347  0.4970  2.0650 -1.6375
10834TIP3    H253994   3.016   1.831   0.422 -1.2992 -1.9315  1.6397
10835TIP3   OH253995   6.765   2.800  15.813 -0.3267  0.1678 -0.3241
10835TIP3    H153996   6.815   2.792  15.732 -0.2280  0.9693 -0.3504
10835TIP3    H253997   6.711   2.878  15.800 -0.2686  0.3323  0.3972
10836TIP3   OH253998   6.058   5.205   2.545  0.1183  0.1115 -0.4723
10836TIP3    H153999   6.129   5.169   2.491  0.6509  0.2966  0.1062
10836TIP3    H254000   6.007   5.128   2.570  0.5123 -0.0998 -0.3144
10837TIP3   OH254001   6.580   1.260  10.411 -0.3478  0.4576  0.0672
10837TIP3    H154002   6.566   1.177  10.365  1.5767 -0.7194  1.5019
10837TIP3    H254003   6.624   1.315  10.347  0.7608 -0.5761 -0.0910
10838TIP3   OH254004   5.355   2.681   0.267 -0.2554  0.1879  0.2577
10838TIP3    H154005   5.377   2.773   0.260  0.9713 -0.0588  0.7433
10838TIP3    H254006   5.268   2.674   0.227  0.5751  1.1571 -1.7921
10839TIP3   OH254007   3.966   0.389   5.506  0.3888 -0.2817  0.4543
10839TIP3    H154008   3.962   0.343   5.423  0.6583  0.4934  0.0132
10839TIP3    H254009   3.991   0.479   5.484 -1.3282  0.3969  1.1896
10840TIP3   OH254010   4.022   5.654  12.208 -0.7917 -0.1395  0.2712
10840TIP3    H154011   4.049   5.569  12.241  0.7152 -0.3484 -1.4026
10840TIP3    H254012   3.967   5.635  12.132  0.3811  0.3725 -0.7228
10841TIP3   OH254013   6.438   5.302   1.486 -0.4461  0.2131 -0.1163
10841TIP3    H154014   6.423   5.332   1.397  0.9165  3.0637  0.5656
10841TIP3    H254015   6.512   5.241   1.478  0.7498  1.7062 -0.7595
10842TIP3   OH254016   6.230   6.231  17.048 -0.1579  0.6619  0.2905
10842TIP3    H154017   6.187   6.177  17.114  0.4867 -0.4757 -0.2221
10842TIP3    H254018   6.161   6.249  16.983  0.1693 -1.3650 -0.6558
10843TIP3   OH254019   5.004   6.517   1.179  0.1995  0.0880 -0.2706
10843TIP3    H154020   5.088   6.479   1.203  0.2751  0.7345  0.4937
10843TIP3    H254021   4.939   6.457   1.215  0.2954  1.6363  2.5737
10844TIP3   OH254022   0.417   1.845   5.849  0.0196  0.1133  0.1440
10844TIP3    H154023   0.417   1.812   5.939  0.8611  1.0567  0.4975
10844TIP3    H254024   0.428   1.939   5.857  0.7121  0.1456 -0.9628
10845TIP3   OH254025   2.012   3.741   5.016  0.5922  0.1419  0.0238
10845TIP3    H154026   1.987   3.688   5.091 -1.9329 -0.2565 -1.0582
10845TIP3    H254027   1.978   3.829   5.035 -0.4334 -0.0630 -0.8310
10846TIP3   OH254028   2.500   4.182  15.358 -0.0275 -0.3950 -0.3556
10846TIP3    H154029   2.532   4.271  15.369  0.7977 -0.7571  0.1996
10846TIP3    H254030   2.574   4.134  15.320 -0.6739 -0.6955 -1.2510
10847TIP3   OH254031   0.175   5.748  12.334 -0.0064 -0.1672 -0.2165
10847TIP3    H154032   0.270   5.750  12.344 -0.0453  0.0285  0.1325
10847TIP3    H254033   0.160   5.711  12.247  0.3629 -1.6815  0.3503
10848TIP3   OH254034   1.850   2.489  11.231  0.5072 -0.5552  0.0791
10848TIP3    H154035   1.768   2.447  11.256  0.3958 -0.9806 -0.9825
10848TIP3    H254036   1.886   2.522  11.313 -1.2157  0.5233  0.4211
10849TIP3   OH254037   0.250   1.270   2.888 -0.7228  0.6504  0.1273
10849TIP3    H154038   0.219   1.359   2.905  0.4703  0.7179  1.9965
10849TIP3    H254039   0.283   1.273   2.798  0.7920  2.5313  0.7260
10850TIP3   OH254040   1.493   6.456   1.859  0.0084  0.5443  0.2548
10850TIP3    H154041   1.559   6.392   1.886 -0.8022 -0.6602 -0.5523
10850TIP3    H254042   1.471   6.503   1.939  1.1907  0.3445  0.7072
10851TIP3   OH254043   5.994   5.770  13.003 -0.2232  1.0123  0.4500
10851TIP3    H154044   6.047   5.783  13.082  0.3422  1.2904  0.0328
10851TIP3    H254045   5.906   5.798  13.028 -0.2150  0.3709  1.2081
10852TIP3   OH254046   5.924   5.700  16.973  0.2611  0.7456 -0.0075
10852TIP3    H154047   6.001   5.756  16.963  0.7431  0.0791 -0.0468
10852TIP3    H254048   5.863   5.730  16.907  0.1018  1.9298  0.6655
10853TIP3   OH254049   4.587   3.490  16.024  0.8144 -0.1827 -0.3713
10853TIP3    H154050   4.585   3.411  16.077  1.0832 -0.4179 -0.7159
10853TIP3    H254051   4.540   3.555  16.077 -2.0041 -1.3477 -1.3117
10854TIP3   OH254052   4.574   5.011  15.458 -0.1352 -0.0679 -0.3714
10854TIP3    H154053   4.636   5.070  15.501  0.7064  0.7558 -2.6155
10854TIP3    H254054   4.541   5.062  15.384 -2.5038 -0.9771  0.0181
10855TIP3   OH254055   2.793   3.517  11.185  0.4797 -0.8963  0.1218
10855TIP3    H154056   2.786   3.515  11.089  0.1124 -0.8777  0.1480
10855TIP3    H254057   2.725   3.456  11.215  1.2235 -1.6307  0.3401
10856TIP3   OH254058   2.218   2.490  15.732  0.0618 -0.3820 -0.8918
10856TIP3    H154059   2.223   2.584  15.748 -0.8817 -0.6339  0.9756
10856TIP3    H254060   2.299   2.455  15.769  0.2889 -0.3435 -1.3473
10857TIP3   OH254061   5.020   4.140  12.239  0.3140  0.1979  0.3266
10857TIP3    H154062   5.055   4.226  12.264  0.6423  0.1991 -0.1208
10857TIP3    H254063   5.077   4.077  12.282  0.2774  0.2030  0.3822
10858TIP3   OH254064   2.172   4.179   0.040 -0.3638  0.4110 -0.5624
10858TIP3    H154065   2.196   4.271   0.025  2.3664 -0.1628  0.0730
10858TIP3    H254066   2.088   4.184   0.087 -1.5911  2.4964 -2.8030
10859TIP3   OH254067   6.776   6.170   0.919  0.0135  0.2652  0.1893
10859TIP3    H154068   6.794   6.079   0.945  0.5286  0.5670  0.9173
10859TIP3    H254069   6.822   6.181   0.836  0.2664 -0.0249  0.2906
10860TIP3   OH254070   6.216   4.790   1.594 -0.0053  0.5766 -0.3625
10860TIP3    H154071   6.184   4.723   1.533 -0.7463  1.3809 -0.8703
10860TIP3    H254072   6.224   4.869   1.540  1.6614  0.7114  0.0371
10861TIP3   OH254073   4.497   4.368  15.994 -0.0156 -0.5676  0.8126
10861TIP3    H154074   4.509   4.412  16.078 -0.5134  0.0292  0.5780
10861TIP3    H254075   4.463   4.436  15.936 -1.2946 -1.3855  0.5754
10862TIP3   OH254076   3.738   2.267   4.375 -0.0994  0.3167 -0.2805
10862TIP3    H154077   3.693   2.244   4.456 -1.3620  1.7566 -0.5564
10862TIP3    H254078   3.691   2.219   4.307  0.0126  0.2998 -0.3452
10863TIP3   OH254079   5.958   4.062   6.584  0.9177 -0.2004 -0.3746
10863TIP3    H154080   6.013   4.029   6.655  0.9824 -0.6245 -0.6218
10863TIP3    H254081   5.927   3.984   6.538 -0.9465 -0.0277  0.5468
10864TIP3   OH254082   2.280   5.642  11.185 -0.4551 -0.0939  0.2957
10864TIP3    H154083   2.369   5.635  11.150 -0.0087  1.1720  1.1586
10864TIP3    H254084   2.227   5.670  11.110  0.8958  4.9250  1.0314
10865TIP3   OH254085   0.424   5.184   0.310  0.4001  0.0361 -0.3606
10865TIP3    H154086   0.461   5.214   0.227 -0.5947 -0.6432 -1.0654
10865TIP3    H254087   0.478   5.110   0.336 -0.3885 -0.9009 -1.3431
10866TIP3   OH254088   5.185   6.006  14.770 -0.3173 -0.3473 -0.6229
10866TIP3    H154089   5.096   5.992  14.803  0.4004  0.4734  1.7461
10866TIP3    H254090   5.216   5.917  14.751 -0.9569 -0.8013  0.3762
10867TIP3   OH254091   0.555   5.763  15.126 -0.1371 -0.4521 -0.4317
10867TIP3    H154092   0.509   5.832  15.174  0.9465 -0.6289  0.8933
10867TIP3    H254093   0.502   5.750  15.047  1.2903  4.0886 -2.2899
10868TIP3   OH254094   1.177   5.891   0.103  0.3634 -0.5337 -0.0002
10868TIP3    H154095   1.265   5.921   0.126  0.6992  0.4471 -2.3510
10868TIP3    H254096   1.187   5.797   0.087  0.9056 -0.5001  0.1195
10869TIP3   OH254097   1.664   5.067   3.426 -0.3773  0.7254  0.0637
10869TIP3    H154098   1.752   5.063   3.464 -0.2388  2.3551 -0.0677
10869TIP3    H254099   1.642   4.976   3.407  0.7503  0.1752  1.3243
10870TIP3   OH254100   3.194   6.650  14.193 -0.2983 -0.2253 -0.5275
10870TIP3    H154101   3.129   6.676  14.258  0.5444 -0.8003  0.5652
10870TIP3    H254102   3.268   6.710  14.208 -0.1306 -0.3128 -1.0048
10871TIP3   OH254103   0.437   5.372  16.276 -0.1132 -0.3186 -0.1160
10871TIP3    H154104   0.369   5.415  16.328  0.8716  0.7106  0.3346
10871TIP3    H254105   0.389   5.310  16.222 -1.3495 -0.0970  0.6888
10872TIP3   OH254106   4.117   1.783   1.795 -0.2638 -0.1697 -0.9973
10872TIP3    H154107   4.142   1.704   1.747  3.5536  0.5950 -0.3921
10872TIP3    H254108   4.154   1.855   1.744  0.4113  0.9059  0.9518
10873TIP3   OH254109   6.722   2.798  14.670 -0.0218 -0.9459 -0.1331
10873TIP3    H154110   6.659   2.849  14.619 -1.1460 -1.1713  0.9926
10873TIP3    H254111   6.749   2.728  14.612 -1.3183 -1.2222 -0.4147
10874TIP3   OH254112   3.471   2.227   5.194  0.1619  0.4047 -0.9420
10874TIP3    H154113   3.545   2.219   5.134  1.2627  1.9909  0.1778
10874TIP3    H254114   3.465   2.320   5.213 -1.1498  0.0982  0.2165
10875TIP3   OH254115   3.925   6.367   1.454 -0.3159 -0.4172 -0.6092
10875TIP3    H154116   4.016   6.350   1.477 -0.0179 -0.1715 -1.5923
10875TIP3    H254117   3.875   6.301   1.503  0.5141 -1.5827 -1.3007
10876TIP3   OH254118   5.618   3.889   2.129  0.2023 -0.6534  0.0004
10876TIP3    H154119   5.628   3.832   2.053 -1.1550 -1.4278  0.3938
10876TIP3    H254120   5.537   3.860   2.171 -1.0310  2.1432 -0.3237
10877TIP3   OH254121   0.137   2.073  14.374  0.1545  0.1870 -0.0648
10877TIP3    H154122   0.121   2.023  14.455  0.6066  1.0188  0.5421
10877TIP3    H254123   0.078   2.033  14.310 -1.0218  0.2243  0.9612
10878TIP3   OH254124   2.433   1.279  11.403 -0.6378  0.3855  0.5471
10878TIP3    H154125   2.448   1.291  11.496 -1.5561 -1.3348  0.9244
10878TIP3    H254126   2.357   1.221  11.397 -1.3829  1.4654 -1.2760
10879TIP3   OH254127   0.412   1.410  15.644 -0.2052 -0.1381 -0.2645
10879TIP3    H154128   0.354   1.430  15.719  1.1430 -0.0410  0.7736
10879TIP3    H254129   0.458   1.492  15.628 -0.0633 -0.3298 -0.8414
10880TIP3   OH254130   6.066   3.698  14.522 -0.9133  0.1053  0.3515
10880TIP3    H154131   6.021   3.732  14.445 -0.8857  2.1416  1.1933
10880TIP3    H254132   6.101   3.776  14.566  1.3940 -1.2188  0.9849
10881TIP3   OH254133   2.472   5.342  11.640 -0.1430 -0.0480  0.6292
10881TIP3    H154134   2.454   5.436  11.652 -2.4763 -0.4866  0.7814
10881TIP3    H254135   2.554   5.340  11.591 -0.0446  2.0854  0.6391
10882TIP3   OH254136   6.218   4.070  16.984 -0.6147  0.1675  0.3593
10882TIP3    H154137   6.262   4.055  17.067 -0.3390 -3.3008 -0.3333
10882TIP3    H254138   6.282   4.118  16.931  0.4635 -0.4912  1.0529
10883TIP3   OH254139   1.017   3.332   3.954  0.7731  0.2669  0.5074
10883TIP3    H154140   1.055   3.342   3.867  0.5271  0.1605  0.3865
10883TIP3    H254141   1.088   3.299   4.008  1.8479  3.3955  1.1065
10884TIP3   OH254142   2.737   6.480   0.436  0.1539 -0.3750 -0.4642
10884TIP3    H154143   2.700   6.455   0.521  1.6520  1.6930  0.8407
10884TIP3    H254144   2.782   6.563   0.453 -1.7731  1.5034 -3.8340
10885TIP3   OH254145   6.370   4.674  16.298 -0.2457  0.3962 -0.3710
10885TIP3    H154146   6.368   4.748  16.237 -1.0161  0.0704 -0.7607
10885TIP3    H254147   6.278   4.649  16.308 -0.3025  1.5323  2.2838
10886TIP3   OH254148   4.772   0.755   1.737 -0.3666 -0.3756  0.2958
10886TIP3    H154149   4.734   0.841   1.759 -0.1362  0.4104 -2.2270
10886TIP3    H254150   4.840   0.775   1.673  1.0150 -2.2739  1.1526
10887TIP3   OH254151   5.226   0.225  16.204 -0.1086  0.2007  0.2823
10887TIP3    H154152   5.290   0.204  16.272  0.3601 -1.6803 -0.7325
10887TIP3    H254153   5.142   0.221  16.249  0.3829  1.7044  1.3851
10888TIP3   OH254154   4.856   6.460   0.166 -0.2749  0.0200  0.1173
10888TIP3    H154155   4.832   6.378   0.123 -1.2292  0.0193  0.6399
10888TIP3    H254156   4.832   6.528   0.102  0.2218 -0.0845 -0.1852
10889TIP3   OH254157   3.814   0.636   6.683 -0.5705  0.0652  0.0356
10889TIP3    H154158   3.896   0.612   6.641  0.2488  2.1038  0.3763
10889TIP3    H254159   3.777   0.553   6.714  0.9655 -0.9560 -0.8058
10890TIP3   OH254160   4.619   4.188   3.333  0.1511  0.0507 -0.0528
10890TIP3    H154161   4.646   4.148   3.250 -0.1657  0.8346 -0.5437
10890TIP3    H254162   4.592   4.115   3.388  0.3985 -0.4762 -0.6298
10891TIP3   OH254163   3.361   5.645  14.785 -0.2630  0.0262  0.0792
10891TIP3    H154164   3.403   5.676  14.865  0.8769 -0.9481 -0.1312
10891TIP3    H254165   3.379   5.713  14.720 -2.1022  1.3415  0.8987
10892TIP3   OH254166   4.999   6.153   4.219  0.5225  0.7169 -0.2634
10892TIP3    H154167   4.913   6.192   4.203 -1.6229 -2.4521  2.8128
10892TIP3    H254168   5.000   6.075   4.164  0.9664  0.1288  0.5787
10893TIP3   OH254169   6.365   4.974   0.335 -0.2879 -0.6542 -0.3435
10893TIP3    H154170   6.439   5.029   0.362 -0.5953  0.5821 -1.9105
10893TIP3    H254171   6.406   4.898   0.294  0.1217 -0.5732 -0.0887
10894TIP3   OH254172   4.890   6.568   6.223  0.4796  0.5722  0.2957
10894TIP3    H154173   4.852   6.482   6.205 -0.1942  1.0730 -0.7349
10894TIP3    H254174   4.836   6.603   6.294 -0.7504  1.1048 -0.8760
10895TIP3   OH254175   6.319   5.501  12.964  0.3549 -0.3252  0.1630
10895TIP3    H154176   6.367   5.558  12.904 -0.0106 -1.1121 -0.8954
10895TIP3    H254177   6.235   5.486  12.921 -0.0364 -0.6500  1.0196
10896TIP3   OH254178   2.037   2.364   2.557  0.2963  0.3512 -0.5453
10896TIP3    H154179   2.117   2.401   2.521  0.4835  0.5916  0.1076
10896TIP3    H254180   1.968   2.426   2.532  0.4603  0.6374 -0.2937
10897TIP3   OH254181   4.592   2.081  14.357 -0.2321 -0.0944  0.4968
10897TIP3    H154182   4.533   2.019  14.314  0.4737 -0.1249 -0.4383
10897TIP3    H254183   4.637   2.125  14.285  1.1123 -0.2941  1.2031
10898TIP3   OH254184   1.704   3.499  13.688  0.2039 -0.6660  0.3557
10898TIP3    H154185   1.638   3.434  13.713  0.5640 -1.7541 -1.4599
10898TIP3    H254186   1.696   3.567  13.755 -1.4107 -1.7134  1.2785
10899TIP3   OH254187   0.211   5.138   4.866 -0.4052 -0.4265 -0.3024
10899TIP3    H154188   0.298   5.125   4.903 -1.2949 -3.3237  0.8996
10899TIP3    H254189   0.211   5.087   4.785 -1.2751 -1.2725  0.2150
10900TIP3   OH254190   3.674   3.535   3.006  0.2625 -0.4782 -1.0262
10900TIP3    H154191   3.705   3.625   2.992  1.5438 -0.6945  0.3292
10900TIP3    H254192   3.615   3.541   3.081 -0.8470 -0.5146 -1.8996
10901TIP3   OH254193   3.315   1.174  16.776  0.2080  1.2083  0.0329
10901TIP3    H154194   3.270   1.090  16.791  2.2494 -0.1176 -1.1200
10901TIP3    H254195   3.394   1.168  16.829  1.1915  1.7060 -1.3563
10902TIP3   OH254196   3.806   0.080   3.110  0.1010 -0.2400  0.4554
10902TIP3    H154197   3.811   0.066   3.205  1.4983 -0.1527  0.4010
10902TIP3    H254198   3.828   0.172   3.098  1.8071 -0.7161 -0.1146
10903TIP3   OH254199   2.146   3.439   4.543  0.3460 -0.3042  0.1116
10903TIP3    H154200   2.134   3.496   4.467  0.9360 -0.1628  0.1269
10903TIP3    H254201   2.114   3.353   4.514  1.7373 -0.5622 -0.7212
10904TIP3   OH254202   5.944   1.796   3.858 -0.3775 -0.5033  0.9263
10904TIP3    H154203   5.850   1.783   3.867 -0.4779  0.1135  0.7534
10904TIP3    H254204   5.954   1.888   3.834  0.1403 -1.0246 -0.9617
10905TIP3   OH254205   1.016   6.621   2.475 -0.1637 -0.0760  0.8945
10905TIP3    H154206   1.073   6.633   2.400 -0.5912 -0.3771  0.5189
10905TIP3    H254207   1.025   6.702   2.525  0.3138  0.0234  0.6508
10906TIP3   OH254208   0.349   2.092  15.329  0.7944  0.0592  0.3269
10906TIP3    H154209   0.425   2.079  15.272  1.0933  1.2768  0.4397
10906TIP3    H254210   0.280   2.040  15.288  1.6596 -0.9815  0.1699
10907TIP3   OH254211   1.072   3.371   5.786  0.0638  0.0781 -0.2096
10907TIP3    H154212   1.057   3.277   5.775 -1.3441  0.0211  2.0251
10907TIP3    H254213   1.016   3.412   5.721 -2.2224 -0.5227  1.3199
10908TIP3   OH254214   3.968   5.246  13.771 -0.2988  0.0658 -0.2183
10908TIP3    H154215   4.060   5.223  13.768  0.2031  2.1289 -3.3359
10908TIP3    H254216   3.966   5.331  13.816 -0.8923 -0.6904  1.2301
10909TIP3   OH254217   2.571   6.639  16.689  0.6720  0.0558  0.3792
10909TIP3    H154218   2.541   6.694  16.762  0.9416  0.8080 -0.0610
10909TIP3    H254219   2.567   6.550  16.722 -1.4567  0.1760  0.5503
10910TIP3   OH254220   1.132   5.122  13.229  0.0719 -0.5460 -0.1352
10910TIP3    H154221   1.047   5.085  13.255 -1.2325  1.3467 -1.5654
10910TIP3    H254222   1.141   5.100  13.137  0.3886  0.6535 -0.3976
10911TIP3   OH254223   3.844   0.812  16.461 -0.4734  0.0044  0.3826
10911TIP3    H154224   3.900   0.820  16.538 -0.3713 -0.3994  0.3539
10911TIP3    H254225   3.902   0.827  16.387 -0.0819 -1.9316  0.2847
10912TIP3   OH254226   3.779   4.466  15.603  0.3801  0.2041 -0.5136
10912TIP3    H154227   3.859   4.421  15.575 -0.2130  0.7412 -3.2686
10912TIP3    H254228   3.780   4.548  15.554 -1.6782  0.3870 -0.3070
10913TIP3   OH254229   6.096   1.189  12.051 -0.5301  0.1866  0.4229
10913TIP3    H154230   6.107   1.154  12.140  0.7296  0.5114  0.3963
10913TIP3    H254231   6.074   1.112  11.998 -0.5964 -0.1156  0.8837
10914TIP3   OH254232   4.649   6.798   2.927 -0.0580 -0.3793  0.4288
10914TIP3    H154233   4.714   6.863   2.955 -0.9590  0.7991 -0.1603
10914TIP3    H254234   4.565   6.833   2.957 -0.6162 -1.0132 -0.3632
10915TIP3   OH254235   1.830   3.275   0.824  0.1194  0.1649  0.4557
10915TIP3    H154236   1.740   3.271   0.855 -0.4909  1.3808 -1.0900
10915TIP3    H254237   1.876   3.328   0.888 -0.8440  1.6208 -0.0225
10916TIP3   OH254238   5.602   3.947  12.706 -0.2173  0.3633  0.0052
10916TIP3    H154239   5.651   3.987  12.634  2.3995  0.6480  1.8626
10916TIP3    H254240   5.588   4.018  12.768  0.8093 -0.6543  1.4400
10917TIP3   OH254241   6.715   2.983  16.753  0.4194 -0.0364  0.2654
10917TIP3    H154242   6.727   2.986  16.658 -0.6307 -1.6552  0.0546
10917TIP3    H254243   6.760   2.903  16.781 -0.8553 -0.5845  0.8392
10918TIP3   OH254244   5.711   0.120   1.412  0.9735 -0.2112 -0.1350
10918TIP3    H154245   5.736   0.047   1.356 -2.6814 -1.6313 -0.0348
10918TIP3    H254246   5.658   0.081   1.481 -0.2768  2.4153  0.4541
10919TIP3   OH254247   6.582   3.773  11.746  0.2763 -0.1191  0.1391
10919TIP3    H154248   6.543   3.692  11.780 -1.2709  0.7479  0.5096
10919TIP3    H254249   6.673   3.750  11.727  0.0242 -1.7760  0.8195
10920TIP3   OH254250   3.814   6.786  14.385 -0.2410 -0.1355  0.0029
10920TIP3    H154251   3.767   6.807  14.304 -1.3000 -0.5008  0.5118
10920TIP3    H254252   3.904   6.769  14.357 -0.2603  1.1844 -0.9147
10921TIP3   OH254253   4.195   5.081   1.298  0.5626 -0.4192  0.2376
10921TIP3    H154254   4.251   5.005   1.317 -1.3722 -1.7977  0.5156
10921TIP3    H254255   4.257   5.151   1.275  2.3984 -1.9148  0.5106
10922TIP3   OH254256   2.151   3.959  10.981 -0.2644  0.3222 -0.4031
10922TIP3    H154257   2.115   4.024  11.042  0.1386 -1.5412  1.9007
10922TIP3    H254258   2.243   3.952  11.006 -0.1833 -0.7408 -1.0020
10923TIP3   OH254259   3.758   2.815   2.463  1.0463  0.3154  0.4333
10923TIP3    H154260   3.816   2.755   2.417 -1.2635 -2.1630  0.6454
10923TIP3    H254261   3.750   2.778   2.551 -1.3698  0.2166  0.2001
10924TIP3   OH254262   0.231   3.639   2.550  0.3657  0.1824  0.5936
10924TIP3    H154263   0.316   3.603   2.524 -0.1749  0.7076 -2.0037
10924TIP3    H254264   0.172   3.613   2.480 -1.2085  1.4529  1.4309
10925TIP3   OH254265   3.449   0.238   5.053 -0.4179 -0.6094  0.4139
10925TIP3    H154266   3.372   0.280   5.014 -0.6109 -2.8339 -1.7413
10925TIP3    H254267   3.521   0.263   4.995  0.3553  0.7496  1.9318
10926TIP3   OH254268   6.432   4.972   4.320  0.2027  0.1592  0.3855
10926TIP3    H154269   6.478   5.021   4.388 -0.1089  0.4656  0.3736
10926TIP3    H254270   6.455   4.881   4.337 -0.1238  0.2102  1.0837
10927TIP3   OH254271   0.882   1.183  11.269  0.4159 -0.2057  0.4753
10927TIP3    H154272   0.943   1.191  11.195  0.5939 -0.6345  0.5708
10927TIP3    H254273   0.937   1.191  11.347  0.0872  1.2364  0.5658
10928TIP3   OH254274   5.004   0.063  17.143  0.0113  0.4574  0.1630
10928TIP3    H154275   5.062   0.031  17.212 -0.8411  0.2597  0.7791
10928TIP3    H254276   5.005  -0.007  17.077  1.2012  0.8524 -0.2674
10929TIP3   OH254277   0.790   0.617   6.005  0.1245  0.0772 -0.2210
10929TIP3    H154278   0.756   0.626   6.095 -0.9207 -0.1899 -0.5802
10929TIP3    H254279   0.736   0.548   5.966  1.5442 -0.8205 -0.6060
10930TIP3   OH254280   1.906   1.829  12.947  0.5065  0.5980  0.5625
10930TIP3    H154281   1.937   1.750  12.990  1.3322  0.3039 -0.5445
10930TIP3    H254282   1.900   1.894  13.017  1.1211 -0.0687  1.2405
10931TIP3   OH254283   2.368   3.739  14.070 -0.1739 -0.2938 -0.2792
10931TIP3    H154284   2.390   3.824  14.108  0.0757 -0.5702  0.2043
10931TIP3    H254285   2.430   3.678  14.110 -2.1184 -1.1835  1.4952
10932TIP3   OH254286   2.345   6.157   1.418  0.4445 -0.3784 -0.7727
10932TIP3    H154287   2.423   6.153   1.475  0.7297  0.7273 -1.0737
10932TIP3    H254288   2.380   6.178   1.331 -0.3075  1.7792 -0.5969
10933TIP3   OH254289   0.243   5.776   2.314  0.3981  0.0800  0.2054
10933TIP3    H154290   0.164   5.828   2.329  1.7162  2.1022  0.3951
10933TIP3    H254291   0.301   5.800   2.386  1.3902 -0.9700 -0.2346
10934TIP3   OH254292   2.434   2.666  14.538  0.3907  0.4392  0.4577
10934TIP3    H154293   2.485   2.734  14.582 -0.7808  1.0125  0.9285
10934TIP3    H254294   2.475   2.658  14.452  0.7008  1.5572  0.4931
10935TIP3   OH254295   5.835   3.119   0.959 -0.3765 -0.3682 -0.4613
10935TIP3    H154296   5.818   3.026   0.940 -4.0567  0.4263 -1.5514
10935TIP3    H254297   5.758   3.147   1.009 -0.9747  2.8670 -3.0287
10936TIP3   OH254298   3.643   2.038   2.618 -0.4423  0.1472 -0.5006
10936TIP3    H154299   3.610   2.095   2.549  0.7287 -1.2184 -2.2656
10936TIP3    H254300   3.735   2.023   2.594 -0.0333 -0.3977  1.3300
10937TIP3   OH254301   0.374   5.024   0.816  0.3764  0.2772 -0.2413
10937TIP3    H154302   0.403   4.957   0.877  0.8203 -0.6612 -1.4502
10937TIP3    H254303   0.452   5.077   0.800  0.1301  0.8358  0.3981
10938TIP3   OH254304   1.111   5.299   3.228 -0.4690 -0.7067  0.2950
10938TIP3    H154305   1.034   5.264   3.273 -2.1861  0.3128 -1.7828
10938TIP3    H254306   1.121   5.388   3.262 -1.5429 -0.0686 -1.0140
10939TIP3   OH254307   4.699   4.890  15.139 -0.6034  0.1239 -0.7168
10939TIP3    H154308   4.632   4.860  15.199 -0.3502  0.8082 -0.0819
10939TIP3    H254309   4.661   4.880  15.052 -1.3850  0.1560 -0.3746
10940TIP3   OH254310   6.169   1.873  14.028  0.0482 -0.3332 -0.0988
10940TIP3    H154311   6.156   1.787  13.988 -1.4332 -0.2934  0.2705
10940TIP3    H254312   6.192   1.930  13.955 -1.7652 -0.4486 -0.7933
10941TIP3   OH254313   4.436   1.655   2.931  0.5350  0.1481  0.3051
10941TIP3    H154314   4.367   1.719   2.950 -1.2095 -1.1766 -1.3975
10941TIP3    H254315   4.473   1.635   3.017 -0.5467  1.6079  1.1498
10942TIP3   OH254316   6.679   2.899  13.290 -0.0542  0.0599 -0.3613
10942TIP3    H154317   6.725   2.955  13.227  0.0485  0.4636  0.0686
10942TIP3    H254318   6.744   2.834  13.317  0.4428  0.9652  0.6672
10943TIP3   OH254319   2.138   6.485   0.259  0.1021  0.2733 -0.4326
10943TIP3    H154320   2.202   6.523   0.198 -1.5024  1.3506 -1.4698
10943TIP3    H254321   2.182   6.490   0.345  0.8159  2.4715 -0.8795
10944TIP3   OH254322   1.022   2.395  16.965  0.0900  0.0634 -0.5076
10944TIP3    H154323   0.971   2.327  16.921 -1.3317  1.1320 -0.5472
10944TIP3    H254324   1.108   2.391  16.924 -0.3527 -0.8907 -1.3563
10945TIP3   OH254325   4.404   5.268  11.623  0.5068 -0.1773 -0.4214
10945TIP3    H154326   4.397   5.314  11.707 -4.1943  0.0359 -0.8208
10945TIP3    H254327   4.381   5.333  11.557  1.5796 -1.0370 -1.6823
10946TIP3   OH254328   5.473   4.300  16.023  0.3992 -0.0138  0.2952
10946TIP3    H154329   5.436   4.225  15.976 -1.0717  0.0451  1.3188
10946TIP3    H254330   5.566   4.300  15.999 -0.2693 -0.0414 -2.5334
10947TIP3   OH254331   1.967   2.573   2.863  0.5294  0.3442 -0.3279
10947TIP3    H154332   1.979   2.639   2.795 -0.1717 -0.8272 -1.6202
10947TIP3    H254333   2.004   2.612   2.942  2.8736  1.0866 -1.7375
10948TIP3   OH254334   6.055   4.194  14.372 -0.6788 -0.4452 -0.5434
10948TIP3    H154335   6.128   4.228  14.320 -0.3076  0.0226  0.2808
10948TIP3    H254336   6.091   4.119  14.418 -0.6971 -0.1768 -0.0883
10949TIP3   OH254337   6.487   4.044  11.716  0.1582 -0.2820 -0.2750
10949TIP3    H154338   6.535   3.961  11.719  1.3896  0.4503  1.0119
10949TIP3    H254339   6.397   4.019  11.697 -0.3083 -2.3023  4.0677
10950TIP3   OH254340   5.552   4.684   4.930  0.1116  0.8918  0.2696
10950TIP3    H154341   5.506   4.741   4.868  1.4370 -0.8149 -2.3950
10950TIP3    H254342   5.629   4.734   4.955  1.2724  0.3278 -2.0596
10951TIP3   OH254343   5.068   2.915  16.809  0.1443  0.0442 -0.4013
10951TIP3    H154344   4.982   2.957  16.798  1.2796  2.4317 -0.4185
10951TIP3    H254345   5.057   2.828  16.770 -2.0670  0.5591 -1.0101
10952TIP3   OH254346   5.359   5.688  13.037 -0.4119 -0.4293 -0.0122
10952TIP3    H154347   5.343   5.735  13.119 -0.3723 -0.1574 -0.1575
10952TIP3    H254348   5.348   5.755  12.969  0.3945 -0.4514 -0.1713
10953TIP3   OH254349   4.579   0.099  16.742  0.0460  0.0617 -0.1957
10953TIP3    H154350   4.509   0.063  16.688  0.0785 -2.1388  1.1549
10953TIP3    H254351   4.634   0.023  16.764  2.6733  1.6797 -0.9494
10954TIP3   OH254352   4.770   6.726  12.741  0.2117  0.1440 -0.1936
10954TIP3    H154353   4.795   6.656  12.801 -0.4995  0.2964  0.2989
10954TIP3    H254354   4.674   6.728  12.747  0.0923 -0.1852 -1.7279
10955TIP3   OH254355   2.581   2.730  15.040 -0.0098  0.1416  0.1760
10955TIP3    H154356   2.608   2.639  15.043  0.8832  0.3629 -0.7876
10955TIP3    H254357   2.663   2.780  15.043 -0.4963  0.9208  0.9130
10956TIP3   OH254358   1.817   5.806   6.764 -0.1547 -0.3854 -0.5566
10956TIP3    H154359   1.910   5.785   6.767 -0.4176 -1.8001 -1.8075
10956TIP3    H254360   1.802   5.862   6.841  1.5910 -0.6589 -0.0116
10957TIP3   OH254361   2.191   1.189   1.095  0.6157  0.2308  0.2383
10957TIP3    H154362   2.137   1.259   1.060 -0.8986  0.4595  2.9401
10957TIP3    H254363   2.277   1.229   1.107  0.3749  0.9647 -0.4416
10958TIP3   OH254364   2.850   0.240  10.863 -0.3329 -0.2387 -0.1012
10958TIP3    H154365   2.766   0.273  10.893 -0.9253  0.2538 -2.2505
10958TIP3    H254366   2.836   0.146  10.849 -0.8629  0.0452 -1.5479
10959TIP3   OH254367   1.381   5.515   6.051 -0.3226 -0.0833  0.1781
10959TIP3    H154368   1.417   5.472   6.129  0.3525 -1.0253 -0.6351
10959TIP3    H254369   1.456   5.557   6.010 -0.7406  0.7028  0.2099
10960TIP3   OH254370   2.765   0.746  13.396  0.4284  0.2750 -0.1008
10960TIP3    H154371   2.705   0.820  13.389 -1.0182 -0.6950  1.4091
10960TIP3    H254372   2.774   0.732  13.491  0.0620 -1.9201 -0.3584
10961TIP3   OH254373   3.890   0.753  16.962 -0.6292  0.5062  0.1307
10961TIP3    H154374   3.814   0.707  16.925 -0.9571 -0.0962  1.5079
10961TIP3    H254375   3.910   0.704  17.043  1.6910  0.1998 -0.5956
10962TIP3   OH254376   0.550   6.552  10.306  0.1055  0.5711 -0.2196
10962TIP3    H154377   0.511   6.621  10.253  1.0558  1.4033  0.1435
10962TIP3    H254378   0.616   6.597  10.360 -0.0015 -0.4472  0.7861
10963TIP3   OH254379   0.678   4.377  12.640  0.0395  0.0053 -0.2629
10963TIP3    H154380   0.624   4.367  12.718  1.2224 -0.0711  0.5448
10963TIP3    H254381   0.697   4.470  12.635 -0.8813  0.1671 -1.0455
10964TIP3   OH254382   2.263   6.059  17.292  0.2185 -0.2753  0.3594
10964TIP3    H154383   2.310   6.105  17.361 -0.0383  0.9077 -0.2485
10964TIP3    H254384   2.330   6.008  17.247  0.0747 -2.6584  2.7379
10965TIP3   OH254385   4.152   1.005   5.369 -0.0359  1.2640 -0.3250
10965TIP3    H154386   4.131   0.974   5.456  3.0399 -2.1564 -0.6962
10965TIP3    H254387   4.202   1.086   5.384  1.0187  0.3674  1.1517
10966TIP3   OH254388   0.108   2.013   0.406  0.4228 -0.1045 -0.8617
10966TIP3    H154389   0.088   2.009   0.313  0.9409 -1.8421 -0.9129
10966TIP3    H254390   0.050   1.948   0.446  1.2147 -0.4010 -0.1749
10967TIP3   OH254391   1.479   0.270  12.961  0.1026 -0.1995  0.7890
10967TIP3    H154392   1.403   0.327  12.967  0.4089  0.2603  0.2359
10967TIP3    H254393   1.446   0.183  12.984 -0.9944 -0.3621 -1.3924
10968TIP3   OH254394   3.654   3.717  17.118  0.2307 -0.3039  0.2229
10968TIP3    H154395   3.610   3.642  17.078  0.3435 -0.7233  0.8759
10968TIP3    H254396   3.585   3.781  17.132 -0.0853 -0.7553  0.7665
10969TIP3   OH254397   3.292   1.108  15.123  0.1893  0.1817  0.2455
10969TIP3    H154398   3.287   1.027  15.174  0.2864  0.2325  0.3356
10969TIP3    H254399   3.324   1.173  15.185 -1.1256  0.5793  0.5185
10970TIP3   OH254400   0.896   2.258   5.524 -0.0429  0.1716 -0.5346
10970TIP3    H154401   0.812   2.213   5.517  0.3135 -0.2368 -2.2639
10970TIP3    H254402   0.961   2.189   5.510  0.5441  0.8846 -1.3102
10971TIP3   OH254403   5.384   2.311  11.951  0.2965  0.2079  0.1944
10971TIP3    H154404   5.458   2.352  11.997  0.0215  0.1213  0.7254
10971TIP3    H254405   5.394   2.337  11.860 -0.2928  2.0877  0.6520
10972TIP3   OH254406   0.077   6.425   5.484 -0.1855  0.9062 -0.1749
10972TIP3    H154407  -0.013   6.410   5.513  0.1843  1.7302  1.4659
10972TIP3    H254408   0.100   6.511   5.521  2.2741 -0.6172  1.9681
10973TIP3   OH254409   4.371   1.159   5.479  0.3997 -0.2109  0.0063
10973TIP3    H154410   4.428   1.235   5.489 -0.8361  0.6958  0.2212
10973TIP3    H254411   4.363   1.123   5.567 -0.3154  0.3602  0.1753
10974TIP3   OH254412   4.803   6.286  15.173  0.1530 -0.3824 -0.2713
10974TIP3    H154413   4.836   6.375  15.181 -1.1145 -0.0619  1.7835
10974TIP3    H254414   4.844   6.252  15.093  0.5168  2.0818 -1.1823
10975TIP3   OH254415   4.862   5.232  12.695  0.0304 -0.3383 -0.3194
10975TIP3    H154416   4.924   5.281  12.749 -0.2254  2.0465 -2.1021
10975TIP3    H254417   4.918   5.179  12.637  0.3479 -0.3723  0.0141
10976TIP3   OH254418   1.324   6.293   0.079 -0.2550 -0.6964  0.1803
10976TIP3    H154419   1.404   6.343   0.067  1.0255 -2.5184  0.8929
10976TIP3    H254420   1.254   6.352   0.051  1.1497  1.7004  1.5475
10977TIP3   OH254421   0.548   3.821   0.170  0.6861 -0.2827  0.2077
10977TIP3    H154422   0.644   3.819   0.171  0.6726 -0.6261  1.9612
10977TIP3    H254423   0.523   3.744   0.119  1.3391 -0.1649 -0.2981
10978TIP3   OH254424   4.578   3.940   3.469  0.2411  0.0245 -0.2152
10978TIP3    H154425   4.542   3.857   3.436  0.3911 -0.8950  1.8182
10978TIP3    H254426   4.671   3.920   3.485  0.1422  0.3857  0.8479
10979TIP3   OH254427   2.172   2.384   4.310  0.1289  0.8489  0.1178
10979TIP3    H154428   2.254   2.345   4.340 -0.0511  0.4685  0.1177
10979TIP3    H254429   2.194   2.427   4.228 -0.0933 -0.9654 -0.9260
10980TIP3   OH254430   6.751   3.721  12.358  0.5785  0.3430 -0.3734
10980TIP3    H154431   6.750   3.702  12.452 -0.4985 -0.3631 -0.5208
10980TIP3    H254432   6.769   3.815  12.354  1.2276  0.2721  0.5148
10981TIP3   OH254433   3.237   1.360   5.888 -0.0801  0.1954  0.3304
10981TIP3    H154434   3.158   1.375   5.836 -0.9369 -1.4355  1.1019
10981TIP3    H254435   3.237   1.431   5.952 -1.2823 -0.1213  0.7086
10982TIP3   OH254436   2.675   5.796   0.308  0.3473  0.5800  0.5040
10982TIP3    H154437   2.647   5.757   0.391  1.1630 -0.9861  0.0582
10982TIP3    H254438   2.749   5.852   0.330  2.5665 -2.2392  0.4284
10983TIP3   OH254439   6.318   6.724   3.745  0.0193 -0.4307  0.7627
10983TIP3    H154440   6.321   6.809   3.701 -1.1212 -2.3540 -3.3753
10983TIP3    H254441   6.230   6.719   3.782 -0.5027 -0.3997 -0.4246
10984TIP3   OH254442   3.214   3.645   2.077 -0.7850  0.6342  0.2145
10984TIP3    H154443   3.196   3.601   2.161 -1.0031  1.4039  0.5778
10984TIP3    H254444   3.307   3.665   2.080 -0.4032 -0.9930 -0.5289
10985TIP3   OH254445   1.926   4.725  14.892  0.6038  0.0097 -0.8929
10985TIP3    H154446   1.896   4.653  14.947  1.3767  0.7274  0.4860
10985TIP3    H254447   1.903   4.697  14.803  0.8917 -1.9406 -0.3915
10986TIP3   OH254448   6.495   3.992  11.279 -0.0120 -0.5660  0.0557
10986TIP3    H154449   6.459   3.969  11.193 -0.0861 -1.1372  0.2356
10986TIP3    H254450   6.517   3.908  11.319  1.2125 -0.2376  0.0916
10987TIP3   OH254451   4.494   4.134  16.170  0.3157  0.2554  0.1210
10987TIP3    H154452   4.538   4.079  16.105 -1.8757  0.4816 -1.6255
10987TIP3    H254453   4.469   4.212  16.122 -1.4171  0.4062  1.2158
10988TIP3   OH254454   2.939   2.450   5.426  0.0836  0.1230  0.0673
10988TIP3    H154455   2.927   2.355   5.422  2.2454 -0.1258 -1.6806
10988TIP3    H254456   2.853   2.486   5.408 -0.5274 -1.5255 -0.3922
10989TIP3   OH254457   2.132   4.185   4.022 -0.3020 -0.0301  0.8363
10989TIP3    H154458   2.122   4.090   4.024 -1.0219  0.0177 -0.0017
10989TIP3    H254459   2.209   4.200   3.967 -0.5895 -0.1044  0.4130
10990TIP3   OH254460   3.444   0.458  11.902 -0.1184 -0.5374  0.0864
10990TIP3    H154461   3.362   0.467  11.952  0.2158  1.4072  0.3252
10990TIP3    H254462   3.447   0.536  11.848 -0.1656 -2.3311 -2.5819
10991TIP3   OH254463   0.613   6.263  14.352 -0.0510 -0.6481 -0.0328
10991TIP3    H154464   0.577   6.267  14.264 -0.5983 -2.5748  0.0778
10991TIP3    H254465   0.683   6.328  14.353  1.7034 -2.4420 -2.7087
10992TIP3   OH254466   5.142   6.804   0.755  0.2498  0.7633  0.1644
10992TIP3    H154467   5.177   6.868   0.817  1.4798  0.0888  0.1623
10992TIP3    H254468   5.193   6.818   0.675 -0.3283  0.6210 -0.2311
10993TIP3   OH254469   3.039   5.039  13.194  0.9287  0.2162  0.6179
10993TIP3    H154470   2.993   4.982  13.256  0.5679  0.1944  0.3334
10993TIP3    H254471   3.001   5.017  13.109 -0.1522  1.7818  0.6572
10994TIP3   OH254472   5.470   0.777   6.232 -0.3460  0.6947  0.2555
10994TIP3    H154473   5.511   0.753   6.316 -0.1636 -1.1457 -0.3273
10994TIP3    H254474   5.378   0.754   6.244 -0.0468 -1.0130 -0.5438
10995TIP3   OH254475   1.097   6.163  13.176 -0.2000  0.2302 -0.6575
10995TIP3    H154476   1.077   6.100  13.107 -1.1297  0.6773 -0.8047
10995TIP3    H254477   1.134   6.110  13.247  0.4278 -0.2735 -1.3594
10996TIP3   OH254478   1.855   2.201   3.950  0.6935 -0.0863 -0.0260
10996TIP3    H154479   1.884   2.219   4.039  0.6664  0.0782 -0.0510
10996TIP3    H254480   1.837   2.107   3.950  0.2555 -0.0060  0.2732
10997TIP3   OH254481   5.379   6.456  15.147  0.1417 -0.0289 -0.4840
10997TIP3    H154482   5.341   6.386  15.092 -1.4107  0.6940 -0.3620
10997TIP3    H254483   5.473   6.439  15.145 -0.3742 -4.0665  2.1330
10998TIP3   OH254484   2.814   1.418   2.642 -0.9155 -0.4942 -0.0489
10998TIP3    H154485   2.830   1.325   2.622 -0.3881 -0.2815 -0.6358
10998TIP3    H254486   2.893   1.446   2.689  0.1745  0.3750 -2.3323
10999TIP3   OH254487   3.716   5.170  11.731  0.0466  0.4273 -0.1144
10999TIP3    H154488   3.708   5.175  11.636  1.5859  0.2192 -0.2598
10999TIP3    H254489   3.651   5.105  11.757 -0.5628  0.6757 -0.9958
11000TIP3   OH254490   3.923   1.571  12.021 -0.4197  0.4202 -0.0090
11000TIP3    H154491   3.834   1.560  11.987 -0.2225  1.3261 -0.8255
11000TIP3    H254492   3.940   1.490  12.069 -1.4168 -0.0647 -0.4562
11001TIP3   OH254493   3.290   5.047   4.034 -0.3176 -0.4796  0.2635
11001TIP3    H154494   3.348   5.073   4.106 -2.0462  0.2755  1.4342
11001TIP3    H254495   3.269   4.955   4.052 -1.0729 -0.1751  0.9684
11002TIP3   OH254496   2.232   4.200   5.583  0.6089  0.6711  0.0884
11002TIP3    H154497   2.145   4.163   5.568 -0.0453  2.3155 -0.2285
11002TIP3    H254498   2.241   4.201   5.678  0.7871 -0.6030  0.1042
11003TIP3   OH254499   2.077   4.594  10.686  0.0102  0.1679 -0.2784
11003TIP3    H154500   2.095   4.656  10.616  1.7185 -0.6784 -0.6166
11003TIP3    H254501   2.154   4.537  10.688 -0.8240 -0.9495  1.0725
11004TIP3   OH254502   1.262   3.256   4.045 -0.5462 -0.2328  0.1722
11004TIP3    H154503   1.313   3.279   3.967 -1.3690  0.7788 -0.0788
11004TIP3    H254504   1.276   3.328   4.106 -0.3561 -0.7508  0.7576
11005TIP3   OH254505   3.009   6.672  13.586  0.2533 -0.4013  0.1789
11005TIP3    H154506   2.981   6.608  13.652  0.4394 -0.5231  0.1416
11005TIP3    H254507   3.089   6.635  13.550  0.3030 -0.1970  0.0814
11006TIP3   OH254508   0.794   0.606  15.209 -0.5074 -0.0249  0.4503
11006TIP3    H154509   0.711   0.605  15.162  0.2846 -0.8045 -0.9445
11006TIP3    H254510   0.845   0.675  15.167  0.0809 -0.5045  0.3683
11007TIP3   OH254511   2.419   0.735   2.175  0.0414  0.4029  0.2210
11007TIP3    H154512   2.515   0.742   2.183  0.1916  0.0504 -1.0913
11007TIP3    H254513   2.386   0.807   2.228  1.2098  3.8131 -3.3872
11008TIP3   OH254514   3.701   2.193  14.106  0.3897 -0.1879 -0.4126
11008TIP3    H154515   3.715   2.225  14.018  2.4946 -1.7816 -0.6968
11008TIP3    H254516   3.750   2.253  14.162  0.1038  0.0757 -0.4448
11009TIP3   OH254517   1.486   5.984  17.207 -0.0057  0.3948  0.2145
11009TIP3    H154518   1.465   5.950  17.294  0.6854  2.8561  1.3769
11009TIP3    H254519   1.553   6.051  17.223  0.7634  0.2666 -2.3083
11010TIP3   OH254520   5.147   2.164  13.761 -0.4951 -0.5856 -0.5373
11010TIP3    H154521   5.128   2.120  13.844 -0.6798  0.0730 -0.2268
11010TIP3    H254522   5.107   2.108  13.694  0.1962 -1.4402 -0.2366
11011TIP3   OH254523   0.573   3.710  17.008 -0.4191 -0.0293  0.3606
11011TIP3    H154524   0.628   3.785  17.030 -0.4523 -0.2400  1.1946
11011TIP3    H254525   0.496   3.720  17.064 -1.3053  0.3497 -0.9103
11012TIP3   OH254526   5.992   3.862  15.460  0.0589  0.5364 -0.2628
11012TIP3    H154527   5.999   3.900  15.373 -0.6773  1.3271  0.0232
11012TIP3    H254528   5.900   3.871  15.484  0.1127 -0.3217  0.3092
11013TIP3   OH254529   2.493   6.652  14.030 -0.0676  0.2906  0.1488
11013TIP3    H154530   2.455   6.567  14.005 -1.3534  1.4182 -1.8677
11013TIP3    H254531   2.443   6.716  13.980  1.8834  2.1414  0.4929
11014TIP3   OH254532   5.919   2.771   0.320 -0.1461  0.2179 -0.1311
11014TIP3    H154533   5.882   2.741   0.403 -0.2480  0.1194 -0.2120
11014TIP3    H254534   5.903   2.699   0.260 -0.8885  0.6555 -0.4692
11015TIP3   OH254535   5.768   6.150  14.911  0.5672  0.1114  0.0233
11015TIP3    H154536   5.740   6.228  14.862 -0.4014  1.4452  2.6161
11015TIP3    H254537   5.764   6.079  14.847 -1.9953  1.5516 -1.5072
11016TIP3   OH254538   1.019   4.452   2.517  0.1884  0.2583 -0.3204
11016TIP3    H154539   1.051   4.510   2.448 -0.6899 -0.4037 -1.3140
11016TIP3    H254540   0.946   4.405   2.476  0.0108 -0.5415  0.8929
11017TIP3   OH254541   4.881   2.561  16.999 -0.6495 -0.2272  0.1229
11017TIP3    H154542   4.922   2.606  17.073 -0.2241 -0.1064 -0.1871
11017TIP3    H254543   4.891   2.622  16.926  0.0410 -0.8778 -0.3306
11018TIP3   OH254544   4.007   5.210  10.441  0.0176  0.5981  0.1874
11018TIP3    H154545   4.009   5.278  10.374  0.2825 -0.1284 -0.5392
11018TIP3    H254546   3.926   5.162  10.424 -0.1849  0.7378  0.7237
11019TIP3   OH254547   2.095   5.782   3.570  0.5179  0.3546  0.1742
11019TIP3    H154548   2.146   5.702   3.555  1.6482  0.7488  1.8211
11019TIP3    H254549   2.051   5.766   3.653  2.5087  2.3196  1.6442
11020TIP3   OH254550   5.910   1.668   5.774 -0.0188 -0.9218 -0.3968
11020TIP3    H154551   5.877   1.597   5.720  0.7143 -1.5952  0.0329
11020TIP3    H254552   5.979   1.709   5.721 -0.3266 -0.6319 -0.5767
11021TIP3   OH254553   6.601   2.219  14.163 -0.0124 -0.4383 -0.0212
11021TIP3    H154554   6.510   2.193  14.174  0.2707 -1.0435  0.9340
11021TIP3    H254555   6.647   2.137  14.144  0.4983 -0.2891  0.5641
11022TIP3   OH254556   0.583   6.082   2.580  0.0236 -1.1535  0.5703
11022TIP3    H154557   0.577   6.025   2.657  1.3204 -2.1176 -0.0349
11022TIP3    H254558   0.547   6.031   2.509 -0.7056 -0.4472  0.4294
11023TIP3   OH254559   1.510   2.940   2.969 -0.0853  0.5119  0.1319
11023TIP3    H154560   1.430   2.954   3.019 -1.1204 -0.2927 -1.2504
11023TIP3    H254561   1.501   2.998   2.893  0.0182 -0.5434 -0.7039
11024TIP3   OH254562   2.499   2.637   4.414  0.3387 -0.4480  0.5726
11024TIP3    H154563   2.473   2.643   4.322  0.9573  0.2638  0.4402
11024TIP3    H254564   2.568   2.570   4.415  1.0547  0.2846  0.3570
11025TIP3   OH254565   1.512   6.592  14.684  0.3386  0.1419 -0.0556
11025TIP3    H154566   1.593   6.628  14.719  0.6279  1.7996 -2.3206
11025TIP3    H254567   1.447   6.605  14.754  1.2983  1.7011  0.5664
11026TIP3   OH254568   1.255   2.980  12.373 -0.1751  0.3116  0.3943
11026TIP3    H154569   1.261   3.018  12.285  0.1169 -1.9683 -0.6050
11026TIP3    H254570   1.164   2.951  12.380  0.1911 -0.9175  0.2165
11027TIP3   OH254571   2.965   2.996  13.628  0.4959  0.5940  0.0463
11027TIP3    H154572   2.906   2.922  13.613  0.0931  0.6362  1.3624
11027TIP3    H254573   3.018   2.969  13.702  1.9500  0.6790 -0.9509
11028TIP3   OH254574   1.762   0.931   4.158 -0.6078  0.8446 -0.2532
11028TIP3    H154575   1.828   0.896   4.218 -1.0321 -0.6662 -0.6297
11028TIP3    H254576   1.753   0.863   4.090 -2.5173  1.0238 -0.2225
11029TIP3   OH254577   4.538   6.326  11.411  0.6871 -0.2788 -0.5028
11029TIP3    H154578   4.626   6.362  11.418  0.2805  0.3795  1.5005
11029TIP3    H254579   4.499   6.370  11.336  2.0376 -0.5553 -1.3862
11030TIP3   OH254580   4.026   4.749  13.258 -0.3846 -0.4517 -0.3940
11030TIP3    H154581   4.005   4.842  13.257  0.4671 -0.1773  2.6201
11030TIP3    H254582   4.122   4.746  13.262 -0.3720 -1.4752 -1.2242
11031TIP3   OH254583   2.259   2.150  13.200 -0.1981 -0.2781 -0.1835
11031TIP3    H154584   2.212   2.233  13.198  0.7967  0.3247  0.7003
11031TIP3    H254585   2.199   2.087  13.160 -0.1533  1.2504 -2.7432
11032TIP3   OH254586   0.302   5.926   3.809 -0.3808  0.3721  0.3840
11032TIP3    H154587   0.330   5.835   3.802  2.3256  1.1910 -0.3419
11032TIP3    H254588   0.303   5.958   3.718 -0.2995  1.3819  0.7337
11033TIP3   OH254589   4.915   1.680   1.914 -0.8415 -0.1015 -0.7277
11033TIP3    H154590   4.876   1.700   2.000  0.0811 -2.4134  0.2617
11033TIP3    H254591   4.851   1.714   1.851 -1.9159  0.9220  0.8649
11034TIP3   OH254592   5.182   2.168   0.963 -0.0016 -0.4987 -0.1698
11034TIP3    H154593   5.255   2.160   1.025 -0.9966  0.5597  1.1716
11034TIP3    H254594   5.164   2.078   0.935 -0.6068 -1.1988  2.3569
11035TIP3   OH254595   1.186   2.413  11.377 -0.4473  0.9115  0.6630
11035TIP3    H154596   1.178   2.377  11.288  0.7167  1.6968  0.2388
11035TIP3    H254597   1.098   2.446  11.396 -1.0237 -0.3371  0.2831
11036TIP3   OH254598   4.801   2.094  14.713  0.4010  1.1513  0.0887
11036TIP3    H154599   4.805   2.120  14.805 -0.8515 -0.2195  0.5618
11036TIP3    H254600   4.890   2.063  14.693  0.5269  0.8794  1.0268
11037TIP3   OH254601   6.676   4.450  13.986 -0.0350 -0.7068  0.1639
11037TIP3    H154602   6.693   4.438  13.893  1.5806 -0.9358  0.4739
11037TIP3    H254603   6.756   4.489  14.021 -1.1711  0.7972  1.1879
11038TIP3   OH254604   1.891   5.973  13.603  0.1468 -0.2812  0.0930
11038TIP3    H154605   1.898   5.895  13.659  0.8774 -1.5332 -1.7124
11038TIP3    H254606   1.833   5.947  13.532 -0.6358  1.2491  0.1449
11039TIP3   OH254607   5.078   2.703  13.398  0.4766  0.2442  0.5856
11039TIP3    H154608   5.062   2.770  13.331  0.8152  0.9104  1.1555
11039TIP3    H254609   5.000   2.705  13.453  0.2888 -0.1551  0.3367
11040TIP3   OH254610   1.369   0.376   0.882  0.3591 -0.5454  0.1130
11040TIP3    H154611   1.442   0.438   0.881 -0.7742  0.8754  1.8117
11040TIP3    H254612   1.334   0.379   0.793  0.2349  1.3808  0.2026
11041TIP3   OH254613   0.091   4.767   0.377 -0.2968  0.0361 -0.1736
11041TIP3    H154614   0.007   4.812   0.372 -0.0358  0.3619 -1.9156
11041TIP3    H254615   0.121   4.761   0.286  0.6676 -1.7630  0.2338
11042TIP3   OH254616   2.414   1.377  15.403 -0.3782 -0.0512  0.5873
11042TIP3    H154617   2.401   1.324  15.482  0.5210 -0.3657  0.5338
11042TIP3    H254618   2.398   1.467  15.432 -0.7275 -0.2373  0.9665
11043TIP3   OH254619   5.680   3.541  12.262 -0.1098  0.1788  0.2726
11043TIP3    H154620   5.725   3.527  12.345 -0.2006 -0.6316  0.1889
11043TIP3    H254621   5.612   3.474  12.259 -1.0451  1.1123  0.1920
11044TIP3   OH254622   3.539   6.077   1.452 -0.0798 -0.5475  0.4511
11044TIP3    H154623   3.502   6.148   1.400  0.3962  0.0775  0.9555
11044TIP3    H254624   3.474   6.007   1.448 -0.3870 -0.2182 -0.3466
11045TIP3   OH254625   3.877   5.865  17.120 -0.1417  0.7122 -0.0266
11045TIP3    H154626   3.854   5.809  17.194 -3.3071 -3.2425 -3.7165
11045TIP3    H254627   3.806   5.929  17.115  0.5841  1.6023  0.8869
11046TIP3   OH254628   2.648   6.323   0.909 -0.2725  0.0561  0.3278
11046TIP3    H154629   2.596   6.253   0.869  0.0552  1.0705 -1.9496
11046TIP3    H254630   2.615   6.329   0.999  1.9712 -5.2262  1.6393
11047TIP3   OH254631   4.428   1.221  13.830 -0.0090  0.3375 -0.0646
11047TIP3    H154632   4.523   1.207  13.832 -0.1485 -0.4792  1.8606
11047TIP3    H254633   4.411   1.278  13.905 -0.7949  2.2237 -1.6388
11048TIP3   OH254634   3.356   4.396   0.461 -0.4923 -0.7980  0.6328
11048TIP3    H154635   3.362   4.483   0.421  0.2300 -0.0864  2.2751
11048TIP3    H254636   3.264   4.371   0.447 -1.7974  1.9486  3.6097
11049TIP3   OH254637   1.370   5.551  13.145 -0.5325 -0.5048 -0.1711
11049TIP3    H154638   1.450   5.504  13.169 -0.3234  0.5586  1.2190
11049TIP3    H254639   1.328   5.494  13.081  0.1765 -2.1688  0.8169
11050TIP3   OH254640   3.754   6.201   1.602 -0.1054  0.5669 -0.6493
11050TIP3    H154641   3.694   6.172   1.533 -1.8995 -0.9188  1.4976
11050TIP3    H254642   3.699   6.212   1.679  2.3544 -0.6670  1.3351
11051TIP3   OH254643   5.534   2.143  14.034 -0.4432  0.1892 -0.1918
11051TIP3    H154644   5.510   2.213  13.973 -1.0533  1.3050  1.2816
11051TIP3    H254645   5.451   2.115  14.072  0.0579  0.4394  1.0974
11052TIP3   OH254646   0.719   2.830  12.327  0.3583 -0.6479 -0.5080
11052TIP3    H154647   0.680   2.871  12.405  1.4454  0.4417 -0.5184
11052TIP3    H254648   0.654   2.843  12.258  0.2872  0.2487 -0.2780
11053TIP3   OH254649   3.869   4.291  14.222  0.2447  0.1583  0.0758
11053TIP3    H154650   3.929   4.362  14.243  0.7146 -0.1766 -0.1318
11053TIP3    H254651   3.921   4.230  14.170 -0.3343 -0.0251 -0.2940
11054TIP3   OH254652   2.253   1.672   4.123  0.3012  0.2476  0.0785
11054TIP3    H154653   2.303   1.630   4.054  1.3213  0.2734  0.7934
11054TIP3    H254654   2.302   1.654   4.203 -1.2003 -0.3122  0.8850
11055TIP3   OH254655   4.796   3.237   0.827 -0.3894  0.4464  0.3573
11055TIP3    H154656   4.774   3.150   0.793  2.6271  0.4150 -1.6869
11055TIP3    H254657   4.880   3.225   0.871 -0.5452  2.0816  1.1273
11056TIP3   OH254658   5.774   5.372  15.373  0.2530 -0.2956 -0.6866
11056TIP3    H154659   5.837   5.301  15.362 -0.7632 -1.0691 -1.5270
11056TIP3    H254660   5.810   5.425  15.444  1.7973 -0.7891 -1.0799
11057TIP3   OH254661   0.901   1.160   3.436 -0.2715  0.0418  0.4707
11057TIP3    H154662   0.812   1.184   3.463 -0.7835 -0.5722 -0.6605
11057TIP3    H254663   0.891   1.125   3.348  1.2115  0.7886 -0.0131
11058TIP3   OH254664   4.399   5.223  15.212  0.1177 -0.1991 -0.5695
11058TIP3    H154665   4.434   5.208  15.124 -1.2809 -2.1334 -0.8395
11058TIP3    H254666   4.338   5.150  15.226 -2.3577  2.0247  0.5960
11059TIP3   OH254667   0.220   2.674  13.065  0.2669  0.4619  0.2174
11059TIP3    H154668   0.238   2.710  12.978 -0.6846  0.1801 -0.1041
11059TIP3    H254669   0.305   2.647  13.098  1.0916  3.4108  0.6333
11060TIP3   OH254670   1.248   6.198   3.797 -0.1718  0.1765  0.7212
11060TIP3    H154671   1.317   6.133   3.804 -0.5678 -0.2919  0.2979
11060TIP3    H254672   1.169   6.153   3.828 -0.0263  1.1515  2.6024
11061TIP3   OH254673   5.292   0.764  16.006  0.2969 -0.1865  0.2812
11061TIP3    H154674   5.329   0.847  16.038  0.1919 -0.0993  0.1761
11061TIP3    H254675   5.367   0.715  15.974  0.3099  0.0286 -0.0193
11062TIP3   OH254676   1.640   2.282  10.801 -0.2613  0.4267  0.9001
11062TIP3    H154677   1.729   2.308  10.823 -0.0371 -0.0570  0.5697
11062TIP3    H254678   1.611   2.346  10.736  0.0750  0.2144  0.5366
11063TIP3   OH254679   2.738   1.973   2.329  0.1770  0.2824 -0.4725
11063TIP3    H154680   2.781   2.038   2.272 -3.3472  1.6255 -1.6937
11063TIP3    H254681   2.713   2.023   2.407  0.1953 -0.3304 -0.0749
11064TIP3   OH254682   2.047   0.046  11.962 -0.1249 -0.3672  0.2059
11064TIP3    H154683   2.096  -0.002  11.896  0.8550 -0.6327  1.1066
11064TIP3    H254684   2.060  -0.005  12.043  1.2541  1.5892  1.2676
11065TIP3   OH254685   3.581   5.283  14.187  0.2462  0.2511  0.7464
11065TIP3    H154686   3.496   5.326  14.202  0.4919  0.8904  0.3509
11065TIP3    H254687   3.644   5.340  14.231  0.5968  0.4153  0.0396
11066TIP3   OH254688   4.603   4.994  16.411 -0.3072  0.3134  0.2153
11066TIP3    H154689   4.569   4.921  16.463 -1.7459  1.1175  0.4352
11066TIP3    H254690   4.578   4.971  16.321 -0.5172  0.3977  0.2524
11067TIP3   OH254691   6.267   2.692   5.566  0.4821 -0.0710  0.1458
11067TIP3    H154692   6.237   2.686   5.657  0.0835 -2.8094 -0.1229
11067TIP3    H254693   6.357   2.657   5.568  0.3776 -0.3884 -0.5460
11068TIP3   OH254694   3.081   6.076   4.370 -0.0787 -0.2117 -0.4110
11068TIP3    H154695   3.142   6.027   4.315 -0.0397  0.9196 -1.4003
11068TIP3    H254696   3.015   6.013   4.396  1.0795 -1.2677  0.0153
11069TIP3   OH254697   6.147   0.481  17.205 -0.3320  0.3600  0.0653
11069TIP3    H154698   6.132   0.557  17.149 -1.1654 -0.3567 -0.7155
11069TIP3    H254699   6.099   0.501  17.285 -1.1753  0.3520 -0.4230
11070TIP3   OH254700   2.009   2.910  15.616  0.8641  0.1702  0.4645
11070TIP3    H154701   2.099   2.929  15.643  0.3642  1.0958  1.5264
11070TIP3    H254702   1.974   2.995  15.586 -0.9046  0.6764  3.7905
11071TIP3   OH254703   4.614   4.662   1.452 -0.2792  0.3446  0.1443
11071TIP3    H154704   4.543   4.599   1.461 -0.5083  0.6456  0.4578
11071TIP3    H254705   4.625   4.699   1.540  0.1982  0.3722  0.0762
11072TIP3   OH254706   0.929   3.520  14.864  0.2798  0.2802  0.0055
11072TIP3    H154707   0.938   3.454  14.933 -1.6389  1.9158  1.8979
11072TIP3    H254708   0.974   3.597  14.897  0.4267  0.6931 -1.1302
11073TIP3   OH254709   4.563   3.001  14.822 -0.1707 -0.1578  0.9480
11073TIP3    H154710   4.527   3.042  14.901  2.1582  2.2096  0.8535
11073TIP3    H254711   4.574   3.074  14.761 -0.7670 -1.7781 -1.1268
11074TIP3   OH254712   3.411   5.373  17.212  0.4872 -0.0007  0.4827
11074TIP3    H154713   3.502   5.378  17.241  1.2727  0.6401 -1.9302
11074TIP3    H254714   3.386   5.464  17.197 -0.9122 -0.0959  2.1068
11075TIP3   OH254715   2.650   2.714  16.795 -0.2006 -0.3405  0.1731
11075TIP3    H154716   2.572   2.695  16.744 -0.4169  0.5854  0.1527
11075TIP3    H254717   2.622   2.780  16.859  0.2720 -0.8734  0.9365
11076TIP3   OH254718   3.453   3.612  16.305  0.2202  0.4850 -0.6958
11076TIP3    H154719   3.398   3.535  16.318  1.6883 -0.3467  0.7692
11076TIP3    H254720   3.411   3.680  16.357 -0.9336  0.6365 -1.7852
11077TIP3   OH254721   5.519   3.757  11.143  0.0270  0.0544  0.0886
11077TIP3    H154722   5.507   3.808  11.223 -0.5087 -0.1550  0.1469
11077TIP3    H254723   5.611   3.770  11.119  0.6584 -1.2658  1.7036
11078TIP3   OH254724   2.235   0.590   5.607 -0.1481  0.2131  0.3023
11078TIP3    H154725   2.284   0.586   5.524 -2.8346  3.2079 -1.5265
11078TIP3    H254726   2.203   0.501   5.619  1.4583 -0.6020 -1.1220
11079TIP3   OH254727   3.586   2.046   0.353  0.1809  0.6311  0.9055
11079TIP3    H154728   3.578   2.060   0.259  0.7393 -0.8933  0.6261
11079TIP3    H254729   3.497   2.059   0.386 -0.1656  0.4012  0.0710
11080TIP3   OH254730   3.088   0.610   3.161  0.2530 -0.2685 -0.0458
11080TIP3    H154731   3.031   0.654   3.098 -0.8167 -0.2639  0.9084
11080TIP3    H254732   3.031   0.590   3.235  1.0891 -1.8211  0.2076
11081TIP3   OH254733   6.081   0.217   2.608 -0.3561 -0.0651 -0.1614
11081TIP3    H154734   6.151   0.237   2.671 -1.0323  2.2030 -0.0753
11081TIP3    H254735   6.127   0.182   2.532  0.5231 -2.4323  1.3828
11082TIP3   OH254736   6.324   1.531   1.634  0.1261 -0.3275 -0.1640
11082TIP3    H154737   6.388   1.472   1.673  1.0056  0.7759  0.0723
11082TIP3    H254738   6.356   1.619   1.654 -0.5074  0.2420 -1.5858
11083TIP3   OH254739   4.174   2.755  13.271 -0.2159 -0.6788 -0.2944
11083TIP3    H154740   4.180   2.823  13.204 -0.0220 -0.8922 -0.4950
11083TIP3    H254741   4.095   2.706  13.248 -0.7378 -0.1041  0.2488
11084TIP3   OH254742   2.464   4.871  15.894  0.2380 -0.5362 -0.0393
11084TIP3    H154743   2.465   4.966  15.907 -1.7263 -0.4610 -0.2442
11084TIP3    H254744   2.373   4.851  15.872  1.0208 -2.2358 -1.8765
11085TIP3   OH254745   3.221   3.513   4.604 -0.0695 -0.6777 -0.0201
11085TIP3    H154746   3.278   3.436   4.600  0.5342 -0.2500  0.3019
11085TIP3    H254747   3.163   3.496   4.679 -1.1246 -1.6260 -1.0303
11086TIP3   OH254748   6.793   1.384  11.937 -0.6621 -0.7065  0.0950
11086TIP3    H154749   6.745   1.309  11.901  0.8454 -1.3514 -0.5860
11086TIP3    H254750   6.744   1.461  11.905 -1.1370 -1.3452 -0.7429
11087TIP3   OH254751   1.776   6.667  13.512  0.3689  0.2346  0.2315
11087TIP3    H154752   1.721   6.650  13.588  1.0685 -0.9220  0.4931
11087TIP3    H254753   1.865   6.652  13.543  0.8969  2.5689 -0.0555
11088TIP3   OH254754   1.599   6.482  16.785 -0.6097 -0.0114 -0.6457
11088TIP3    H154755   1.618   6.417  16.852  0.4137  0.5099 -0.4172
11088TIP3    H254756   1.541   6.437  16.723 -4.7088  0.6300  2.5193
11089TIP3   OH254757   2.379   5.794  15.362 -0.5423  0.5314 -0.5131
11089TIP3    H154758   2.381   5.775  15.269 -1.0562 -1.4139 -0.1385
11089TIP3    H254759   2.467   5.772  15.394 -0.6495  0.3039 -0.3728
11090TIP3   OH254760   3.972   0.384  12.398 -0.2019  0.0887 -0.4437
11090TIP3    H154761   4.047   0.436  12.371  0.1583 -0.5187 -0.6275
11090TIP3    H254762   3.927   0.438  12.463 -0.4366  1.0872 -1.4118
11091TIP3   OH254763   6.325   1.893  13.194  0.9692 -0.0150 -0.1393
11091TIP3    H154764   6.325   1.989  13.195  1.2684 -0.0145 -0.1821
11091TIP3    H254765   6.235   1.869  13.172  0.8823  0.2556 -0.0754
11092TIP3   OH254766   6.386   4.921   0.859 -0.4906  0.2489 -0.6455
11092TIP3    H154767   6.331   4.932   0.937  0.6541 -0.2206  0.2485
11092TIP3    H254768   6.438   4.843   0.878  1.1828  1.2550 -1.0562
11093TIP3   OH254769   5.218   6.341  11.950 -0.0468 -0.3860  0.4154
11093TIP3    H154770   5.283   6.377  11.889 -1.2960  0.5546 -0.3835
11093TIP3    H254771   5.175   6.271  11.901  0.0903 -0.7424  0.8052
11094TIP3   OH254772   2.072   6.180  14.982 -0.2783  0.1101 -0.1034
11094TIP3    H154773   2.076   6.236  15.060  0.0313  1.1603 -0.8615
11094TIP3    H254774   2.160   6.183  14.946 -0.7490  0.6372 -1.2029
11095TIP3   OH254775   6.397   3.811   5.871  0.3990  0.1515 -0.3953
11095TIP3    H154776   6.340   3.845   5.802  0.8720  1.2309 -0.2485
11095TIP3    H254777   6.455   3.884   5.894  1.6280 -0.8354 -0.3033
11096TIP3   OH254778   1.691   6.195   3.766  0.2202  0.5004  0.0252
11096TIP3    H154779   1.692   6.113   3.715  2.1359 -0.6924  1.8850
11096TIP3    H254780   1.747   6.254   3.716 -0.5438  0.4317 -0.9322
11097TIP3   OH254781   2.829   2.741  13.605 -0.1482  0.6649 -0.9315
11097TIP3    H154782   2.893   2.671  13.588 -0.6533  0.1460 -0.7006
11097TIP3    H254783   2.744   2.701  13.589 -0.3606  1.7918 -2.7804
11098TIP3   OH254784   2.833   1.052   2.351 -0.1422 -0.0010  0.1726
11098TIP3    H154785   2.787   0.981   2.307  2.0307 -0.8718 -0.7990
11098TIP3    H254786   2.918   1.055   2.307  0.7402  1.5085  1.9366
11099TIP3   OH254787   0.126   0.061  14.090 -0.2413  0.3003 -0.1851
11099TIP3    H154788   0.109   0.060  14.185 -1.2610  1.5390 -0.3292
11099TIP3    H254789   0.040   0.079  14.051 -0.0147 -1.2342 -1.4087
11100TIP3   OH254790   1.346   5.905   5.937  0.1973  0.5364  0.6401
11100TIP3    H154791   1.387   5.855   5.867  1.8769  1.4781  0.9105
11100TIP3    H254792   1.330   5.992   5.899 -1.3810  0.2423  0.6056
11101TIP3   OH254793   0.516   4.765  13.551  0.3006  0.3756 -0.1303
11101TIP3    H154794   0.505   4.802  13.464 -0.5193 -1.4851 -0.8497
11101TIP3    H254795   0.519   4.670  13.537 -1.1290 -0.0171  1.9799
11102TIP3   OH254796   3.386   1.926  11.963 -0.1524  0.5143 -0.1491
11102TIP3    H154797   3.328   1.877  12.022 -1.9413  1.0440 -1.4385
11102TIP3    H254798   3.339   2.007  11.945  2.1742  2.1456  0.8694
11103TIP3   OH254799   6.579   1.185  16.262 -0.3730  0.3796  0.0568
11103TIP3    H154800   6.544   1.213  16.347  0.5531 -1.0117  0.9313
11103TIP3    H254801   6.593   1.266  16.214  0.7167  1.3267  1.9095
11104TIP3   OH254802   0.579   4.478   3.398  0.4227  0.3987 -0.1018
11104TIP3    H154803   0.647   4.421   3.364  0.9625 -0.3417  2.1920
11104TIP3    H254804   0.505   4.465   3.339  1.5036 -0.4671 -1.2821
11105TIP3   OH254805   6.076   1.790  12.051 -0.0289  0.3176 -0.2193
11105TIP3    H154806   6.045   1.851  12.118 -0.6257  2.0888 -2.0709
11105TIP3    H254807   6.025   1.710  12.065 -0.5989  0.8936  1.0223
11106TIP3   OH254808   5.688   5.762  13.081 -0.0341 -0.5873  0.2171
11106TIP3    H154809   5.657   5.852  13.067  2.8921  0.5160  0.4075
11106TIP3    H254810   5.666   5.743  13.172  2.8078  1.4877  1.4305
11107TIP3   OH254811   6.319   2.533  14.013  0.4996 -0.0379 -0.3497
11107TIP3    H154812   6.285   2.448  13.986 -0.8760 -0.5625  2.7832
11107TIP3    H254813   6.411   2.516  14.034  0.3657 -0.6579 -0.2381
11108TIP3   OH254814   1.651   5.384  15.677  1.0739 -1.3565  0.4216
11108TIP3    H154815   1.594   5.404  15.751  0.5550 -1.1588 -0.0317
11108TIP3    H254816   1.658   5.288  15.677  0.7150 -1.3810  0.4526
11109TIP3   OH254817   3.862   0.360   3.142  0.2207 -0.1405 -0.1594
11109TIP3    H154818   3.812   0.435   3.172 -0.0805 -0.0554 -0.8717
11109TIP3    H254819   3.903   0.389   3.061  1.4671 -0.1897  0.4396
11110TIP3   OH254820   6.608   4.511   4.452  0.8485 -0.6315 -0.5843
11110TIP3    H154821   6.541   4.452   4.419 -0.7639  0.0720  1.3278
11110TIP3    H254822   6.592   4.595   4.409 -0.1334 -0.2033  0.5768
11111TIP3   OH254823   5.505   6.616   0.790 -0.2079 -0.1956  0.4834
11111TIP3    H154824   5.515   6.710   0.782  0.2504 -0.3491 -0.8281
11111TIP3    H254825   5.465   6.603   0.876 -0.3462  1.1912  0.6298
11112TIP3   OH254826   1.096   2.827  11.930  0.0995 -0.1659 -0.1411
11112TIP3    H154827   1.110   2.798  12.020 -0.6585 -0.8660 -0.2497
11112TIP3    H254828   1.170   2.886  11.912 -0.9095  1.6826  1.6641
11113TIP3   OH254829   0.802   2.401  15.496  0.6369 -0.9385  0.3549
11113TIP3    H154830   0.871   2.424  15.557  0.8378  0.0028 -0.2236
11113TIP3    H254831   0.729   2.374  15.552  0.1475  1.7763  1.1000
11114TIP3   OH254832   5.412   5.883  16.850  0.0829  0.5897  0.1718
11114TIP3    H154833   5.467   5.894  16.773 -2.8285  0.2864 -2.0321
11114TIP3    H254834   5.324   5.909  16.821 -1.6159 -2.1742  2.5666
11115TIP3   OH254835   5.166   4.883  10.743 -0.1647  0.6247  0.1641
11115TIP3    H154836   5.108   4.809  10.758 -0.0354  1.0973  3.3220
11115TIP3    H254837   5.236   4.848  10.688 -0.0457 -1.6591  1.6788
11116TIP3   OH254838   2.301   4.472  12.980 -0.4973 -0.5033 -0.1697
11116TIP3    H154839   2.321   4.435  12.894 -0.5907 -0.9936  0.0167
11116TIP3    H254840   2.273   4.397  13.032 -1.5888 -0.0284 -0.0559
11117TIP3   OH254841   3.152   6.755  16.584 -0.2365  0.2329 -0.2037
11117TIP3    H154842   3.213   6.813  16.631  0.4957 -0.3762 -0.3848
11117TIP3    H254843   3.077   6.811  16.563  0.5466  1.1767 -0.5629
11118TIP3   OH254844   0.781   5.727  16.082 -0.3749  0.0799 -1.2690
11118TIP3    H154845   0.788   5.723  15.987 -4.6645 -1.2326 -1.6431
11118TIP3    H254846   0.734   5.647  16.106  1.0130  0.1478  2.0433
11119TIP3   OH254847   4.107   6.221  13.767 -0.4191  0.5225 -0.0789
11119TIP3    H154848   4.144   6.307  13.748 -1.3513  0.7806 -0.7717
11119TIP3    H254849   4.012   6.234  13.762 -0.5679 -0.5808 -0.3323
11120TIP3   OH254850   5.266   0.159  11.290  0.2452 -0.3743 -0.2650
11120TIP3    H154851   5.238   0.068  11.277 -0.5331 -0.1442 -0.2059
11120TIP3    H254852   5.308   0.183  11.207  0.0150 -0.6263 -0.4533
11121TIP3   OH254853   3.746   1.722   5.943  0.0686  0.3564 -0.1788
11121TIP3    H154854   3.786   1.761   6.021 -1.4034 -1.8028  1.7380
11121TIP3    H254855   3.654   1.711   5.967  0.2532 -3.4244 -0.9338
11122TIP3   OH254856   0.181   5.821  11.799  0.5031  0.0658  0.3986
11122TIP3    H154857   0.179   5.768  11.879 -2.0833  0.9457  0.9650
11122TIP3    H254858   0.273   5.841  11.786  1.1120 -1.2846  2.3641
11123TIP3   OH254859   3.523   3.361   2.844  0.3515  0.1064  0.9041
11123TIP3    H154860   3.530   3.377   2.750 -0.9995  1.4691  1.0208
11123TIP3    H254861   3.571   3.434   2.884  0.6669 -0.3045  1.2727
11124TIP3   OH254862   2.252   6.795  12.240 -0.2542 -0.3798 -0.2418
11124TIP3    H154863   2.220   6.796  12.331 -1.6445  2.7561 -0.7215
11124TIP3    H254864   2.184   6.747  12.192 -0.8086  0.2489 -0.0828
11125TIP3   OH254865   5.587   6.623  13.059  0.4051  0.1746  0.0097
11125TIP3    H154866   5.537   6.571  13.122 -0.5779 -1.6967 -2.2385
11125TIP3    H254867   5.556   6.712  13.071 -2.1220 -0.6528  0.0216
11126TIP3   OH254868   3.541   2.916  11.965 -0.1553  0.4546  0.4529
11126TIP3    H154869   3.567   2.995  12.012 -0.0816  0.4345  0.4476
11126TIP3    H254870   3.571   2.844  12.021  0.3560  0.4270  0.1545
11127TIP3   OH254871   1.993   4.016   2.488  0.4594 -0.0939  0.1444
11127TIP3    H154872   2.046   3.988   2.563  1.2431 -1.3783 -0.8814
11127TIP3    H254873   1.904   4.024   2.524  0.8442 -0.5932  1.2335
11128TIP3   OH254874   3.593   1.705   5.056  0.0338 -0.4144 -0.3515
11128TIP3    H154875   3.662   1.743   5.111 -0.9609  0.2766  0.4495
11128TIP3    H254876   3.545   1.781   5.023 -1.3647 -0.9176  0.4658
11129TIP3   OH254877   1.787   3.081   3.744 -0.2395 -0.2746 -0.2071
11129TIP3    H154878   1.793   3.116   3.655  0.0208 -1.0443 -0.4958
11129TIP3    H254879   1.695   3.054   3.753 -0.2935 -0.0893 -0.2018
11130TIP3   OH254880   6.273   2.652   0.371  0.8193  0.2935  0.1581
11130TIP3    H154881   6.248   2.729   0.422 -1.3774 -0.7115  0.6359
11130TIP3    H254882   6.328   2.687   0.301  1.0164  2.1088  1.1783
11131TIP3   OH254883   0.992   3.298  12.490 -0.3057 -0.0625 -0.1117
11131TIP3    H154884   0.908   3.252  12.497 -0.8677  1.0507  0.4813
11131TIP3    H254885   1.010   3.301  12.396  0.3619 -2.6013 -0.1055
11132TIP3   OH254886   2.033   3.203  11.766 -0.2398  0.0468  0.3867
11132TIP3    H154887   2.062   3.287  11.730  0.3787 -0.6462 -0.7790
11132TIP3    H254888   1.956   3.180  11.713 -0.3584 -0.1537  0.6467
11133TIP3   OH254889   5.108   1.034   5.645  0.5628 -0.6304  0.5140
11133TIP3    H154890   5.155   0.990   5.574  0.1097 -0.3709  0.0549
11133TIP3    H254891   5.028   1.068   5.605  1.8765  2.4826  0.3278
11134TIP3   OH254892   5.120   0.974   0.045 -0.1661  0.1534 -0.3608
11134TIP3    H154893   5.119   1.010   0.134  0.6744 -0.8828  0.0807
11134TIP3    H254894   5.203   0.926   0.040  0.0515  0.6677 -1.8877
11135TIP3   OH254895   5.803   3.385  14.136 -0.7513 -0.0246  0.0116
11135TIP3    H154896   5.812   3.420  14.225  0.1832 -1.7035  0.6142
11135TIP3    H254897   5.737   3.441  14.095  1.0172  2.7050  0.7349
11136TIP3   OH254898   4.843   6.297  15.420  0.5730  0.5468  0.0320
11136TIP3    H154899   4.808   6.287  15.331 -0.8578  0.4143  0.6124
11136TIP3    H254900   4.928   6.251  15.416 -0.2433 -0.9601 -0.8082
11137TIP3   OH254901   4.380   3.914  11.991 -0.3043 -0.6078 -0.6070
11137TIP3    H154902   4.463   3.870  11.973 -0.3533 -1.0336  0.1654
11137TIP3    H254903   4.391   4.003  11.956  1.4503  0.1922  1.8360
11138TIP3   OH254904   1.242   4.743  14.255  0.0427  0.3427  0.6215
11138TIP3    H154905   1.319   4.773  14.302  1.0500  0.6788 -1.1721
11138TIP3    H254906   1.260   4.651  14.234 -1.3774 -0.4534  2.8057
11139TIP3   OH254907   4.355   2.821  16.860 -0.1721  0.7261 -0.1611
11139TIP3    H154908   4.269   2.802  16.821 -1.0359  1.7220  1.2322
11139TIP3    H254909   4.355   2.916  16.873  1.4038  0.8116 -0.7468
11140TIP3   OH254910   5.518   4.741  17.282  0.5214 -0.0904 -0.2837
11140TIP3    H154911   5.614   4.737  17.280  0.6094  0.5101  1.6780
11140TIP3    H254912   5.498   4.834  17.271  0.1308 -0.2990 -1.3736
11141TIP3   OH254913   3.741   6.073   2.822 -0.2607  0.2540 -0.0599
11141TIP3    H154914   3.788   6.144   2.779  1.0255  0.8833  2.3096
11141TIP3    H254915   3.692   6.115   2.893 -1.9962 -0.8123 -0.5732
11142TIP3   OH254916   1.505   1.138   2.355 -0.0009 -0.1421  0.3169
11142TIP3    H154917   1.466   1.060   2.395 -0.1617  0.3601  1.1495
11142TIP3    H254918   1.434   1.175   2.301 -0.0369 -0.3655  0.2100
11143TIP3   OH254919   0.988   5.237   5.303  0.2421  0.2144  0.2267
11143TIP3    H154920   0.935   5.245   5.224  1.7855  0.2720 -0.8267
11143TIP3    H254921   0.968   5.150   5.337  0.0432 -0.0491 -0.5673
11144TIP3   OH254922   5.338   0.121   5.031 -0.0211 -0.5501 -0.6708
11144TIP3    H154923   5.271   0.190   5.039 -0.2676 -0.9217  0.5276
11144TIP3    H254924   5.410   0.164   4.985 -0.3760  0.3589 -0.4057
11145TIP3   OH254925   1.761   2.841  10.883 -0.5408  0.5064 -0.8372
11145TIP3    H154926   1.831   2.885  10.930 -1.0938  1.5284 -0.9583
11145TIP3    H254927   1.800   2.759  10.854  0.5223  0.9367 -0.6636
11146TIP3   OH254928   3.718   5.538   1.255  0.1358 -0.1414 -0.4613
11146TIP3    H154929   3.792   5.536   1.195 -1.5684  0.1496 -2.6113
11146TIP3    H254930   3.652   5.482   1.214 -1.0907  0.1364  1.0916
11147TIP3   OH254931   0.364   3.587  15.763 -0.1263 -0.4238 -0.2585
11147TIP3    H154932   0.335   3.610  15.675  0.2971  0.8773 -0.0689
11147TIP3    H254933   0.335   3.660  15.818 -0.0387 -1.0395  0.6142
11148TIP3   OH254934   1.301   0.607  11.826 -0.7807  0.3321 -0.0788
11148TIP3    H154935   1.317   0.570  11.913  2.3880  1.6244 -0.0279
11148TIP3    H254936   1.263   0.693  11.843 -1.6787 -0.0656 -0.0349
11149TIP3   OH254937   4.661   0.171  13.198  0.2148  0.1347  0.0393
11149TIP3    H154938   4.679   0.189  13.291  0.6142  0.3558 -0.0814
11149TIP3    H254939   4.741   0.131  13.165 -0.5580 -1.6593  0.2343
11150TIP3   OH254940   3.859   2.637  11.830 -0.8874  0.1169 -0.0723
11150TIP3    H154941   3.775   2.619  11.788 -0.7698 -0.6766  0.0327
11150TIP3    H254942   3.923   2.627  11.760 -0.7740 -0.3433  0.1004
11151TIP3   OH254943   0.074   3.967  10.888  0.8652 -0.2063  0.5324
11151TIP3    H154944   0.028   3.991  10.807  4.6648  0.3031 -1.5689
11151TIP3    H254945   0.015   3.996  10.958 -3.3045 -2.1741 -1.9432
11152TIP3   OH254946   0.436   5.634   2.834 -0.2201 -0.2842  0.1296
11152TIP3    H154947   0.385   5.699   2.881 -1.7844 -1.7512  0.5260
11152TIP3    H254948   0.521   5.633   2.878 -1.4763 -1.2690  2.6032
11153TIP3   OH254949   5.170   1.401   5.247  0.2673  0.1201  0.2231
11153TIP3    H154950   5.192   1.311   5.221 -1.2119 -0.5573  1.2435
11153TIP3    H254951   5.082   1.415   5.211 -0.5714  0.2224  2.2565
11154TIP3   OH254952   5.732   3.297  16.259  0.3505 -0.2304  0.0774
11154TIP3    H154953   5.751   3.221  16.205  0.7468  0.1497 -0.3144
11154TIP3    H254954   5.729   3.262  16.348  1.0552 -0.6124 -0.0436
11155TIP3   OH254955   4.905   5.402  10.849  0.1083 -1.0355  0.2161
11155TIP3    H154956   4.860   5.487  10.843  0.2055 -0.8609  1.7020
11155TIP3    H254957   4.914   5.373  10.759 -2.8850 -1.0182 -0.1308
11156TIP3   OH254958   2.397   4.811  12.859  0.3380 -0.6447  0.3250
11156TIP3    H154959   2.302   4.818  12.861  0.3927 -0.0213  1.5336
11156TIP3    H254960   2.415   4.735  12.804 -0.8400 -0.4553 -0.3217
11157TIP3   OH254961   0.085   5.093   2.873 -0.2783  0.2635 -0.2173
11157TIP3    H154962  -0.011   5.086   2.869 -0.1850 -1.8243  0.6874
11157TIP3    H254963   0.115   5.064   2.787 -0.3595 -1.0538  0.2013
11158TIP3   OH254964   3.469   2.809  10.792 -0.9341 -0.1404 -0.3878
11158TIP3    H154965   3.428   2.758  10.862  0.8055  0.7907  1.3748
11158TIP3    H254966   3.402   2.871  10.764 -1.6194 -0.4418  0.5690
11159TIP3   OH254967   0.729   2.520   1.800  0.6719 -0.7384  0.0243
11159TIP3    H154968   0.803   2.486   1.749  0.8573 -0.6291  0.2182
11159TIP3    H254969   0.670   2.445   1.810 -1.0773  0.0881 -3.3864
11160TIP3   OH254970   2.396   2.366  11.664  0.5209  0.3731 -0.3229
11160TIP3    H154971   2.373   2.434  11.601 -2.8109 -0.8068 -0.4903
11160TIP3    H254972   2.429   2.294  11.610 -1.2409 -0.2021 -0.6668
11161TIP3   OH254973   0.358   5.639  16.184 -0.1144  0.2468 -0.1126
11161TIP3    H154974   0.410   5.616  16.107  2.3483  1.9031  0.9920
11161TIP3    H254975   0.421   5.637  16.256 -2.1634 -0.2612  1.7214
11162TIP3   OH254976   5.666   2.421   2.509  0.1419 -0.1681 -0.7167
11162TIP3    H154977   5.714   2.482   2.453  0.4541 -0.0033 -0.2719
11162TIP3    H254978   5.604   2.378   2.450  0.1536  0.3348 -1.0954
11163TIP3   OH254979   2.095   1.864   2.674  0.0927 -0.1852 -0.6944
11163TIP3    H154980   2.080   1.773   2.648 -1.5061  0.0038 -0.4363
11163TIP3    H254981   2.035   1.915   2.620 -0.9636  0.4756  1.0588
11164TIP3   OH254982   5.081   2.214  15.023  0.3505 -0.4038 -0.9468
11164TIP3    H154983   5.065   2.121  15.034 -0.9462 -0.0106  0.6297
11164TIP3    H254984   5.171   2.220  14.992 -0.1828 -2.2765 -2.9682
11165TIP3   OH254985   1.480   6.002  14.093 -0.3376  0.7257  0.0825
11165TIP3    H154986   1.475   5.911  14.063  0.1886  0.6620  0.1871
11165TIP3    H254987   1.389   6.026  14.111 -0.4939  0.2641 -0.0774
11166TIP3   OH254988   5.172   4.700   0.688 -0.1200 -0.2998 -0.6147
11166TIP3    H154989   5.260   4.735   0.701  0.1165 -0.8106 -0.8367
11166TIP3    H254990   5.164   4.686   0.594 -1.2014  1.7316 -0.8451
11167TIP3   OH254991   0.792   2.635   2.723 -0.2925 -0.3304 -0.1265
11167TIP3    H154992   0.876   2.646   2.767 -1.5415  1.3736  1.8688
11167TIP3    H254993   0.750   2.562   2.770 -0.9895  0.4933  0.5332
11168TIP3   OH254994   4.327   3.600  16.703  0.3608  0.8193  0.1252
11168TIP3    H154995   4.301   3.670  16.762 -2.2458  0.3116 -0.3959
11168TIP3    H254996   4.339   3.644  16.618 -2.0440  0.5487 -0.3860
11169TIP3   OH254997   2.606   0.787   3.807 -0.7534 -0.5747 -0.4480
11169TIP3    H154998   2.528   0.778   3.752 -1.1085  0.1018 -0.0569
11169TIP3    H254999   2.651   0.702   3.799 -1.5036 -0.9514 -0.7034
11170TIP3   OH255000   4.710   1.140   5.297  0.0377  0.0223 -0.4765
11170TIP3    H155001   4.647   1.161   5.227  0.6245 -0.9053 -1.2937
11170TIP3    H255002   4.712   1.219   5.351 -1.8349  0.0778 -0.4322
11171TIP3   OH255003   5.512   2.566  15.374 -0.1055  0.3475 -0.6358
11171TIP3    H155004   5.521   2.645  15.321 -0.0220  1.1645  0.5781
11171TIP3    H255005   5.421   2.538  15.362 -1.2784  2.8601  1.9998
11172TIP3   OH255006   0.692   1.972  11.627 -0.5760 -0.3599  0.6147
11172TIP3    H155007   0.630   1.933  11.565 -0.5109  0.1352  0.2305
11172TIP3    H255008   0.641   1.986  11.707 -1.0752  0.4466  0.1562
11173TIP3   OH255009   1.989   0.580   2.814 -0.2155 -0.1315 -0.0856
11173TIP3    H155010   2.017   0.488   2.808 -0.2061 -0.2660  1.6629
11173TIP3    H255011   1.901   0.581   2.776  0.1109 -0.7061 -0.8689
11174TIP3   OH255012   1.440   0.510  12.055  0.1958 -0.7814  0.2221
11174TIP3    H155013   1.422   0.554  12.138  1.5826  2.0020 -0.9146
11174TIP3    H255014   1.536   0.508  12.049  0.1155 -1.6139 -0.9978
11175TIP3   OH255015   0.759   1.004  13.892 -0.9992  0.1393 -1.1442
11175TIP3    H155016   0.809   0.974  13.817 -0.9288 -0.8879 -0.6957
11175TIP3    H255017   0.715   0.926  13.925 -0.1330  0.3278  0.5660
11176TIP3   OH255018   5.122   6.509   6.112  0.4112  0.0336  0.2947
11176TIP3    H155019   5.041   6.545   6.149  0.5762 -0.1810  0.8669
11176TIP3    H255020   5.108   6.414   6.112  0.4812  0.0223 -0.0388
11177TIP3   OH255021   4.222   5.026   2.986 -0.2255 -0.7687  0.3998
11177TIP3    H155022   4.203   4.981   3.068 -0.7259 -1.4938 -0.1137
11177TIP3    H255023   4.169   4.981   2.921 -0.0716  0.0123 -0.2688
11178TIP3   OH255024   0.166   0.549  14.517  0.0835  0.5805  0.0695
11178TIP3    H155025   0.239   0.490  14.494  0.6747  0.7465  1.4929
11178TIP3    H255026   0.204   0.636  14.513 -0.8289  0.9187 -2.1666
11179TIP3   OH255027   3.439   0.807  12.642  0.3009 -0.4661 -0.2343
11179TIP3    H155028   3.459   0.829  12.733 -3.1190  1.1276  0.2113
11179TIP3    H255029   3.377   0.734  12.648 -1.1845  0.6814 -1.2082
11180TIP3   OH255030   2.672   2.759   4.612 -0.3326 -0.8144 -0.4006
11180TIP3    H155031   2.637   2.796   4.693  0.8054  0.8496 -0.6483
11180TIP3    H255032   2.597   2.755   4.553 -1.3193 -2.6571  0.9171
11181TIP3   OH255033   5.383   2.002  15.741  0.9669  0.0400 -0.3627
11181TIP3    H155034   5.412   1.912  15.756  0.8765  0.5536  3.3316
11181TIP3    H255035   5.288   1.996  15.735  1.0579 -0.2756 -1.8090
11182TIP3   OH255036   4.408   2.765  17.160  0.3787  0.7251  0.1679
11182TIP3    H155037   4.457   2.815  17.095 -0.0294  0.7015 -0.1617
11182TIP3    H255038   4.470   2.700  17.191  0.2103 -0.0712 -1.1078
11183TIP3   OH255039   3.217   1.989  11.282  0.1935  0.3347  0.3863
11183TIP3    H155040   3.168   2.030  11.353  0.2537  0.7401  0.1968
11183TIP3    H255041   3.269   1.921  11.324  0.8281  1.0949  0.8474
11184TIP3   OH255042   6.779   5.388   0.461  0.5248  0.0715  0.2947
11184TIP3    H155043   6.831   5.308   0.467  0.8508  0.0120 -2.7330
11184TIP3    H255044   6.725   5.376   0.383 -3.0999  0.7238  2.5601
11185TIP3   OH255045   3.652   1.992   4.572  0.5528 -0.1657 -0.4306
11185TIP3    H155046   3.637   1.901   4.600  0.3678  0.1651  0.5711
11185TIP3    H255047   3.714   1.985   4.500  1.0932 -1.0445  0.1099
11186TIP3   OH255048   0.109   1.742  15.741  0.6622 -0.1749 -0.3123
11186TIP3    H155049   0.027   1.784  15.766  1.2381 -0.2316  1.7809
11186TIP3    H255050   0.157   1.809  15.693 -0.8574 -0.3512 -2.1235
11187TIP3   OH255051   5.108   1.001   1.521  0.2598  0.0848 -0.7743
11187TIP3    H155052   5.073   0.938   1.584  1.4082  0.0380 -0.1779
11187TIP3    H255053   5.030   1.037   1.478 -0.4430 -1.2425 -0.6502
11188TIP3   OH255054   6.592   0.460  14.709 -0.3283 -0.1543 -0.0326
11188TIP3    H155055   6.512   0.432  14.666 -1.1408  1.1242  0.6333
11188TIP3    H255056   6.600   0.404  14.786 -0.9022  0.1119  0.2212
11189TIP3   OH255057   1.655   6.674   1.728 -0.7333  0.1547 -0.0454
11189TIP3    H155058   1.711   6.672   1.806 -0.1428  0.7856 -0.4394
11189TIP3    H255059   1.594   6.601   1.740 -0.5703  0.1696  0.9456
11190TIP3   OH255060   4.454   4.174  13.614  0.1405 -0.4332  0.2374
11190TIP3    H155061   4.365   4.182  13.581  0.6411  3.1673 -0.4680
11190TIP3    H255062   4.448   4.198  13.707  0.1816 -1.5318  0.5331
11191TIP3   OH255063   6.109   1.780   5.608  0.4582  0.2845 -0.4334
11191TIP3    H155064   6.167   1.839   5.657 -0.0573  0.6687 -0.2892
11191TIP3    H255065   6.047   1.838   5.564 -0.7073 -0.2180  0.5454
11192TIP3   OH255066   6.117   4.688  12.142  0.3841 -0.2553 -0.1732
11192TIP3    H155067   6.074   4.770  12.117 -0.0108 -0.0874  1.0167
11192TIP3    H255068   6.206   4.697  12.109  0.0007  0.1459 -1.1099
11193TIP3   OH255069   5.695   6.554  13.456  0.5039  0.1418  0.1617
11193TIP3    H155070   5.736   6.474  13.489  0.0191 -0.6806 -1.1621
11193TIP3    H255071   5.621   6.523  13.404 -0.7360  1.5371  1.0554
11194TIP3   OH255072   3.836   3.850  13.600  0.3719  0.0130 -0.3576
11194TIP3    H155073   3.839   3.861  13.695 -0.6518 -2.6850  0.0334
11194TIP3    H255074   3.916   3.892  13.569  0.4420  1.4186  1.6364
11195TIP3   OH255075   5.351   4.337  12.586 -0.2547 -0.3182  0.1992
11195TIP3    H155076   5.286   4.349  12.656 -1.5331 -2.5103 -0.5418
11195TIP3    H255077   5.306   4.366  12.507  0.8879  1.3472  0.1559
11196TIP3   OH255078   5.053   0.994  13.794  0.1469 -0.0612 -0.3389
11196TIP3    H155079   5.014   1.060  13.736  0.4153  1.1623  0.8287
11196TIP3    H255080   5.096   0.933  13.735  0.8284  1.4230 -1.4329
11197TIP3   OH255081   3.272   0.350   4.858 -0.4827  0.6617  0.2670
11197TIP3    H155082   3.284   0.273   4.803 -1.0913  0.1460  0.8500
11197TIP3    H255083   3.245   0.419   4.798 -0.7480  0.2074 -0.1359
11198TIP3   OH255084   0.910   6.362  12.342  0.4886  0.0988 -0.1567
11198TIP3    H155085   0.905   6.336  12.250  0.7128  0.0177 -0.1441
11198TIP3    H255086   0.853   6.438  12.348 -1.2573 -1.1848  0.0826
11199TIP3   OH255087   6.648   4.539  13.450 -0.2970  0.6255  0.0589
11199TIP3    H155088   6.699   4.560  13.529  0.1167  0.0764 -0.0647
11199TIP3    H255089   6.614   4.451  13.466 -1.1729  0.9652  0.1219
11200TIP3   OH255090   5.762   5.483  17.173 -0.1982  0.8054  0.3058
11200TIP3    H155091   5.700   5.410  17.167 -0.9795  1.4485  0.4950
11200TIP3    H255092   5.823   5.468  17.101 -0.0253 -0.3409  0.6729
11201TIP3   OH255093   5.641   4.058   2.704  0.0309  0.4633  0.1941
11201TIP3    H155094   5.562   4.054   2.651 -0.3604 -1.0060  0.8482
11201TIP3    H255095   5.662   3.966   2.722  1.1357  0.8871  1.1278
11202TIP3   OH255096   1.107   3.619   3.611 -0.5016 -0.5583 -0.2283
11202TIP3    H155097   1.093   3.707   3.646  0.7330 -0.7157  0.7007
11202TIP3    H255098   1.051   3.615   3.533 -1.6273  0.5566  0.5044
11203TIP3   OH255099   6.041   0.956  11.291 -0.1916  0.4682  0.1561
11203TIP3    H155100   5.977   1.027  11.285 -0.2592  0.4170  0.2651
11203TIP3    H255101   6.087   0.958  11.207  1.3389  2.0493  1.0205
11204TIP3   OH255102   5.902   3.151  13.457 -0.2950 -0.7950  0.0956
11204TIP3    H155103   5.858   3.159  13.372  1.7693  0.3947 -0.9222
11204TIP3    H255104   5.904   3.241  13.491  0.3458 -1.0116  0.6361
11205TIP3   OH255105   2.739   1.155  11.475 -0.0625  0.1102  0.2410
11205TIP3    H155106   2.801   1.106  11.421 -1.8555 -0.3227 -1.4618
11205TIP3    H255107   2.669   1.180  11.415 -1.5748  0.5548  2.1505
11206TIP3   OH255108   1.681   5.513  13.191  0.4814  0.5644 -0.1749
11206TIP3    H155109   1.692   5.510  13.286  0.7723 -0.2735 -0.2280
11206TIP3    H255110   1.686   5.606  13.169  1.7572  0.6528  0.4679
11207TIP3   OH255111   6.170   6.490   3.978 -0.1276  0.2009 -0.9578
11207TIP3    H155112   6.101   6.477   3.913 -0.9281  1.3594 -0.3704
11207TIP3    H255113   6.183   6.585   3.981  0.1252  0.1423  0.3373
11208TIP3   OH255114   0.212   0.818  14.441 -0.2418  0.2936 -0.1920
11208TIP3    H155115   0.132   0.846  14.486  0.2463 -0.4200  1.1396
11208TIP3    H255116   0.222   0.880  14.369 -1.9570  0.4341 -0.3232
11209TIP3   OH255117   5.331   0.038   3.216 -0.6506  0.5909 -0.2893
11209TIP3    H155118   5.342   0.132   3.229 -1.6159  0.9947 -2.2030
11209TIP3    H255119   5.260   0.013   3.276 -0.2213  1.0295  0.3999
11210TIP3   OH255120   3.173   5.280   2.372 -0.1746  0.0416  0.1369
11210TIP3    H155121   3.126   5.241   2.446 -1.7425  0.6166 -0.5472
11210TIP3    H255122   3.109   5.338   2.331  1.4073  1.5477 -0.2610
11211TIP3   OH255123   1.358   3.680   1.923  0.3014 -0.1735  0.2260
11211TIP3    H155124   1.310   3.712   2.000 -0.5696 -0.3960 -0.2224
11211TIP3    H255125   1.340   3.745   1.855 -0.4628 -0.9590 -0.3281
11212TIP3   OH255126   4.372   1.932  17.202  0.1722 -0.2093 -0.3381
11212TIP3    H155127   4.328   1.863  17.154  0.5176  0.0223 -0.9958
11212TIP3    H255128   4.329   1.933  17.288 -1.9311  0.8419 -1.3704
11213TIP3   OH255129   3.068   5.907  15.533 -0.3214 -0.3380 -0.3944
11213TIP3    H155130   3.029   5.822  15.553  1.1432 -1.1272 -0.7561
11213TIP3    H255131   3.123   5.927  15.609  2.2478 -1.5153 -1.8816
11214TIP3   OH255132   2.568   1.098   1.858 -0.0677  0.0423 -0.0602
11214TIP3    H155133   2.557   1.192   1.847  0.2525  0.2974  1.7746
11214TIP3    H255134   2.488   1.060   1.821 -1.5101  1.1824  1.8473
11215TIP3   OH255135   6.780   3.152   0.418 -0.9088  0.3408 -0.0106
11215TIP3    H155136   6.793   3.059   0.438  0.5986  0.4035 -0.6397
11215TIP3    H255137   6.738   3.187   0.497 -0.3738 -0.6158  0.7240
11216TIP3   OH255138   5.337   6.330  16.609  0.4266  0.4131  0.3707
11216TIP3    H155139   5.348   6.343  16.514 -1.1256  0.1663  0.1381
11216TIP3    H255140   5.353   6.236  16.622 -1.8244 -0.0609 -0.0517
11217TIP3   OH255141   3.525   2.158  10.232  0.2356 -0.1197  0.1084
11217TIP3    H155142   3.540   2.226  10.297  0.6825  0.7166 -0.8443
11217TIP3    H255143   3.455   2.192  10.176 -0.1563 -0.8296  0.1590
11218TIP3   OH255144   4.108   3.313  11.212 -0.0319  0.0101  0.0226
11218TIP3    H155145   4.024   3.315  11.257 -1.0640 -1.5672 -1.7678
11218TIP3    H255146   4.096   3.374  11.139  1.5490  2.3827  1.6701
11219TIP3   OH255147   6.132   5.330  15.119  0.0034 -0.2286  0.1480
11219TIP3    H155148   6.227   5.327  15.131  0.1797 -1.5840 -1.3308
11219TIP3    H255149   6.120   5.390  15.045 -0.2665 -0.2754  0.1551
11220TIP3   OH255150   1.121   3.367   3.676  0.2509  0.2469 -0.2603
11220TIP3    H155151   1.146   3.325   3.594  0.0016  0.0396 -0.2313
11220TIP3    H255152   1.109   3.459   3.653 -0.1869  0.1221 -0.5355
11221TIP3   OH255153   4.577   0.958   0.556 -0.4290 -0.0500 -0.0457
11221TIP3    H155154   4.614   1.045   0.572 -1.0213  0.2610 -0.3380
11221TIP3    H255155   4.553   0.926   0.643 -0.1754  0.0632  0.0660
11222TIP3   OH255156   2.202   1.836   1.686 -0.2996  0.0195 -0.0540
11222TIP3    H155157   2.277   1.806   1.737 -1.1092 -0.0377  1.1207
11222TIP3    H255158   2.219   1.802   1.598  0.6494 -0.6908  0.3841
11223TIP3   OH255159   3.581   4.756  14.567 -0.1014  0.3267  0.2768
11223TIP3    H155160   3.544   4.832  14.613 -1.6428 -0.7167  0.8201
11223TIP3    H255161   3.606   4.790  14.481  1.2933  1.9426  1.2822
11224TIP3   OH255162   0.138   1.063  16.266 -0.1095 -0.5728 -0.2485
11224TIP3    H155163   0.158   1.034  16.177 -2.5595 -0.0741 -0.9985
11224TIP3    H255164   0.120   0.981  16.314 -3.0692 -0.6372 -1.3516
11225TIP3   OH255165   0.257   2.887  13.875 -0.4259 -0.0010  0.4510
11225TIP3    H155166   0.188   2.850  13.929 -1.9066  1.4638 -0.3997
11225TIP3    H255167   0.241   2.851  13.787 -1.1232  1.6029 -0.1038
11226TIP3   OH255168   0.501   5.938   2.794  0.4603  0.9365  0.3151
11226TIP3    H155169   0.407   5.920   2.793  0.4140  1.1458  0.6115
11226TIP3    H255170   0.517   5.973   2.882  0.9966 -0.0412  0.6056
11227TIP3   OH255171   3.179   0.606   5.016 -0.1866  0.5113  0.2776
11227TIP3    H155172   3.223   0.540   5.069  1.6253  0.1626 -1.5866
11227TIP3    H255173   3.251   0.654   4.973 -1.5926  0.0852 -2.6806
11228TIP3   OH255174   4.618   0.237  15.408 -0.3046  0.3999 -0.0528
11228TIP3    H155175   4.593   0.329  15.402  2.8495  1.3168 -0.2204
11228TIP3    H255176   4.667   0.230  15.490  1.0263 -0.7244 -0.9173
11229TIP3   OH255177   2.832   0.596   6.700 -0.3979 -0.1060  0.0757
11229TIP3    H155178   2.848   0.686   6.670  0.0148  0.1095  0.9275
11229TIP3    H255179   2.737   0.587   6.697 -0.4101  0.2018 -0.4852
11230TIP3   OH255180   1.389   2.137  16.545  0.2629 -0.6222 -0.4387
11230TIP3    H155181   1.326   2.075  16.508  0.3811 -0.5720 -0.7282
11230TIP3    H255182   1.375   2.217  16.495 -1.4036  0.2629  1.3961
11231TIP3   OH255183   5.103   5.033  17.030 -0.1543 -1.0057 -0.7579
11231TIP3    H155184   5.128   5.121  17.059 -1.3723 -0.8948 -0.0125
11231TIP3    H255185   5.050   5.048  16.952  0.4426 -1.1295 -1.1819
11232TIP3   OH255186   0.171   5.200  13.606  0.2766 -0.4164  0.1797
11232TIP3    H155187   0.137   5.115  13.582  0.5783 -0.4428 -0.1627
11232TIP3    H255188   0.102   5.240  13.659 -1.1574  0.3533 -2.1650
11233TIP3   OH255189   6.188   3.612   0.070  0.2127 -0.6554  0.3610
11233TIP3    H155190   6.191   3.621   0.165  1.3834 -1.1472  0.3795
11233TIP3    H255191   6.133   3.684   0.041 -0.1261 -0.4843  1.4129
11234TIP3   OH255192   0.796   4.787  13.345  0.3729  0.3582 -0.6415
11234TIP3    H155193   0.706   4.789  13.311  0.9078 -0.6339 -2.1820
11234TIP3    H255194   0.818   4.878  13.361 -0.4103  0.7391 -1.6572
11235TIP3   OH255195   1.142   5.051  14.186  0.1413 -0.0725 -0.5064
11235TIP3    H155196   1.231   5.018  14.182 -0.3171 -1.3261 -0.6863
11235TIP3    H255197   1.146   5.127  14.244  0.6760 -2.3015  2.5263
11236TIP3   OH255198   5.964   3.049   3.153 -0.1083 -0.0217  0.5389
11236TIP3    H155199   5.961   2.975   3.213  0.9224  0.0082  0.6296
11236TIP3    H255200   5.920   3.018   3.074  1.4621 -1.1796  0.0965
11237TIP3   OH255201   3.598   4.561  16.826  0.0869 -0.6120 -0.4044
11237TIP3    H155202   3.548   4.485  16.857 -1.9639  0.9689  0.2772
11237TIP3    H255203   3.605   4.548  16.732 -1.5451 -0.9082 -0.4951
11238TIP3   OH255204   5.061   4.507  13.726 -0.2902 -0.0772 -0.3763
11238TIP3    H155205   5.080   4.539  13.815 -0.4933 -0.7747 -0.0827
11238TIP3    H255206   5.108   4.424  13.720  0.1725  0.2326 -1.1173
11239TIP3   OH255207   0.236   0.674   6.098 -0.0235  0.4554  0.0380
11239TIP3    H155208   0.160   0.673   6.155 -0.5273 -0.5788 -0.6232
11239TIP3    H255209   0.294   0.606   6.132  1.8840  3.0555  2.1784
11240TIP3   OH255210   2.138   1.505  11.970 -0.4100 -0.4234 -0.5656
11240TIP3    H155211   2.072   1.444  12.001 -0.0634 -0.3962  0.2530
11240TIP3    H255212   2.091   1.588  11.958 -0.3390 -0.1518  0.9482
11241TIP3   OH255213   1.559   4.993   1.186  0.3014  0.0384 -0.3173
11241TIP3    H155214   1.559   5.072   1.133 -0.5046  0.0902 -0.2416
11241TIP3    H255215   1.650   4.983   1.216  0.0064  2.0284  1.3333
11242TIP3   OH255216   6.728   4.419   4.862  0.2567  0.1883 -0.3292
11242TIP3    H155217   6.643   4.380   4.838  0.3486 -1.0290  1.1764
11242TIP3    H255218   6.729   4.504   4.819 -0.8453 -0.6492 -2.0632
11243TIP3   OH255219   0.744   5.575  11.267  0.1142 -0.1765  0.1511
11243TIP3    H155220   0.683   5.605  11.200 -0.1860 -0.2651  0.3800
11243TIP3    H255221   0.808   5.522  11.220  1.9849  2.6696 -0.6350
11244TIP3   OH255222   3.216   5.226  12.673 -0.4748 -0.3653 -0.7040
11244TIP3    H155223   3.268   5.146  12.664 -1.0849 -0.7016 -1.2574
11244TIP3    H255224   3.238   5.277  12.596 -0.0817  0.0090 -0.3475
11245TIP3   OH255225   1.178   3.078  16.697  0.1977 -0.3033 -0.2518
11245TIP3    H155226   1.172   2.999  16.752  1.4993  1.1588  2.0796
11245TIP3    H255227   1.272   3.097  16.694 -0.2688  2.3834  1.0497
11246TIP3   OH255228   0.618   1.652  12.639 -0.1278  0.1462 -0.2918
11246TIP3    H155229   0.554   1.694  12.697  0.6761  2.0120 -0.7117
11246TIP3    H255230   0.702   1.661  12.685  0.5239  1.6678 -1.7113
11247TIP3   OH255231   0.971   3.735   5.415  0.0282 -0.3854 -0.0837
11247TIP3    H155232   0.942   3.817   5.454 -2.6105 -0.6563 -1.4178
11247TIP3    H255233   1.013   3.760   5.333  2.1126 -0.1540  1.0006
11248TIP3   OH255234   3.931   5.299  13.222  0.2144 -0.3772 -0.0584
11248TIP3    H155235   3.847   5.268  13.188  0.6475 -1.5385 -0.1137
11248TIP3    H255236   3.979   5.328  13.144  0.6385 -1.6528 -0.2971
11249TIP3   OH255237   5.533   1.831   2.051  0.2538  0.3583 -0.0300
11249TIP3    H155238   5.575   1.751   2.020 -0.7364  0.3997 -1.5269
11249TIP3    H255239   5.449   1.834   2.003 -0.1804  1.7265  0.8043
11250TIP3   OH255240   0.958   2.106   5.181  0.0830 -0.1182  0.0898
11250TIP3    H155241   0.892   2.165   5.145  0.8208  2.5533  2.8628
11250TIP3    H255242   1.042   2.143   5.152  0.4765 -1.7305 -0.8808
11251TIP3   OH255243   1.895   2.812  13.472  0.2732  0.0187  0.0013
11251TIP3    H155244   1.925   2.903  13.479  1.5135 -0.3785 -0.0590
11251TIP3    H255245   1.800   2.818  13.478  0.2323  1.4915 -1.7975
11252TIP3   OH255246   0.480   5.773   5.800  0.4160  0.0112 -0.4538
11252TIP3    H155247   0.479   5.863   5.834 -0.1356 -0.1236 -0.1141
11252TIP3    H255248   0.442   5.720   5.870  1.2726 -0.5751 -0.4194
11253TIP3   OH255249   0.038   4.243   2.830  0.8540  0.3936 -0.3559
11253TIP3    H155250   0.048   4.262   2.923 -1.2773  0.2122 -0.0540
11253TIP3    H255251  -0.057   4.251   2.814  1.2778  1.2317 -2.6832
11254TIP3   OH255252   6.211   5.438   6.007  0.0462 -0.4057  0.5871
11254TIP3    H155253   6.222   5.417   6.100 -1.8540 -0.0911  0.9052
11254TIP3    H255254   6.224   5.354   5.962 -1.5411 -1.0726  1.3486
11255TIP3   OH255255   1.398   5.842  15.600 -0.2205  0.2776 -0.2807
11255TIP3    H155256   1.330   5.830  15.533 -1.1566 -0.4711  0.7883
11255TIP3    H255257   1.472   5.881  15.553 -0.6610 -0.7713 -1.8871
11256TIP3   OH255258   5.777   5.161   3.423 -0.1945  0.1896  0.3662
11256TIP3    H155259   5.743   5.094   3.363  1.9786 -0.4343 -0.2113
11256TIP3    H255260   5.809   5.112   3.499  0.1072  0.6941  0.5669
11257TIP3   OH255261   0.058   1.930  16.325 -0.1226  0.4157  0.0444
11257TIP3    H155262   0.018   2.010  16.291  1.3216  1.8291  1.5627
11257TIP3    H255263   0.061   1.870  16.251  0.2138  2.3454 -1.5229
11258TIP3   OH255264   0.168   5.505   2.313  0.1975  0.1030 -0.4067
11258TIP3    H155265   0.080   5.503   2.274  1.8492  0.7831 -4.4343
11258TIP3    H255266   0.188   5.598   2.323  0.5551 -0.0489  0.3052
11259TIP3   OH255267   6.679   2.684  11.776  0.2318 -0.4819  0.6321
11259TIP3    H155268   6.672   2.750  11.845  0.0864 -0.3872  0.5272
11259TIP3    H255269   6.773   2.669  11.766  0.3447  0.8040 -0.3751
11260TIP3   OH255270   3.087   5.030  16.034 -0.3636  0.0723  0.5882
11260TIP3    H155271   3.086   5.125  16.023 -1.3517  0.1181  0.9962
11260TIP3    H255272   3.149   4.999  15.968 -0.3193  0.9675  0.1994
11261TIP3   OH255273   1.624   5.075   1.831 -0.1096 -0.5101 -0.5579
11261TIP3    H155274   1.611   5.149   1.772 -1.2037 -0.4269 -0.2159
11261TIP3    H255275   1.632   4.999   1.772 -2.6265 -0.6365 -0.7880
11262TIP3   OH255276   0.958   5.716   5.729 -0.0607  0.5925  0.3288
11262TIP3    H155277   0.976   5.623   5.740 -0.3769  0.5125  0.1713
11262TIP3    H255278   0.983   5.755   5.813 -0.7055  0.2460  0.6856
11263TIP3   OH255279   5.625   4.474  10.376 -0.4264  0.6086  0.2370
11263TIP3    H155280   5.559   4.483  10.444 -1.0506  2.0286 -0.5400
11263TIP3    H255281   5.685   4.407  10.409 -2.6770 -1.2678  0.5961
11264TIP3   OH255282   2.092   0.798  11.840 -1.0103  0.0825  0.2375
11264TIP3    H155283   2.154   0.728  11.862 -0.2098  0.3497 -1.1129
11264TIP3    H255284   2.125   0.875  11.887  1.9485  1.2075 -3.4485
11265TIP3   OH255285   4.157   0.818  14.727  0.4763 -0.1202 -0.0406
11265TIP3    H155286   4.173   0.881  14.657 -1.0474  0.4767  0.1406
11265TIP3    H255287   4.121   0.870  14.799 -0.8004 -1.1753  0.1053
11266TIP3   OH255288   2.469   2.382   0.128  0.5681 -0.3478  0.6312
11266TIP3    H155289   2.486   2.374   0.034  1.4441  1.2926  0.6317
11266TIP3    H255290   2.386   2.427   0.134 -0.4516 -2.1826  0.6568
11267TIP3   OH255291   5.204   3.494   4.065  0.0748 -0.4461 -0.2267
11267TIP3    H155292   5.248   3.567   4.107 -0.5214 -0.2082  0.0005
11267TIP3    H255293   5.234   3.496   3.974 -0.9067  0.8821 -0.5471
11268TIP3   OH255294   4.956   3.385   0.092 -0.1411  0.4429 -1.3781
11268TIP3    H155295   4.872   3.414   0.056 -0.8086  0.0389 -0.1627
11268TIP3    H255296   4.995   3.464   0.129 -0.7487  0.3174 -0.4553
11269TIP3   OH255297   3.533   6.646   0.855 -0.3879 -0.2824  0.0510
11269TIP3    H155298   3.493   6.732   0.841  1.1476  0.3432 -0.5635
11269TIP3    H255299   3.626   6.664   0.866 -0.0789 -1.8575  0.1569
11270TIP3   OH255300   2.379   0.201  15.698  0.2670 -0.2323  0.3956
11270TIP3    H155301   2.435   0.277  15.716 -0.9989  1.1678 -1.3896
11270TIP3    H255302   2.344   0.177  15.784 -0.0768  1.8249  0.8726
11271TIP3   OH255303   5.772   6.373   1.859 -0.2191  0.3774 -0.2120
11271TIP3    H155304   5.678   6.355   1.863  0.0522 -1.2810 -0.8582
11271TIP3    H255305   5.778   6.463   1.826 -1.6031  1.1247  1.5001
11272TIP3   OH255306   1.429   4.699   5.405  0.4772 -0.5707 -0.3163
11272TIP3    H155307   1.340   4.671   5.386  0.2254  0.2375 -0.3519
11272TIP3    H255308   1.420   4.762   5.477  0.9435  0.0158 -0.7553
11273TIP3   OH255309   6.042   4.321  17.115 -0.4623 -0.2538  0.2357
11273TIP3    H155310   6.032   4.227  17.101 -0.1533 -0.3734  0.7863
11273TIP3    H255311   5.955   4.357  17.097 -0.2413 -0.4709 -1.3081
11274TIP3   OH255312   1.148   5.941   1.475 -0.2966 -0.5198  0.2825
11274TIP3    H155313   1.165   6.026   1.434  0.0642 -1.1274 -0.8430
11274TIP3    H255314   1.232   5.895   1.470 -0.6636 -1.1899  0.2931
11275TIP3   OH255315   4.218   1.694   4.197 -0.7769 -0.3607 -0.2015
11275TIP3    H155316   4.151   1.672   4.262 -1.5765  1.0115 -0.5527
11275TIP3    H255317   4.234   1.612   4.151 -2.7858 -0.5216 -0.6492
11276TIP3   OH255318   2.147   5.097  15.696  0.2124  0.0667 -0.1348
11276TIP3    H155319   2.065   5.095  15.648 -0.6729 -0.2692  1.3637
11276TIP3    H255320   2.170   5.005  15.710  0.6109  0.1593 -0.1537
11277TIP3   OH255321   3.396   5.338  11.484  0.4384  0.0883  0.1728
11277TIP3    H155322   3.376   5.348  11.577  1.2071  0.8395  0.2629
11277TIP3    H255323   3.356   5.254  11.459  0.4504 -0.2337  1.2358
11278TIP3   OH255324   5.908   1.172   1.694  0.3430  0.2711  0.5433
11278TIP3    H155325   5.926   1.265   1.704 -1.1335  0.6833 -0.3522
11278TIP3    H255326   5.976   1.140   1.635  0.8897  0.7731  0.9024
11279TIP3   OH255327   4.032   0.223  16.171 -0.4490 -0.2909  0.6883
11279TIP3    H155328   4.035   0.191  16.081  1.2749 -1.9279  1.2776
11279TIP3    H255329   3.954   0.183  16.209 -1.1902  0.4202 -0.0627
11280TIP3   OH255330   0.932   5.776   4.200  0.4030  0.0136 -0.1032
11280TIP3    H155331   0.922   5.814   4.287 -0.5305 -0.6464  0.0893
11280TIP3    H255332   0.844   5.779   4.162  0.7909  0.2177 -0.9924
11281TIP3   OH255333   2.920   1.998   4.888 -0.1778 -0.4496  0.3367
11281TIP3    H155334   2.916   1.907   4.915 -1.3870 -0.0688  1.4978
11281TIP3    H255335   2.939   2.046   4.968 -0.3599  0.3899 -0.1136
11282TIP3   OH255336   1.866   0.468   2.323 -0.2273 -0.5470  0.3245
11282TIP3    H155337   1.910   0.478   2.238 -1.9805  2.7457 -0.2724
11282TIP3    H255338   1.818   0.385   2.315  1.8239 -1.6860 -0.8236
11283TIP3   OH255339   3.138   4.084   5.378 -0.1808 -0.2015 -0.8935
11283TIP3    H155340   3.125   4.090   5.284 -0.3018 -1.0494 -0.9369
11283TIP3    H255341   3.132   3.990   5.397 -1.5938  0.0838  0.1665
11284TIP3   OH255342   0.856   0.136   2.850 -0.2756  0.0702  0.1861
11284TIP3    H155343   0.796   0.060   2.846 -1.1558  0.6487  1.9124
11284TIP3    H255344   0.912   0.118   2.925  0.1536  0.6833  0.0119
11285TIP3   OH255345   3.688   6.587   4.114 -0.1989  0.0778  0.5416
11285TIP3    H155346   3.682   6.651   4.044 -1.7740 -2.2764 -1.5829
11285TIP3    H255347   3.661   6.634   4.192  1.6148  2.7798 -0.3639
11286TIP3   OH255348   0.908   3.284   5.529  0.6573 -0.0338  0.0756
11286TIP3    H155349   0.945   3.372   5.523  1.0388  0.0152  2.4777
11286TIP3    H255350   0.813   3.298   5.536  0.7436  0.2274  0.8162
11287TIP3   OH255351   6.478   3.561  16.586 -0.1121  0.0942 -0.1638
11287TIP3    H155352   6.551   3.594  16.638  0.8618 -1.0569 -0.7906
11287TIP3    H255353   6.517   3.530  16.505 -1.6499  2.0909 -1.7386
11288TIP3   OH255354   1.025   0.514  17.201 -0.5634  0.0253  0.3622
11288TIP3    H155355   1.021   0.600  17.158  1.0058 -0.4153 -0.7043
11288TIP3    H255356   1.035   0.534  17.294 -2.6131  0.9889  0.4249
11289TIP3   OH255357   2.163   6.051  11.980 -0.1465 -0.3552 -0.1447
11289TIP3    H155358   2.248   6.017  11.951 -0.8106 -0.8012 -1.6345
11289TIP3    H255359   2.109   6.049  11.901 -1.0539  1.4585  0.4135
11290TIP3   OH255360   6.615   0.649  12.146 -0.0522 -0.3480  0.2516
11290TIP3    H155361   6.616   0.685  12.058 -1.6835  0.9568  0.7424
11290TIP3    H255362   6.538   0.688  12.187  1.4083  0.0565  2.6777
11291TIP3   OH255363   6.479   5.489   3.151 -0.0091  0.1546 -0.2101
11291TIP3    H155364   6.524   5.451   3.076  1.5040  0.9704  0.2513
11291TIP3    H255365   6.437   5.568   3.117 -0.6836 -0.3343 -0.5299
11292TIP3   OH255366   4.720   0.021   4.929  0.0836 -0.0282  0.2886
11292TIP3    H155367   4.701   0.082   4.858 -0.5996 -0.5765 -0.0106
11292TIP3    H255368   4.653   0.038   4.994 -1.2706 -1.7335 -0.6181
11293TIP3   OH255369   5.711   1.486   3.235 -0.1180 -0.0442  0.4004
11293TIP3    H155370   5.706   1.413   3.296  1.6279 -0.5325 -0.0219
11293TIP3    H255371   5.796   1.476   3.191 -0.7676  1.0305 -1.1713
11294TIP3   OH255372   4.847   1.185  15.639  0.2120 -0.2172 -0.3045
11294TIP3    H155373   4.904   1.262  15.644 -0.4025  0.1618  0.9789
11294TIP3    H255374   4.759   1.221  15.624 -0.0228 -0.6844 -0.0540
11295TIP3   OH255375   1.050   5.045   1.626 -0.9876  0.3587 -0.2241
11295TIP3    H155376   1.041   5.139   1.644 -0.3735  0.1147  1.4631
11295TIP3    H255377   1.103   5.012   1.699 -0.1525 -1.0754 -1.4545
11296TIP3   OH255378   2.613   0.999   0.455 -0.0959 -0.5505 -0.2262
11296TIP3    H155379   2.563   0.980   0.535  1.3319 -1.0115  0.5831
11296TIP3    H255380   2.688   1.050   0.486  0.4158 -0.6513 -1.2949
11297TIP3   OH255381   4.687   1.723  12.040 -0.1893  0.5251  0.0030
11297TIP3    H155382   4.597   1.689  12.043 -0.5574  1.4560 -0.3359
11297TIP3    H255383   4.698   1.753  11.949 -0.0375  1.7596  0.4188
11298TIP3   OH255384   1.234   4.172   1.001  0.2983  0.2426  0.0281
11298TIP3    H155385   1.147   4.152   1.037 -0.9203  0.6725 -2.5915
11298TIP3    H255386   1.287   4.097   1.027 -0.8281 -0.0440  1.6456
11299TIP3   OH255387   1.304   4.258   2.409 -0.0582 -0.0976  0.4927
11299TIP3    H155388   1.375   4.245   2.346  0.8366 -2.3576  1.9245
11299TIP3    H255389   1.326   4.340   2.454  0.4410  0.3717 -0.5802
11300TIP3   OH255390   1.641   2.343  11.301  0.0898  0.3917  0.2908
11300TIP3    H155391   1.688   2.272  11.345 -0.2341  0.3952  0.6455
11300TIP3    H255392   1.566   2.300  11.260  0.6477  0.3132 -0.6604
11301TIP3   OH255393   2.349   6.342  14.652 -0.0813  0.2011 -0.4843
11301TIP3    H155394   2.389   6.339  14.565  0.7662 -0.1031 -0.0855
11301TIP3    H255395   2.341   6.436  14.672  2.2712  0.2762  0.2632
11302TIP3   OH255396   2.693   1.806  17.028 -0.0585  0.0083 -0.0486
11302TIP3    H155397   2.633   1.733  17.037  3.2774 -2.7022  1.5182
11302TIP3    H255398   2.696   1.846  17.115 -1.7529  1.9724 -0.8613
11303TIP3   OH255399   4.130   1.367   3.327  0.0396  0.4274  0.3893
11303TIP3    H155400   4.189   1.291   3.328 -1.3774 -0.7585 -2.1110
11303TIP3    H255401   4.171   1.428   3.266  0.2137  0.8703  0.9505
11304TIP3   OH255402   6.059   6.217  12.943  0.0637  0.1574  1.0797
11304TIP3    H155403   6.048   6.291  12.884  0.7263 -0.2742  0.3939
11304TIP3    H255404   6.110   6.251  13.016 -0.1702  0.5301  1.0680
11305TIP3   OH255405   5.213   2.044   3.917  0.1355 -0.1533 -0.5234
11305TIP3    H155406   5.141   2.042   3.980 -0.6225 -1.0625 -1.3996
11305TIP3    H255407   5.203   2.128   3.872 -0.1710 -0.1200 -0.3976
11306TIP3   OH255408   2.682   4.384  12.139 -0.1579 -0.6645  0.0874
11306TIP3    H155409   2.707   4.341  12.221  0.7070  0.0596  0.2078
11306TIP3    H255410   2.644   4.468  12.166 -0.7082 -0.8089 -0.2143
11307TIP3   OH255411   3.926   4.453   0.959 -0.7934  0.2164  0.3014
11307TIP3    H155412   3.880   4.436   0.877 -0.3954 -0.9086  0.2998
11307TIP3    H255413   3.878   4.525   0.999 -2.5171 -0.8706  0.2529
11308TIP3   OH255414   1.910   4.974  15.568 -0.4119  0.2029 -0.4508
11308TIP3    H155415   1.917   5.022  15.485  0.7045  1.8049  0.5647
11308TIP3    H255416   1.856   4.898  15.546 -1.3613  1.3747 -2.3235
11309TIP3   OH255417   6.537   4.987   2.023 -0.4567 -0.2554  0.3411
11309TIP3    H155418   6.476   4.913   2.019  3.1156 -3.2348 -0.8398
11309TIP3    H255419   6.505   5.048   1.956 -2.7077 -1.2598  0.4620
11310TIP3   OH255420   2.702   4.361   1.808 -0.0873  0.4752  0.1724
11310TIP3    H155421   2.653   4.369   1.726 -0.1035  0.1979  0.1535
11310TIP3    H255422   2.635   4.347   1.875  0.0808 -2.1561 -0.1592
11311TIP3   OH255423   3.023   4.429   4.519  0.3166 -0.1544 -0.4175
11311TIP3    H155424   3.030   4.492   4.591  1.4852  0.7018 -1.2526
11311TIP3    H255425   2.971   4.474   4.453 -1.2763 -1.1719  0.1274
11312TIP3   OH255426   2.594   0.158  11.438 -0.1550  0.6108 -0.0259
11312TIP3    H155427   2.611   0.070  11.404  0.3565 -0.1663  2.1349
11312TIP3    H255428   2.608   0.216  11.364  0.0396 -1.0892 -1.3490
11313TIP3   OH255429   4.899   5.413  15.838  0.1436 -0.5841 -0.8504
11313TIP3    H155430   4.855   5.469  15.773 -0.0829  2.3924  1.7202
11313TIP3    H255431   4.976   5.380  15.793  0.9808  2.8828 -2.1665
11314TIP3   OH255432   6.680   3.126   5.525 -0.5436 -0.3419  0.1956
11314TIP3    H155433   6.610   3.063   5.544 -0.6040  0.0745  1.3793
11314TIP3    H255434   6.636   3.210   5.519 -0.1158 -0.0163  1.3390
11315TIP3   OH255435   4.820   3.119   4.373  0.4733  0.2553 -0.4031
11315TIP3    H155436   4.819   3.209   4.403 -2.6380  0.3290 -0.5081
11315TIP3    H255437   4.758   3.074   4.431  0.8764 -1.4773 -1.2806
11316TIP3   OH255438   0.385   5.945  15.232 -0.0918 -0.7907 -0.1132
11316TIP3    H155439   0.453   6.011  15.223  0.3961 -1.3776 -0.8027
11316TIP3    H255440   0.308   5.983  15.191  0.5873 -1.2225 -1.8018
11317TIP3   OH255441   0.750   5.015  14.441  0.6752 -0.1271  0.3194
11317TIP3    H155442   0.699   5.000  14.361 -1.2616  0.0694  1.4927
11317TIP3    H255443   0.792   4.930  14.459 -1.4353 -1.1006  0.8273
11318TIP3   OH255444   2.830   6.253  13.098  0.3481 -0.1584  0.2529
11318TIP3    H155445   2.758   6.198  13.128  0.5914 -0.1474  0.8519
11318TIP3    H255446   2.787   6.333  13.067  0.0616 -0.3656  0.1041
11319TIP3   OH255447   6.303   2.917  12.444  0.0442  0.7691 -0.0296
11319TIP3    H155448   6.219   2.924  12.398 -0.9693  0.8763  1.7902
11319TIP3    H255449   6.326   2.824  12.439 -1.4448  0.2825  1.5837
11320TIP3   OH255450   4.835   6.466   3.739 -0.0292 -0.2800  0.1702
11320TIP3    H155451   4.924   6.447   3.711 -0.4128 -1.0907 -0.5255
11320TIP3    H255452   4.845   6.532   3.808  1.0054  0.8326 -1.0113
11321TIP3   OH255453   0.370   3.278   5.189  0.2493  0.0588 -0.6147
11321TIP3    H155454   0.326   3.307   5.109  0.3344  3.4971  0.4744
11321TIP3    H255455   0.440   3.342   5.203  0.9266 -1.0914  1.6219
11322TIP3   OH255456   3.972   2.571   4.362 -0.7017 -0.2583  0.2187
11322TIP3    H155457   3.936   2.538   4.444  1.4394  0.4993  1.5048
11322TIP3    H255458   3.905   2.631   4.329 -2.3183 -1.8454  0.5200
11323TIP3   OH255459   4.148   2.704  17.108  0.1398 -0.3055  0.2865
11323TIP3    H155460   4.240   2.700  17.131  0.4806  0.0603 -0.9856
11323TIP3    H255461   4.118   2.788  17.143 -0.5713 -1.8988  3.7055
11324TIP3   OH255462   1.240   2.857   5.626  0.4122  0.4594 -0.1377
11324TIP3    H155463   1.172   2.924   5.638  1.3178  1.2461  0.6686
11324TIP3    H255464   1.191   2.777   5.608 -0.6710  1.4794 -1.8806
11325TIP3   OH255465   1.376   3.470   6.122  0.4665  0.5063 -0.3838
11325TIP3    H155466   1.381   3.500   6.212  0.4399 -0.5798 -0.0148
11325TIP3    H255467   1.452   3.509   6.079  1.3028 -0.1650  0.4660
11326TIP3   OH255468   4.338   4.569   5.141  0.4607 -0.0414  0.3828
11326TIP3    H155469   4.388   4.570   5.059 -0.8209 -0.2314 -0.4155
11326TIP3    H255470   4.283   4.491   5.133 -2.3485  1.9578 -0.2170
11327TIP3   OH255471   2.159   6.313   2.327  0.2060  0.2586  0.3740
11327TIP3    H155472   2.228   6.345   2.269  1.6815 -1.1754  1.3083
11327TIP3    H255473   2.103   6.259   2.270 -0.1657  1.4091 -0.3792
11328TIP3   OH255474   2.330   6.765  11.398 -0.1166  0.0693  0.3157
11328TIP3    H155475   2.363   6.807  11.319  1.1596  0.8867  1.2687
11328TIP3    H255476   2.236   6.785  11.398 -0.0770  0.2741 -0.8542
11329TIP3   OH255477   5.787   0.619   0.662 -0.2523 -0.2565 -0.2920
11329TIP3    H155478   5.772   0.544   0.720  1.2290  0.5121  1.0916
11329TIP3    H255479   5.768   0.696   0.715  1.5582  0.4706 -0.6734
11330TIP3   OH255480   0.970   1.121  11.922 -0.2792  0.0429 -0.5062
11330TIP3    H155481   0.924   1.123  11.838  0.0895  0.1102 -0.7080
11330TIP3    H255482   0.939   1.200  11.968 -0.4454  0.0313 -0.6006
11331TIP3   OH255483   1.149   1.021  12.219  0.3984 -0.2306 -0.8378
11331TIP3    H155484   1.190   1.030  12.133 -0.1241  2.6357 -0.8445
11331TIP3    H255485   1.169   1.104  12.264 -2.1109 -0.3185  0.5514
11332TIP3   OH255486   4.434   3.381   2.756 -0.1797 -0.0837  0.3517
11332TIP3    H155487   4.363   3.379   2.691 -0.0412  0.0500  0.1966
11332TIP3    H255488   4.421   3.464   2.803 -0.5413 -0.3821  0.7885
11333TIP3   OH255489   0.153   2.498   2.378 -0.9462  0.0917  0.7861
11333TIP3    H155490   0.232   2.498   2.432  0.1116  0.5266 -0.7012
11333TIP3    H255491   0.127   2.590   2.373  0.5085  0.4219 -1.5660
11334TIP3   OH255492   5.121   6.518   0.194 -0.0799  0.0230  0.4224
11334TIP3    H155493   5.027   6.501   0.187  0.0735 -0.4893 -0.4073
11334TIP3    H255494   5.155   6.448   0.250 -0.1455  0.0699  0.5219
11335TIP3   OH255495   0.401   2.606  11.820  0.1763 -0.1667  0.2422
11335TIP3    H155496   0.352   2.673  11.772  1.3275  0.2924 -0.3112
11335TIP3    H255497   0.482   2.595  11.770  1.0847 -0.1883  1.6902
11336TIP3   OH255498   1.709   6.526  11.538  0.0765  0.1377 -0.2423
11336TIP3    H155499   1.638   6.467  11.512  1.5222 -2.0237  0.5310
11336TIP3    H255500   1.699   6.536  11.633  1.5156 -1.2374  0.0869
11337TIP3   OH255501   5.332   4.770  14.300  0.2023  0.1709 -0.3523
11337TIP3    H155502   5.403   4.812  14.253  2.2707 -2.1886  0.5185
11337TIP3    H255503   5.340   4.677  14.277 -1.3737 -0.3999  1.2968
11338TIP3   OH255504   2.455   3.655  15.811 -0.2996 -0.3355 -0.1871
11338TIP3    H155505   2.540   3.698  15.820  0.4313 -2.0458  1.5458
11338TIP3    H255506   2.476   3.567  15.779 -1.4893 -0.4637 -0.6386
11339TIP3   OH255507   4.219   1.029   3.141  0.4908 -1.1043 -0.0028
11339TIP3    H155508   4.141   0.998   3.187  1.5184 -2.3819  0.8797
11339TIP3    H255509   4.254   0.952   3.097  0.5696 -0.2798 -1.4385
11340TIP3   OH255510   4.277   2.650  11.950  0.4637  0.7615 -0.0720
11340TIP3    H155511   4.196   2.700  11.961  0.7565  0.8686  1.7255
11340TIP3    H255512   4.346   2.709  11.982  0.9113 -0.4378  1.2304
11341TIP3   OH255513   3.613   2.690  16.791  0.1478 -0.0021  0.3113
11341TIP3    H155514   3.576   2.683  16.702  1.9981 -0.2350 -0.4508
11341TIP3    H255515   3.536   2.705  16.847 -1.2283 -1.5270 -1.1103
11342TIP3   OH255516   3.119   5.833  13.600  0.0707  0.1320 -0.1441
11342TIP3    H155517   3.089   5.857  13.512  0.7904  0.7855 -0.2138
11342TIP3    H255518   3.214   5.839  13.595  0.0566  1.5173  1.0597
11343TIP3   OH255519   0.555   2.712   2.237 -0.7536  0.1235 -0.5070
11343TIP3    H155520   0.482   2.769   2.258 -0.3042  0.1262  1.1031
11343TIP3    H255521   0.603   2.703   2.319  0.5898 -0.5402 -1.3469
11344TIP3   OH255522   0.886   2.537  11.346 -0.0939 -0.2165 -0.0074
11344TIP3    H155523   0.790   2.532  11.349 -0.1386  0.4649 -0.1562
11344TIP3    H255524   0.904   2.596  11.273  0.4471 -0.4844 -0.0911
11345TIP3   OH255525   2.789   2.599   1.866 -0.3839  0.0709  0.1417
11345TIP3    H155526   2.837   2.530   1.819 -1.9618 -0.7377 -0.3035
11345TIP3    H255527   2.806   2.580   1.958 -0.4289 -0.6615  0.0098
11346TIP3   OH255528   2.917   5.854  15.154 -0.1097 -0.3518 -0.4014
11346TIP3    H155529   2.881   5.836  15.241 -1.9041  0.5587 -0.9328
11346TIP3    H255530   2.840   5.862  15.098  0.9797  0.7456 -1.7515
11347TIP3   OH255531   1.135   1.820  13.339  0.0193 -0.4977  0.8278
11347TIP3    H155532   1.046   1.813  13.374 -1.1302  2.3605 -1.3997
11347TIP3    H255533   1.183   1.869  13.405 -0.0433 -1.9999  2.0131
11348TIP3   OH255534   1.420   5.495  10.969  0.4091  0.2115 -0.3675
11348TIP3    H155535   1.337   5.448  10.960  0.3773  0.4235 -1.1728
11348TIP3    H255536   1.396   5.584  10.994  0.3931  0.2619 -0.5615
11349TIP3   OH255537   3.496   1.806   6.015 -0.0886 -0.1099 -0.6065
11349TIP3    H155538   3.433   1.785   5.946 -0.5662 -0.6077 -0.0318
11349TIP3    H255539   3.443   1.809   6.095  0.4548  0.4746 -0.2628
11350TIP3   OH255540   3.885   6.220  16.634  0.5401 -0.1237  0.3465
11350TIP3    H155541   3.910   6.171  16.557  0.2340 -0.4741  0.4700
11350TIP3    H255542   3.917   6.168  16.708  0.1787 -0.1641  0.4780
11351TIP3   OH255543   4.649   3.534   4.386 -0.2862 -0.6875 -0.1719
11351TIP3    H155544   4.638   3.618   4.430  0.1322 -1.0935  0.7314
11351TIP3    H255545   4.618   3.549   4.297 -1.2530  0.1184  0.2882
11352TIP3   OH255546   1.506   5.333  15.182 -0.1581 -0.1602 -0.1889
11352TIP3    H155547   1.427   5.362  15.137 -1.6092 -0.7902  1.8409
11352TIP3    H255548   1.508   5.238  15.167  0.9127  0.0329 -1.2854
11353TIP3   OH255549   0.051   4.146  14.975 -0.1173  0.5256  0.0520
11353TIP3    H155550   0.091   4.065  14.943 -4.6926 -1.2516 -1.5550
11353TIP3    H255551   0.003   4.120  15.054  0.0685  2.1287  0.7219
11354TIP3   OH255552   4.313   2.215   3.148  0.2317  0.0307  0.2955
11354TIP3    H155553   4.276   2.283   3.203  0.5689  0.2720  0.2299
11354TIP3    H255554   4.358   2.156   3.209 -0.9549 -0.7159  0.4543
11355TIP3   OH255555   5.579   0.323  12.912  0.5058 -0.2068 -0.0134
11355TIP3    H155556   5.575   0.414  12.883  0.7054  0.1561  1.0659
11355TIP3    H255557   5.622   0.277  12.841  0.2767  0.5185 -0.6305
11356TIP3   OH255558   1.738   6.119   1.672 -0.2143 -0.0431 -0.2819
11356TIP3    H155559   1.689   6.071   1.605  2.4286 -1.8200 -1.0156
11356TIP3    H255560   1.774   6.194   1.625  1.2549 -1.0411 -0.8001
11357TIP3   OH255561   6.339   5.537  10.894  0.4037 -0.1245  0.3359
11357TIP3    H155562   6.257   5.496  10.864 -0.0654  1.1996 -0.2309
11357TIP3    H255563   6.391   5.547  10.815  1.4784 -1.7284  0.8169
11358TIP3   OH255564   1.121   0.503   2.649  0.3904 -0.5323  0.0839
11358TIP3    H155565   1.191   0.442   2.672 -0.9096 -2.0679  0.0320
11358TIP3    H255566   1.040   0.455   2.665 -0.6801  1.2497  0.2313
11359TIP3   OH255567   0.601   6.252   0.064 -0.4125  0.2451 -0.3848
11359TIP3    H155568   0.550   6.323   0.103  0.1697  2.0813 -2.8044
11359TIP3    H255569   0.552   6.229  -0.015  1.1191  0.2803 -1.3712
11360TIP3   OH255570   3.900   4.214   1.136  0.3065  0.2943  0.5423
11360TIP3    H155571   3.831   4.267   1.177  2.1131  2.4521  0.8466
11360TIP3    H255572   3.947   4.275   1.081  0.1502 -1.8321 -2.0163
11361TIP3   OH255573   2.402   5.990   2.928 -0.3559  0.3107 -0.2148
11361TIP3    H155574   2.358   6.074   2.911 -1.6805 -0.1089  1.0779
11361TIP3    H255575   2.457   5.976   2.851  0.3993  2.6999 -0.1650
11362TIP3   OH255576   5.340   5.629   0.716 -0.1054  0.3082  0.7772
11362TIP3    H155577   5.411   5.594   0.663  0.8186 -0.8881  2.7396
11362TIP3    H255578   5.345   5.724   0.704  0.6702  0.1127 -0.4969
11363TIP3   OH255579   2.373   5.672   6.726 -0.1597  0.2920 -0.3813
11363TIP3    H155580   2.424   5.597   6.755 -0.9921 -0.1288  0.0111
11363TIP3    H255581   2.358   5.656   6.633 -1.0414 -0.4535 -0.1197
11364TIP3   OH255582   1.933   4.970  16.560 -0.1561 -0.2872 -0.0712
11364TIP3    H155583   1.931   4.897  16.498  0.3523 -1.1021  0.8554
11364TIP3    H255584   2.016   5.014  16.543  0.6243 -1.3331  0.9413
11365TIP3   OH255585   2.022   0.023   5.766  0.2063  0.1141 -0.0711
11365TIP3    H155586   1.969   0.079   5.710  2.2381  1.1257 -1.0392
11365TIP3    H255587   1.977   0.023   5.850 -0.6199  2.0271 -0.4890
11366TIP3   OH255588   2.635   2.217  13.341 -0.1469 -0.3851 -0.0028
11366TIP3    H155589   2.593   2.187  13.422  0.5420  0.3635  0.6293
11366TIP3    H255590   2.696   2.146  13.318  1.9778  0.7967  1.8619
11367TIP3   OH255591   0.797   5.378   3.852  0.9072 -0.0145 -0.2209
11367TIP3    H155592   0.820   5.463   3.890 -1.1727  0.3957  0.1856
11367TIP3    H255593   0.783   5.396   3.759  0.2808  0.1348 -0.1004
11368TIP3   OH255594   3.082   4.039   3.823  0.3427  0.3440 -0.0917
11368TIP3    H155595   3.100   4.083   3.906  0.7204  0.0643 -0.0254
11368TIP3    H255596   3.087   4.108   3.757  1.1635  0.3595 -0.0165
11369TIP3   OH255597   2.777   4.701  11.250  0.4822 -0.5371  0.4360
11369TIP3    H155598   2.819   4.708  11.165  0.6616  0.4107  0.5956
11369TIP3    H255599   2.848   4.685  11.312  0.3689 -1.0781  0.4276
11370TIP3   OH255600   1.093   5.156  13.597 -0.2107 -0.4269 -0.8322
11370TIP3    H155601   1.174   5.112  13.575 -0.2696 -1.5016  1.0097
11370TIP3    H255602   1.093   5.160  13.693 -1.0034  2.0747 -0.8883
11371TIP3   OH255603   6.272   1.773  12.302  0.1894  0.5763  0.3890
11371TIP3    H155604   6.238   1.846  12.252 -1.5638 -0.1218  0.5429
11371TIP3    H255605   6.358   1.802  12.332 -0.0333  2.1358 -0.4678
11372TIP3   OH255606   0.734   3.195  16.174 -0.2560  0.3118  0.0168
11372TIP3    H155607   0.702   3.112  16.211  0.0762 -0.8809 -2.2674
11372TIP3    H255608   0.703   3.262  16.235  0.1029 -1.5473  2.3419
11373TIP3   OH255609   5.060   0.095  14.801  0.1028  0.3225 -0.2029
11373TIP3    H155610   5.063   0.022  14.740  3.5220  1.1557 -1.1538
11373TIP3    H255611   4.989   0.151  14.769  0.8995  0.0244 -2.5789
11374TIP3   OH255612   5.988   1.163   4.894  0.3009  0.3890  0.0064
11374TIP3    H155613   5.907   1.154   4.845  0.5297 -1.7333 -0.0261
11374TIP3    H255614   5.963   1.147   4.985  0.4922  0.7812  0.1282
11375TIP3   OH255615   1.347   0.462   3.614  0.5597  0.0314  0.6691
11375TIP3    H155616   1.396   0.523   3.560 -2.6477  2.7709  0.6926
11375TIP3    H255617   1.309   0.516   3.683 -2.4628 -1.9387  0.6506
11376TIP3   OH255618   3.482   4.430  16.351  0.1631  0.1646 -0.1311
11376TIP3    H155619   3.400   4.478  16.358  0.0099  0.2604 -2.3483
11376TIP3    H255620   3.519   4.458  16.268  0.6883 -2.6153 -0.8709
11377TIP3   OH255621   0.949   1.649  13.943  0.2289  0.2503  0.2951
11377TIP3    H155622   0.949   1.710  13.869  0.9158  1.1531  1.0433
11377TIP3    H255623   0.949   1.704  14.021 -0.4105 -0.7063  0.9802
11378TIP3   OH255624   4.209   6.608   4.124 -0.0021  0.2242 -0.4379
11378TIP3    H155625   4.249   6.688   4.091  1.6746 -0.2983  0.2370
11378TIP3    H255626   4.182   6.560   4.045  2.1080 -0.0825 -1.0111
11379TIP3   OH255627   3.398   0.086   5.523  0.4817  0.5129  0.1989
11379TIP3    H155628   3.359   0.058   5.440 -0.3001 -1.0534  1.0620
11379TIP3    H255629   3.334   0.146   5.560  0.8675  1.2742 -0.3662
11380TIP3   OH255630   0.346   6.710   1.153  0.1327 -0.1312 -0.1549
11380TIP3    H155631   0.342   6.654   1.075  0.0089  0.6098 -0.6895
11380TIP3    H255632   0.262   6.697   1.197  0.0557 -0.2775 -0.3454
11381TIP3   OH255633   1.165   4.519  16.021  0.3740  0.2780  0.1859
11381TIP3    H155634   1.086   4.487  16.065 -1.0139  1.1873 -1.6049
11381TIP3    H255635   1.133   4.569  15.947  2.6112  2.6412  0.7516
11382TIP3   OH255636   1.448   5.846   4.838 -0.0788 -0.4827 -0.1694
11382TIP3    H155637   1.385   5.801   4.895 -0.0512  0.3619  0.5222
11382TIP3    H255638   1.496   5.904   4.896  1.9411 -1.7433 -0.5386
11383TIP3   OH255639   2.920   2.728  12.228  0.0946 -0.3912  0.3176
11383TIP3    H155640   2.909   2.652  12.286  0.5168 -0.2159  0.6303
11383TIP3    H255641   3.009   2.758  12.245  0.7960 -1.3287 -1.6021
11384TIP3   OH255642   1.654   1.047  14.810  0.3133 -0.1720  0.1044
11384TIP3    H155643   1.598   1.119  14.782  0.3360  0.4556  1.6596
11384TIP3    H255644   1.595   0.972  14.819  0.2198 -0.2573 -1.0852
11385TIP3   OH255645   4.230   4.095   5.308 -0.1498  0.6443 -0.2154
11385TIP3    H155646   4.268   4.159   5.368  0.6588  1.3104 -1.4053
11385TIP3    H255647   4.257   4.010   5.343  0.5058  1.0341  0.2317
11386TIP3   OH255648   2.488   0.498  16.268  0.2371 -0.2688 -0.2778
11386TIP3    H155649   2.556   0.441  16.232 -1.2253 -3.1814  1.4327
11386TIP3    H255650   2.535   0.556  16.328  1.4842 -0.8318 -0.6780
11387TIP3   OH255651   0.754   2.355   2.932 -0.3355  0.1073 -0.2645
11387TIP3    H155652   0.674   2.354   2.881  0.1057 -3.1751 -1.0371
11387TIP3    H255653   0.734   2.409   3.008 -2.4766  1.2964 -1.6315
11388TIP3   OH255654   5.625   2.244   3.062 -0.0394 -0.4683 -0.5237
11388TIP3    H155655   5.686   2.175   3.089  0.0308 -0.5015 -0.7610
11388TIP3    H255656   5.621   2.303   3.137  0.5432 -0.2941 -0.6212
11389TIP3   OH255657   5.969   4.978   1.489 -0.0553  0.2281 -0.5785
11389TIP3    H155658   5.897   4.930   1.529  1.0439 -0.5247  0.5425
11389TIP3    H255659   6.030   4.909   1.460  0.9268  0.9058 -0.1332
11390TIP3   OH255660   2.002   0.553  16.165 -0.5188  0.6916 -0.5192
11390TIP3    H155661   2.065   0.558  16.092 -1.2778  0.1582 -1.2184
11390TIP3    H255662   1.940   0.485  16.138 -0.8628  0.5672  0.5898
11391TIP3   OH255663   3.516   0.149  11.620  0.2894 -0.4928 -0.4274
11391TIP3    H155664   3.567   0.130  11.699 -1.6350 -1.7572  0.5575
11391TIP3    H255665   3.426   0.130  11.645 -0.4115 -0.3922 -2.7803
11392TIP3   OH255666   5.665   0.698  14.044 -0.1528 -0.2588 -0.0566
11392TIP3    H155667   5.711   0.653  14.115  0.9946 -0.6105 -0.9876
11392TIP3    H255668   5.572   0.681  14.060  0.1426 -0.9959  0.9086
11393TIP3   OH255669   5.963   4.103  12.580  0.3802  0.0487  0.1673
11393TIP3    H155670   5.888   4.162  12.567 -0.8957 -2.0112 -2.2176
11393TIP3    H255671   6.003   4.096  12.493  1.5313 -1.2753  0.7869
11394TIP3   OH255672   1.154   3.672   0.877 -0.1883  0.1775 -0.7009
11394TIP3    H155673   1.243   3.637   0.881 -0.1353  0.5076  1.4720
11394TIP3    H255674   1.103   3.602   0.837  0.5857 -1.0096  0.3370
11395TIP3   OH255675   4.196   0.793   6.083  0.3545  0.1014  0.1648
11395TIP3    H155676   4.122   0.754   6.129 -0.5058 -0.3898 -1.5849
11395TIP3    H255677   4.206   0.880   6.121 -0.2101 -0.3681  1.3873
11396TIP3   OH255678   2.608   5.358  12.163 -0.3871  0.3678 -0.2664
11396TIP3    H155679   2.595   5.375  12.256 -2.1164  0.9060 -0.5998
11396TIP3    H255680   2.575   5.269  12.150  0.8305 -0.1119 -0.1799
11397TIP3   OH255681   5.695   3.222   1.993  0.0203 -0.2770 -0.5652
11397TIP3    H155682   5.708   3.142   2.044  2.0490 -0.3322 -1.1271
11397TIP3    H255683   5.784   3.253   1.974 -0.7297  1.7575 -0.9122
11398TIP3   OH255684   4.589   4.608   4.947 -0.2946  0.0668  0.3981
11398TIP3    H155685   4.557   4.543   4.885 -0.4693  0.3953  0.1431
11398TIP3    H255686   4.681   4.585   4.961  0.0168  0.5773 -0.7331
11399TIP3   OH255687   2.544   1.866   6.256  0.8320  0.6881 -0.2033
11399TIP3    H155688   2.637   1.869   6.233  1.4155  1.0568  2.0802
11399TIP3    H255689   2.518   1.958   6.262  0.7896  0.6050  0.9273
11400TIP3   OH255690   3.827   4.621   2.642 -0.6930 -0.3711  0.3005
11400TIP3    H155691   3.878   4.694   2.607 -1.6677  1.0266  1.7432
11400TIP3    H255692   3.890   4.572   2.696 -0.3203  0.0788  0.2743
11401TIP3   OH255693   5.197   1.571  13.557 -0.0805 -0.2556  0.2187
11401TIP3    H155694   5.200   1.667  13.560 -0.6224 -0.1543 -1.8298
11401TIP3    H255695   5.132   1.551  13.490  1.0376 -2.0460 -0.3639
11402TIP3   OH255696   6.346   0.137   5.420  0.1670 -0.4318  0.5798
11402TIP3    H155697   6.413   0.087   5.374 -0.8233 -0.9911 -0.2679
11402TIP3    H255698   6.269   0.081   5.419 -0.8074  0.8689  0.0827
11403TIP3   OH255699   3.481   5.691  12.099  0.0574 -0.0682 -0.1839
11403TIP3    H155700   3.558   5.746  12.110 -0.0220 -0.0042  0.0560
11403TIP3    H255701   3.476   5.674  12.004 -1.0277  1.9228 -0.4962
11404TIP3   OH255702   0.639   5.267  11.951  0.3495 -0.1948  0.7688
11404TIP3    H155703   0.639   5.296  11.859  1.1824 -1.8600  0.2239
11404TIP3    H255704   0.548   5.247  11.969  0.1946  0.0249  0.2618
11405TIP3   OH255705   2.896   6.777  14.638 -0.1386 -0.3220  0.3097
11405TIP3    H155706   2.929   6.845  14.697  3.7524 -1.1271 -0.7654
11405TIP3    H255707   2.891   6.698  14.691 -0.6602 -0.1359  0.5437
11406TIP3   OH255708   1.339   6.694   5.416  0.3139  0.1193  0.0080
11406TIP3    H155709   1.264   6.753   5.423 -0.1225 -0.4884  0.5003
11406TIP3    H255710   1.410   6.741   5.458  0.2906  0.8198 -0.7130
11407TIP3   OH255711   2.303   0.893  13.527  0.1066  0.4061 -0.2734
11407TIP3    H155712   2.355   0.973  13.533  1.2581 -0.3897  0.5764
11407TIP3    H255713   2.367   0.822  13.529 -1.1088 -0.7434  3.8011
11408TIP3   OH255714   4.259   1.118   2.541 -0.6384  0.0982 -0.5306
11408TIP3    H155715   4.261   1.067   2.460 -1.2909 -0.7611 -0.0218
11408TIP3    H255716   4.295   1.059   2.607  1.0302  1.2191 -0.4095
11409TIP3   OH255717   2.767   4.608   1.709  0.0691  0.0087  0.4440
11409TIP3    H155718   2.679   4.645   1.706 -0.3425 -0.9219  0.6635
11409TIP3    H255719   2.758   4.531   1.765  0.2886 -1.9304 -2.0658
11410TIP3   OH255720   6.780   6.252  16.450  0.1067 -0.4869 -1.0798
11410TIP3    H155721   6.724   6.189  16.406  1.5970 -0.9158 -2.4286
11410TIP3    H255722   6.860   6.203  16.471 -0.2304 -0.0484  1.3373
11411TIP3   OH255723   3.955   3.122   2.046 -0.5178 -0.3384 -1.0541
11411TIP3    H155724   4.003   3.204   2.037  1.5317 -1.4400 -0.6222
11411TIP3    H255725   3.978   3.072   1.967 -1.4893 -0.6105 -1.1647
11412TIP3   OH255726   1.781   1.076   1.253 -0.2757 -0.0849  0.3150
11412TIP3    H155727   1.770   1.065   1.158 -0.9807 -0.0166  0.3820
11412TIP3    H255728   1.691   1.080   1.287 -0.0373 -1.5422  1.1530
11413TIP3   OH255729   5.632   1.531  17.080 -0.0881 -0.5081  0.0641
11413TIP3    H155730   5.644   1.620  17.113 -2.8341 -0.0825  0.0677
11413TIP3    H255731   5.587   1.484  17.150  2.9901 -2.4650  0.7878
11414TIP3   OH255732   4.576   3.178   1.578 -0.0526  0.0661  0.3042
11414TIP3    H155733   4.528   3.109   1.533 -0.5386  0.7463 -0.2372
11414TIP3    H255734   4.630   3.218   1.510  1.6850 -1.0164  1.0103
11415TIP3   OH255735   1.266   3.156   3.156 -0.6041 -0.2426 -0.2361
11415TIP3    H155736   1.294   3.248   3.155 -2.1276  0.2823  1.6207
11415TIP3    H255737   1.331   3.112   3.210 -1.0059  0.1405  0.5619
11416TIP3   OH255738   2.523   5.470   1.350 -0.1264 -0.1181 -0.9111
11416TIP3    H155739   2.597   5.420   1.385  0.6413  0.4019 -1.7760
11416TIP3    H255740   2.480   5.507   1.427  0.4935 -0.4599 -0.4025
11417TIP3   OH255741   0.832   4.986  15.081  0.3564  0.1270 -0.4503
11417TIP3    H155742   0.870   5.043  15.014  1.5439 -0.7794 -0.5538
11417TIP3    H255743   0.869   4.899  15.064  0.1647 -0.2561  0.9729
11418TIP3   OH255744   6.165   6.474   1.875 -0.3122 -0.5666  0.2878
11418TIP3    H155745   6.098   6.410   1.896  0.6064 -1.5560  0.2245
11418TIP3    H255746   6.248   6.428   1.888  0.3900  0.9690  1.4494
11419TIP3   OH255747   0.486   2.544  12.070 -0.2715 -0.3126  0.2324
11419TIP3    H155748   0.571   2.587  12.068  0.0325 -0.8021  1.6685
11419TIP3    H255749   0.433   2.592  12.007  0.6489  0.8861  0.3527
11420TIP3   OH255750   2.591   4.350   1.253  0.0950  0.4496 -0.5456
11420TIP3    H155751   2.550   4.337   1.168 -0.5723  0.3859 -0.2202
11420TIP3    H255752   2.685   4.354   1.235 -0.0693  0.8203 -1.3294
11421TIP3   OH255753   1.779   3.408   1.422  0.4391  0.0166 -0.0107
11421TIP3    H155754   1.724   3.486   1.425  1.5650  0.8419 -0.4435
11421TIP3    H255755   1.861   3.438   1.382  1.1567 -1.2120  0.5104
11422TIP3   OH255756   1.746   0.755  16.941  0.2679 -0.9045  0.2437
11422TIP3    H155757   1.711   0.697  17.009  0.1542 -0.1901  0.7994
11422TIP3    H255758   1.789   0.696  16.879  1.0254 -1.5055  1.3253
11423TIP3   OH255759   4.197   4.980   4.671  0.0525  0.2239  0.1506
11423TIP3    H155760   4.143   4.950   4.744  1.4697 -0.0599  1.1001
11423TIP3    H255761   4.285   4.989   4.708  0.7504  0.2701 -1.4718
11424TIP3   OH255762   3.100   6.155   0.006  0.1038 -0.2870 -0.8418
11424TIP3    H155763   3.164   6.192  -0.055  1.0811 -0.1249  0.2722
11424TIP3    H255764   3.143   6.080   0.044 -0.0270  0.3655  0.6038
11425TIP3   OH255765   5.270   5.845  12.819  0.3013 -0.6686  0.0012
11425TIP3    H155766   5.339   5.857  12.754 -0.1904 -0.7805 -0.5470
11425TIP3    H255767   5.222   5.928  12.819  0.1936 -0.7296  0.0887
11426TIP3   OH255768   4.729   3.385  13.191 -0.4368  0.4849  0.1210
11426TIP3    H155769   4.817   3.423  13.204 -0.7412  1.3355 -0.2989
11426TIP3    H255770   4.706   3.408  13.102 -0.3132 -1.3726 -0.4056
11427TIP3   OH255771   1.875   0.699   5.628  0.3511 -0.3336  0.1091
11427TIP3    H155772   1.938   0.677   5.697 -0.1970 -0.9857  0.4033
11427TIP3    H255773   1.832   0.778   5.659  0.0203 -0.6940  0.5736
11428TIP3   OH255774   0.219   6.673   2.112 -0.3857 -1.0313 -0.0032
11428TIP3    H155775   0.231   6.708   2.200  1.4961 -0.4459 -0.4688
11428TIP3    H255776   0.259   6.586   2.115  0.3111 -0.7292 -0.4637
11429TIP3   OH255777   5.548   6.505   4.112 -0.0495 -0.0373 -0.4323
11429TIP3    H155778   5.632   6.485   4.152  0.5136  0.8458 -1.1550
11429TIP3    H255779   5.492   6.532   4.186 -0.3927 -2.7673  0.3446
11430TIP3   OH255780   0.254   6.236   1.916  0.1590  0.2036 -0.6862
11430TIP3    H155781   0.197   6.166   1.949 -1.0410  1.0622 -0.9015
11430TIP3    H255782   0.235   6.312   1.971  1.5751  0.3358 -0.3486
11431TIP3   OH255783   1.151   3.317  17.111  0.6241 -0.2035  0.8569
11431TIP3    H155784   1.187   3.311  17.022  0.0303  0.6781  0.5473
11431TIP3    H255785   1.086   3.387  17.105  2.2023  1.4450  2.5369
11432TIP3   OH255786   4.658   0.796   0.145 -0.2444  0.2253 -0.0445
11432TIP3    H155787   4.746   0.771   0.173 -1.1993 -2.1958  1.0037
11432TIP3    H255788   4.639   0.736   0.073 -0.8461  1.0697 -0.5864
11433TIP3   OH255789   3.038   1.772  16.248 -0.5103  0.1414  0.6534
11433TIP3    H155790   3.015   1.795  16.158  1.5466 -0.4127 -0.0250
11433TIP3    H255791   2.969   1.712  16.276 -1.0569  0.1682 -0.6033
11434TIP3   OH255792   0.640   1.723  13.750  0.2311  0.5178  0.3607
11434TIP3    H155793   0.642   1.819  13.749  2.9139  0.4790 -0.9634
11434TIP3    H255794   0.569   1.700  13.689 -0.6355  1.6491  0.9337
11435TIP3   OH255795   0.863   4.093   5.080  0.1209 -0.6422 -0.2851
11435TIP3    H155796   0.787   4.138   5.116  1.8124  0.2444  2.2882
11435TIP3    H255797   0.889   4.146   5.004  0.3481  1.1195  0.9978
11436TIP3   OH255798   1.160   4.447   5.122  0.0826  0.2547  0.3102
11436TIP3    H155799   1.224   4.397   5.071 -0.9188 -2.8278  1.9636
11436TIP3    H255800   1.198   4.452   5.210 -0.3452  1.5030  0.4372
11437TIP3   OH255801   5.175   1.001  13.346 -0.4677  0.2411 -0.1580
11437TIP3    H155802   5.182   0.981  13.253 -0.6755  0.8277 -0.2987
11437TIP3    H255803   5.153   0.917  13.387  1.4488 -0.4121 -0.4056
11438TIP3   OH255804   4.510   0.059   0.013 -0.1613  0.3743  0.1780
11438TIP3    H155805   4.537  -0.019   0.061 -0.4182 -0.0958 -0.4242
11438TIP3    H255806   4.591   0.107  -0.003 -0.1179  0.7021  1.3622
11439TIP3   OH255807   0.866   6.473   1.546  0.0856 -0.3104  0.0754
11439TIP3    H155808   0.814   6.438   1.473 -0.1635  1.4200 -0.6089
11439TIP3    H255809   0.951   6.429   1.538  0.2777  0.3225 -1.6645
11440TIP3   OH255810   2.696   1.461  14.124  0.2884 -0.1991  0.2326
11440TIP3    H155811   2.714   1.387  14.181  2.4199  0.6054  0.6305
11440TIP3    H255812   2.673   1.532  14.183 -0.6662 -0.2386 -0.0882
11441TIP3   OH255813   2.196   0.351   2.319  0.3635 -0.1564 -0.1003
11441TIP3    H155814   2.288   0.372   2.335  0.3163  0.2455 -0.3477
11441TIP3    H255815   2.178   0.387   2.232 -0.1464  0.1624  0.1317
11442TIP3   OH255816   5.203   2.823  10.467 -0.0755  0.1475  0.4000
11442TIP3    H155817   5.268   2.892  10.479  0.9177 -0.5397 -0.7905
11442TIP3    H255818   5.250   2.754  10.419 -1.7634 -0.2436 -0.7568
11443TIP3   OH255819   4.510   6.753   1.737 -0.2876  0.2699 -0.0877
11443TIP3    H155820   4.483   6.674   1.783  3.1556  0.7725  2.9708
11443TIP3    H255821   4.583   6.726   1.682 -0.6562  0.8626 -0.8848
11444TIP3   OH255822   0.369   2.878   2.333  0.4544  0.7111 -0.2011
11444TIP3    H155823   0.279   2.886   2.302  0.8649 -0.2381 -1.6736
11444TIP3    H255824   0.380   2.952   2.393 -1.3023  0.8195  0.0109
11445TIP3   OH255825   0.863   5.061  16.232  0.1088 -0.0571 -0.5056
11445TIP3    H155826   0.912   5.061  16.315 -1.0054  1.4379  0.1854
11445TIP3    H255827   0.927   5.088  16.166 -0.1519  3.8397  0.6867
11446TIP3   OH255828   1.806   3.318  16.956 -0.0176 -0.3998 -0.1179
11446TIP3    H155829   1.854   3.387  17.001  0.2561 -1.7343  1.6983
11446TIP3    H255830   1.749   3.364  16.894 -0.1075  1.4580  1.3170
11447TIP3   OH255831   6.384   6.132  14.634  0.0215  0.0316  0.1890
11447TIP3    H155832   6.311   6.194  14.636 -0.8533 -1.0088  2.9113
11447TIP3    H255833   6.460   6.183  14.661 -0.4201  0.3115  0.9404
11448TIP3   OH255834   1.468   2.238  12.272 -0.0898  0.1721 -0.3448
11448TIP3    H155835   1.506   2.324  12.255  1.0808 -0.1363  0.6880
11448TIP3    H255836   1.440   2.241  12.363  0.0134 -0.5603 -0.2810
11449TIP3   OH255837   0.894   3.403  12.902 -0.2330  0.1936  0.5329
11449TIP3    H155838   0.887   3.308  12.911  1.4169 -0.0148 -0.2219
11449TIP3    H255839   0.983   3.418  12.870 -0.6647  1.9565  0.0856
11450TIP3   OH255840   5.929   0.123  17.078  0.5026  0.1571 -0.3146
11450TIP3    H155841   5.853   0.079  17.042 -0.7006  0.7243  1.4308
11450TIP3    H255842   5.909   0.134  17.171  2.0845  1.6043 -0.0978
11451TIP3   OH255843   3.618   1.347  13.641 -0.1503  0.3738  0.0331
11451TIP3    H155844   3.653   1.418  13.695 -0.9591  0.5900  0.2861
11451TIP3    H255845   3.545   1.313  13.692 -0.8532  0.5015 -0.8733
11452TIP3   OH255846   1.285   3.122   2.311 -0.0178  0.0088  0.2345
11452TIP3    H155847   1.269   3.078   2.227 -0.2717  0.0978  0.2357
11452TIP3    H255848   1.370   3.165   2.300 -0.8051  1.4057 -0.5539
11453TIP3   OH255849   2.997   1.202  13.856  0.5502  0.3321 -0.1955
11453TIP3    H155850   3.074   1.144  13.854  1.1942  1.1636  0.0957
11453TIP3    H255851   2.974   1.207  13.949  0.7200  0.8366 -0.1811
11454TIP3   OH255852   6.765   2.986   5.199 -0.0561 -0.1062 -0.0715
11454TIP3    H155853   6.695   2.981   5.265 -2.2151 -1.1167 -2.3610
11454TIP3    H255854   6.803   2.898   5.198 -0.2850 -0.2008 -0.4478
11455TIP3   OH255855   0.651   2.257  11.661 -0.2946 -0.8223  0.1072
11455TIP3    H155856   0.667   2.288  11.572 -1.6678 -0.9980 -0.2028
11455TIP3    H255857   0.706   2.179  11.670  1.6748  0.5358  0.2360
11456TIP3   OH255858   3.416   6.340   2.480  0.2952 -0.8959  0.3129
11456TIP3    H155859   3.475   6.270   2.510 -0.3493 -2.6534 -2.3547
11456TIP3    H255860   3.329   6.301   2.485  0.0183 -0.6140 -2.0875
11457TIP3   OH255861   4.105   4.603   0.732  0.4718 -0.6606  0.1431
11457TIP3    H155862   4.105   4.561   0.646  0.0603 -0.2916 -0.0346
11457TIP3    H255863   4.031   4.663   0.730  1.4494  0.5611  0.1648
11458TIP3   OH255864   1.678   0.179   0.763  0.6848  0.2562 -0.1627
11458TIP3    H155865   1.644   0.101   0.719  0.0834  1.1870 -1.3579
11458TIP3    H255866   1.629   0.183   0.845 -0.0824  0.0095 -0.6046
11459TIP3   OH255867   2.850   1.153   2.605  0.4540  0.2196 -0.2692
11459TIP3    H155868   2.799   1.088   2.654  1.8379 -0.5069  0.2641
11459TIP3    H255869   2.839   1.128   2.513 -0.0507  0.0006 -0.1533
11460TIP3   OH255870   1.651   3.989   1.291  0.9763  0.0251 -0.3662
11460TIP3    H155871   1.662   3.996   1.386  0.0269  1.5062 -0.3580
11460TIP3    H255872   1.595   3.913   1.279  0.3563  0.3774  0.3111
11461TIP3   OH255873   2.305   1.441   0.198  0.3515  1.0847 -0.3498
11461TIP3    H155874   2.329   1.532   0.210  1.9272  0.8869 -1.9246
11461TIP3    H255875   2.326   1.399   0.282 -1.9333  2.4448  0.9621
11462TIP3   OH255876   1.425   1.692  13.690  0.1438 -0.0540  0.5864
11462TIP3    H155877   1.366   1.628  13.732 -2.9409  1.7946 -0.7623
11462TIP3    H255878   1.472   1.642  13.624 -1.4203 -1.1611  0.2941
11463TIP3   OH255879   0.895   4.357   1.605  0.2253  0.2177  0.4755
11463TIP3    H155880   0.964   4.328   1.665 -0.4986  0.2569  1.3353
11463TIP3    H255881   0.823   4.296   1.621  0.7846 -1.1176 -1.9026
11464TIP3   OH255882   5.052   1.382   1.280 -0.0001 -0.6794 -0.1899
11464TIP3    H155883   5.143   1.381   1.311 -0.1552  0.2429  0.3394
11464TIP3    H255884   5.025   1.473   1.292 -0.5844 -0.6655 -1.5674
11465TIP3   OH255885   0.047   4.741  16.662  0.1121 -0.0278  0.3563
11465TIP3    H155886   0.001   4.824  16.672  1.4739  0.6908  0.7340
11465TIP3    H255887   0.078   4.741  16.572  0.6589  0.1640  0.5421
11466TIP3   OH255888   0.011   6.558   3.093 -0.7351  0.2129  0.6256
11466TIP3    H155889  -0.006   6.649   3.069  0.7162  0.5974  1.0481
11466TIP3    H255890   0.026   6.560   3.187 -0.2623 -0.3936  0.5645
11467TIP3   OH255891   3.738   1.560   1.199 -0.5195  0.0599  0.2962
11467TIP3    H155892   3.742   1.654   1.216 -1.6597  0.4619 -1.5241
11467TIP3    H255893   3.775   1.550   1.111 -2.2682 -0.9146 -0.3653
11468TIP3   OH255894   3.663   3.236  16.335 -0.4579  0.8134 -0.3473
11468TIP3    H155895   3.672   3.323  16.296 -1.7022  1.0411 -0.1542
11468TIP3    H255896   3.697   3.177  16.268  0.9494  1.4815 -0.2450
11469TIP3   OH255897   0.232   6.359  11.890  0.2717  0.2298  0.2824
11469TIP3    H155898   0.212   6.291  11.955  0.4848  0.4181  0.5503
11469TIP3    H255899   0.148   6.403  11.874  0.1641  0.0027  0.2238
11470TIP3   OH255900   5.435   6.790   4.144 -0.6969  0.0354 -0.1442
11470TIP3    H155901   5.471   6.764   4.059 -2.1063 -0.5142 -0.5811
11470TIP3    H255902   5.512   6.818   4.195  0.1335  0.5050 -1.6395
11471TIP3   OH255903   2.463   4.089  12.395  0.2101  0.3254  0.0380
11471TIP3    H155904   2.405   4.165  12.402 -2.0976 -1.2847 -0.8398
11471TIP3    H255905   2.450   4.057  12.306  0.0920 -1.8756  0.8055
11472TIP3   OH255906   0.558   1.919   2.049 -0.4263 -0.0917  0.3459
11472TIP3    H155907   0.494   1.877   1.992  1.1960 -0.6644 -1.1174
11472TIP3    H255908   0.571   1.856   2.120 -2.0064  0.3524  1.0434
11473TIP3   OH255909   4.585   3.811   4.474 -0.3284  0.2614 -0.2276
11473TIP3    H155910   4.667   3.830   4.521  0.2568  1.3570 -1.6877
11473TIP3    H255911   4.520   3.869   4.514  0.0413  0.7988 -0.4149
11474TIP3   OH255912   2.350   0.015   0.901  0.2047  0.6298  0.9107
11474TIP3    H155913   2.383  -0.059   0.849 -1.4669  0.2008  0.4272
11474TIP3    H255914   2.348  -0.018   0.990  1.8381  0.9354  1.0841
11475TIP3   OH255915   2.867   5.007  14.307 -0.1948 -0.1751  0.0943
11475TIP3    H155916   2.837   5.037  14.221  1.3137  1.3947  0.0877
11475TIP3    H255917   2.801   5.040  14.368 -0.6946 -0.3579 -0.3391
11476TIP3   OH255918   3.973   1.366  13.230  0.0868 -0.1130 -0.2310
11476TIP3    H155919   3.997   1.284  13.272  1.1377 -0.6302 -1.8044
11476TIP3    H255920   3.906   1.404  13.287 -1.7249 -2.9041 -0.4398
11477TIP3   OH255921   2.511   5.616  10.593 -0.1799  0.6472 -0.0680
11477TIP3    H155922   2.494   5.709  10.609  1.1511  0.6623  1.3883
11477TIP3    H255923   2.424   5.578  10.579 -0.7264  2.1140 -0.7555
11478TIP3   OH255924   4.552   6.648   2.321  0.1223  0.2168 -0.1981
11478TIP3    H155925   4.542   6.708   2.247  1.2781  3.4466  2.1469
11478TIP3    H255926   4.646   6.646   2.337  0.1024 -2.2695 -0.1919
11479TIP3   OH255927   6.231   5.766  13.160  0.0886 -0.1206 -0.4902
11479TIP3    H155928   6.275   5.745  13.077 -0.1279 -0.0999 -0.6100
11479TIP3    H255929   6.231   5.861  13.164  2.1764 -0.1321  0.6481
11480TIP3   OH255930   1.995   1.351   0.953 -0.7151 -0.0171  0.5764
11480TIP3    H155931   1.999   1.414   1.025 -0.3038 -1.0306  1.4614
11480TIP3    H255932   1.901   1.336   0.939 -0.7648 -1.2785  2.2115
11481TIP3   OH255933   6.221   1.182   0.723 -0.7864  0.3329  0.4482
11481TIP3    H155934   6.193   1.263   0.765 -1.1678 -0.6743  2.2175
11481TIP3    H255935   6.140   1.136   0.701 -0.5719  0.1011  0.1303
11482TIP3   OH255936   0.675   4.203   0.382  0.1227  0.3040 -0.3440
11482TIP3    H155937   0.665   4.273   0.447 -0.2833 -1.2766  1.3277
11482TIP3    H255938   0.586   4.186   0.352  0.0696 -0.3793  0.1994
11483TIP3   OH255939   4.611   3.963   5.490  0.6861  0.0674 -0.3351
11483TIP3    H155940   4.559   4.000   5.561  2.6701 -0.0514  1.2172
11483TIP3    H255941   4.688   3.927   5.533  2.1485  0.4164 -2.5995
11484TIP3   OH255942   0.849   2.064  13.356  0.9988 -0.0436  0.5385
11484TIP3    H155943   0.854   2.113  13.274  3.7564  0.8113  1.1534
11484TIP3    H255944   0.756   2.064  13.378  0.2998  0.4103 -2.1506
11485TIP3   OH255945   3.374   3.567   0.201 -0.5370  0.5907 -0.2411
11485TIP3    H155946   3.362   3.581   0.295  1.0485 -0.0081  0.0715
11485TIP3    H255947   3.400   3.475   0.194 -0.4858  0.6799 -1.2505
11486TIP3   OH255948   3.959   2.119  14.493 -0.2281  0.4801  0.6560
11486TIP3    H155949   3.864   2.103  14.487 -0.4192  1.3738  1.2163
11486TIP3    H255950   3.970   2.209  14.462  0.6975 -0.3060 -1.3669
11487TIP3   OH255951   2.938   0.511   2.425  0.3700  0.4158 -0.8346
11487TIP3    H155952   2.948   0.597   2.465  2.8381  0.2290 -0.9295
11487TIP3    H255953   2.925   0.451   2.499  1.2021  0.5640 -0.5531
11488TIP3   OH255954   0.863   6.043  15.832  0.0996  0.0012  0.1113
11488TIP3    H155955   0.793   6.106  15.849  0.9243  0.4801  1.7262
11488TIP3    H255956   0.845   5.970  15.891  0.4435 -0.2882 -0.1358
11489TIP3   OH255957   4.440   5.841   1.370  0.1394  0.3688  0.0104
11489TIP3    H155958   4.345   5.826   1.370  0.1121  0.4641  1.6430
11489TIP3    H255959   4.450   5.928   1.331 -0.4187  0.2574 -0.3990
11490TIP3   OH255960   0.104   0.506   3.588 -0.1560 -0.3594  0.5627
11490TIP3    H155961   0.035   0.439   3.588 -0.6784  0.1699 -0.0285
11490TIP3    H255962   0.060   0.585   3.621  0.1538 -0.0096  0.1420
11491TIP3   OH255963   0.757   5.912  12.946 -0.0735 -0.0473 -0.0428
11491TIP3    H155964   0.847   5.943  12.944 -0.1960  0.2631 -1.4335
11491TIP3    H255965   0.709   5.972  12.889 -0.9027 -0.9776 -0.3502
11492TIP3   OH255966   1.564   6.259  13.921  0.2596 -0.2934  0.0375
11492TIP3    H155967   1.598   6.211  13.846  0.8507 -2.9757  1.9317
11492TIP3    H255968   1.528   6.191  13.979  0.3962  1.6108  2.4677
11493TIP3   OH255969   1.018   5.993   2.672  0.1335 -0.1859 -0.4652
11493TIP3    H155970   1.029   6.078   2.715  0.3401 -0.7831  0.6583
11493TIP3    H255971   1.107   5.960   2.660  0.0084 -0.7335  0.0834
11494TIP3   OH255972   5.474   3.475  15.722  0.3251 -0.0882  0.0128
11494TIP3    H155973   5.412   3.534  15.766  0.6533 -0.1185  0.5242
11494TIP3    H255974   5.552   3.529  15.708  1.0108 -0.6916  1.4374
11495TIP3   OH255975   1.599   5.605  14.757 -0.2902  0.4410  0.2998
11495TIP3    H155976   1.670   5.561  14.805  0.0883  0.6629 -0.0544
11495TIP3    H255977   1.538   5.535  14.736 -1.3008  0.6094  2.5949
11496TIP3   OH255978   2.375   6.575  12.658  0.3269 -0.7327  0.1132
11496TIP3    H155979   2.286   6.553  12.685  0.1566 -1.8368 -1.3223
11496TIP3    H255980   2.381   6.669  12.675 -1.5456 -0.3869 -0.9435
11497TIP3   OH255981   2.614   2.881  11.635  0.3676  0.5364 -0.5767
11497TIP3    H155982   2.647   2.968  11.613 -0.4223  0.8900 -0.3957
11497TIP3    H255983   2.690   2.824  11.631  0.7929  1.1457 -1.2236
11498TIP3   OH255984   1.736   5.396   2.871  0.4055 -0.3851  0.7809
11498TIP3    H155985   1.706   5.308   2.846  0.6845 -0.5622  1.0625
11498TIP3    H255986   1.660   5.452   2.858  0.9307 -0.2186 -1.8411
11499TIP3   OH255987   4.699   3.857   4.221  0.2499  0.4014  0.0366
11499TIP3    H155988   4.764   3.850   4.291 -0.3945  1.4756  0.7666
11499TIP3    H255989   4.619   3.886   4.266 -0.0934  1.3924 -1.1931
11500TIP3   OH255990   2.894   4.366  10.365  0.8323  0.6490  0.1080
11500TIP3    H155991   2.957   4.333  10.428 -1.3403  1.0034  2.5641
11500TIP3    H255992   2.863   4.449  10.403 -0.1739  1.1213 -1.6547
11501TIP3   OH255993   5.254   0.110   1.958  0.1242  0.8821 -0.3089
11501TIP3    H155994   5.302   0.147   1.883 -0.7050  0.3589 -1.1038
11501TIP3    H255995   5.282   0.164   2.032  1.0800  1.3088 -0.9593
11502TIP3   OH255996   2.851   6.599  16.663 -0.6585  0.4191 -0.1454
11502TIP3    H155997   2.756   6.586  16.660 -0.4237 -1.6442  0.7289
11502TIP3    H255998   2.865   6.682  16.616 -2.9572  1.2295  0.5380
11503TIP3   OH255999   1.279   5.343   3.015 -0.7573  0.4216  0.0463
11503TIP3    H156000   1.218   5.322   3.087 -1.1168  0.3335 -0.2809
11503TIP3    H256001   1.305   5.434   3.031 -2.1439  0.9580 -0.6373
11504TIP3   OH256002   0.766   6.477  12.633 -0.4376  0.3628  0.0478
11504TIP3    H156003   0.785   6.512  12.546  0.3743 -1.4926 -0.5421
11504TIP3    H256004   0.768   6.554  12.691  1.6045  1.2394 -1.1481
11505TIP3   OH256005   6.686   1.861  11.369  0.0416  0.2825  0.1850
11505TIP3    H156006   6.736   1.928  11.323 -1.3809  0.9681 -0.4194
11505TIP3    H256007   6.712   1.869  11.460  1.5559  0.1269 -0.2190
11506TIP3   OH256008   6.597   1.330  15.948 -0.5975 -0.1113 -0.5784
11506TIP3    H156009   6.655   1.401  15.975 -1.7872  1.0182 -0.9307
11506TIP3    H256010   6.522   1.375  15.908 -0.7690 -1.6060 -1.9726
11507TIP3   OH256011   4.795   0.842  13.347  0.1794 -0.0705  0.1021
11507TIP3    H156012   4.829   0.806  13.429 -1.0838 -0.1372  0.6204
11507TIP3    H256013   4.704   0.811  13.344 -0.1656  1.0037 -0.6850
11508TIP3   OH256014   3.833   3.704  14.254 -0.3209 -0.3466 -0.5451
11508TIP3    H156015   3.894   3.720  14.326  0.6741 -0.6793 -1.3186
11508TIP3    H256016   3.748   3.693  14.297 -0.2342  2.2575  0.3919
11509TIP3   OH256017   3.121   3.717   3.016  0.5406 -0.0863  0.1606
11509TIP3    H156018   3.173   3.729   2.936 -0.0049 -2.0350 -0.5294
11509TIP3    H256019   3.162   3.642   3.059  0.6126  0.7430  1.5635
11510TIP3   OH256020   4.248   6.056  12.086  0.5419  0.0143 -0.0671
11510TIP3    H156021   4.153   6.048  12.073  0.7934 -1.5105 -1.1214
11510TIP3    H256022   4.257   6.103  12.169 -1.1364  0.9728 -0.4018
11511TIP3   OH256023   2.573   6.123  11.885  0.1719 -0.0161 -0.5800
11511TIP3    H156024   2.651   6.175  11.901  1.5826 -2.0941 -0.4715
11511TIP3    H256025   2.550   6.141  11.794 -0.8500  2.6581  0.1519
11512TIP3   OH256026   2.513   2.313   1.857 -0.6302 -0.1228 -0.3974
11512TIP3    H156027   2.540   2.327   1.766 -0.4847  0.2734 -0.2946
11512TIP3    H256028   2.510   2.401   1.894  0.8692 -0.4167  0.4340
11513TIP3   OH256029   0.172   3.437  14.509  0.4608  0.0985 -0.3878
11513TIP3    H156030   0.248   3.386  14.537 -0.3088 -1.0676 -0.4228
11513TIP3    H256031   0.164   3.419  14.416 -0.1556 -0.1639 -0.2828
11514TIP3   OH256032   4.780   4.347  15.809 -0.0017  0.0541  0.2757
11514TIP3    H156033   4.797   4.262  15.849  0.9032  0.6031  1.0924
11514TIP3    H256034   4.685   4.348  15.795  0.0642 -1.3436 -0.3616
11515TIP3   OH256035   4.870   1.381   2.875 -0.3604  0.0003  0.1037
11515TIP3    H156036   4.798   1.331   2.836  0.2463 -0.4975 -0.3875
11515TIP3    H256037   4.945   1.322   2.871  0.4495  1.0802 -0.8019
11516TIP3   OH256038   1.186   5.558   1.342 -0.3773  0.8169 -0.3193
11516TIP3    H156039   1.100   5.598   1.349 -0.6288  0.0767  0.9520
11516TIP3    H256040   1.242   5.628   1.308 -1.3691  1.4536 -0.6545
11517TIP3   OH256041   6.053   0.776  16.357 -0.1648  0.0729  0.3037
11517TIP3    H156042   6.088   0.843  16.416 -3.1107  0.5451  1.5893
11517TIP3    H256043   5.982   0.819  16.310 -1.6552 -1.9080  0.6486
11518TIP3   OH256044   1.777   3.699  15.821  0.6875  0.6102  0.3994
11518TIP3    H156045   1.734   3.784  15.810  2.6629  1.4977 -0.8314
11518TIP3    H256046   1.858   3.719  15.868  2.4403 -0.1515 -2.1859
11519TIP3   OH256047   1.709   3.368   2.038 -0.1922 -0.3569 -0.4413
11519TIP3    H156048   1.773   3.304   2.009  0.0915 -0.1808 -0.2180
11519TIP3    H256049   1.661   3.393   1.959 -0.9415 -1.5407 -0.3691
11520TIP3   OH256050   2.913   6.396  13.337 -0.0815 -0.1762  0.2082
11520TIP3    H156051   2.909   6.366  13.246 -0.9863  2.2422 -0.5771
11520TIP3    H256052   2.907   6.491  13.331  0.8751  0.0750  2.7543
11521TIP3   OH256053   3.875   3.210  12.448 -0.2608 -0.1679 -0.2913
11521TIP3    H156054   3.791   3.213  12.494  0.0931 -2.1040  0.5031
11521TIP3    H256055   3.856   3.162  12.367 -0.1737  0.4074 -0.6524
11522TIP3   OH256056   5.559   4.184   1.070 -0.0775 -0.2212  0.3805
11522TIP3    H156057   5.636   4.183   1.128  0.7620 -1.0927 -0.7252
11522TIP3    H256058   5.547   4.277   1.049  2.1825 -0.3024 -1.3882
11523TIP3   OH256059   1.026   5.326   1.615 -0.1680  0.2918  0.0562
11523TIP3    H156060   1.091   5.328   1.545 -1.8017 -0.6997 -1.5358
11523TIP3    H256061   1.002   5.417   1.629  2.6521  0.8309  1.7489
11524TIP3   OH256062   0.953   0.929  15.308 -0.2787 -0.0744  0.2916
11524TIP3    H156063   1.009   0.940  15.385 -1.6552 -1.2164  1.5094
11524TIP3    H256064   1.003   0.966  15.236  2.6376 -2.2918  1.0667
11525TIP3   OH256065   6.019   6.517   3.514 -0.5130 -0.1469  0.4668
11525TIP3    H156066   6.045   6.491   3.603  0.4070 -1.3559 -0.1411
11525TIP3    H256067   6.024   6.436   3.463 -1.5410  0.4334 -0.5875
11526TIP3   OH256068   2.594   5.681  13.888 -0.0967 -0.5928  0.0769
11526TIP3    H156069   2.675   5.639  13.916  0.7236  1.1930  0.4087
11526TIP3    H256070   2.603   5.690  13.793  0.0713 -0.4004  0.1130
11527TIP3   OH256071   2.664   2.661   4.928 -0.0201 -0.7042 -0.5840
11527TIP3    H156072   2.695   2.695   4.844 -0.1275  1.2123  0.1249
11527TIP3    H256073   2.635   2.738   4.975  0.5512 -1.6960  1.4389
11528TIP3   OH256074   0.411   4.150   5.885  0.4940 -0.0969  0.5694
11528TIP3    H156075   0.425   4.237   5.922  0.6852  0.2710 -0.3551
11528TIP3    H256076   0.355   4.106   5.949 -1.2949  1.3896  0.1051
11529TIP3   OH256077   1.056   4.705  13.638 -0.4417  0.1453 -0.0427
11529TIP3    H156078   1.079   4.698  13.546  1.3798 -1.1298  0.4781
11529TIP3    H256079   1.022   4.618  13.661  3.4817 -1.0678  1.5826
11530TIP3   OH256080   6.469   4.890  16.736  0.0791 -0.0220 -0.2338
11530TIP3    H156081   6.454   4.799  16.710  0.2614  0.5949 -2.5610
11530TIP3    H256082   6.447   4.891  16.829  0.4902 -2.5421 -0.0547
11531TIP3   OH256083   0.836   1.076   3.191  0.6649  0.1294  0.2217
11531TIP3    H156084   0.749   1.101   3.160  0.6133 -1.0458 -0.5930
11531TIP3    H256085   0.838   0.981   3.184  1.2972 -0.0283  2.1647
11532TIP3   OH256086   1.831   3.896  15.281 -0.2169  0.3069 -0.1182
11532TIP3    H156087   1.796   3.849  15.205  1.0902 -0.5595 -0.1997
11532TIP3    H256088   1.893   3.959  15.245  0.6080 -0.2879  0.2320
11533TIP3   OH256089   5.804   5.234  15.046 -0.0003 -0.7429 -0.5821
11533TIP3    H156090   5.855   5.241  14.964 -0.6000 -0.0071 -0.8932
11533TIP3    H256091   5.755   5.152  15.036  0.0571 -0.7428 -0.8887
11534TIP3   OH256092   5.201   3.745   2.958 -0.1281  0.0689 -0.4000
11534TIP3    H156093   5.127   3.740   2.897 -1.4723 -0.2330  1.2190
11534TIP3    H256094   5.277   3.761   2.902 -1.4632  0.7395 -2.0665
11535TIP3   OH256095   2.024   0.082   3.124  1.0861 -0.6894  0.0346
11535TIP3    H156096   1.989   0.064   3.037 -0.8804 -2.5450  1.1705
11535TIP3    H256097   2.117   0.061   3.117  0.8090 -1.5194 -1.4308
11536TIP3   OH256098   0.461   4.162  14.798  0.5134  0.7006 -0.9172
11536TIP3    H156099   0.425   4.134  14.882  3.5527  0.6853  0.4390
11536TIP3    H256100   0.457   4.083  14.744  1.0126 -0.0242  0.0819
11537TIP3   OH256101   6.579   0.232   0.931 -0.3172  0.2460 -0.0231
11537TIP3    H156102   6.578   0.324   0.961  0.2077 -0.1398  1.2284
11537TIP3    H256103   6.533   0.234   0.847 -2.2027  1.3276  0.9908
11538TIP3   OH256104   4.316   1.756  14.621  0.2496 -0.1940  0.0835
11538TIP3    H156105   4.410   1.755  14.640  0.0963  1.4174  1.0565
11538TIP3    H256106   4.276   1.798  14.698 -1.3072 -1.1271 -0.1816
11539TIP3   OH256107   3.541   4.423   6.411  0.4161 -0.0091 -0.1674
11539TIP3    H156108   3.526   4.338   6.452 -0.2550  0.4130  0.4987
11539TIP3    H256109   3.454   4.451   6.382  0.7299  0.1608 -0.9643
11540TIP3   OH256110   0.072   4.727   0.093 -0.1870  0.2236 -0.2296
11540TIP3    H156111   0.014   4.790   0.049 -1.0346 -0.4187 -0.0627
11540TIP3    H256112   0.157   4.770   0.096 -0.5714  1.0443 -0.8104
11541TIP3   OH256113   0.394   0.874  15.104 -0.8301  0.2682 -0.4869
11541TIP3    H156114   0.329   0.925  15.055 -0.9358  0.9664  0.3619
11541TIP3    H256115   0.411   0.927  15.182 -0.4300 -0.6794  0.0729
11542TIP3   OH256116   2.917   0.389   1.069 -0.3095 -0.1883  0.4158
11542TIP3    H156117   2.984   0.322   1.059 -0.9570 -0.7811 -0.0151
11542TIP3    H256118   2.855   0.372   0.997 -0.8222  0.4618  0.6972
11543TIP3   OH256119   1.224   5.804   3.741  0.1798 -0.2886 -0.3702
11543TIP3    H156120   1.153   5.809   3.805  0.1388  0.6192 -0.4835
11543TIP3    H256121   1.302   5.831   3.789  0.1473  0.4075 -0.6913
11544TIP3   OH256122   5.771   6.437  12.571 -0.0046  0.3672 -0.5180
11544TIP3    H156123   5.854   6.389  12.573  0.1810  0.6873 -0.5388
11544TIP3    H256124   5.738   6.431  12.660 -0.9928 -1.5626 -0.9875
11545TIP3   OH256125   0.283   4.902  12.211  0.0410 -0.3168 -0.0106
11545TIP3    H156126   0.376   4.881  12.206 -0.2413 -1.8574  0.9921
11545TIP3    H256127   0.254   4.906  12.119  1.0830  0.1879 -0.3214
11546TIP3   OH256128   1.004   0.753   2.422  0.2780 -0.0069  0.4484
11546TIP3    H156129   0.932   0.745   2.359 -0.9583 -0.8764  1.9482
11546TIP3    H256130   1.066   0.812   2.379 -0.0241 -1.4151 -2.0371
11547TIP3   OH256131   2.964   6.367   2.201 -0.6848 -0.4716  0.4614
11547TIP3    H156132   3.030   6.330   2.143  0.7295  2.0953  0.3658
11547TIP3    H256133   2.926   6.291   2.245  0.3556 -2.2147 -1.5307
11548TIP3   OH256134   5.611   2.069  14.740  0.2133 -0.5898  0.3385
11548TIP3    H156135   5.627   1.992  14.684  0.4694 -1.4338  1.5497
11548TIP3    H256136   5.543   2.040  14.801  1.3106 -0.3139  1.7064
11549TIP3   OH256137   0.594   3.308  11.599 -0.2488  0.5721  0.1709
11549TIP3    H156138   0.532   3.379  11.615  0.0875  1.2278 -1.3397
11549TIP3    H256139   0.660   3.346  11.540  0.6063 -0.6282  0.3346
11550TIP3   OH256140   4.532   5.592  11.602  0.6371 -0.0779 -0.5980
11550TIP3    H156141   4.580   5.587  11.685 -0.5142 -1.6158 -0.0023
11550TIP3    H256142   4.448   5.632  11.625  0.3728 -0.3686 -1.0468
11551TIP3   OH256143   4.801   3.742   2.295  0.6160 -0.9986 -0.4711
11551TIP3    H156144   4.780   3.720   2.204  0.2619 -0.2651 -0.5767
11551TIP3    H256145   4.725   3.712   2.345  0.2821 -0.3382 -0.5727
11552TIP3   OH256146   0.874   3.385   3.333 -0.0465 -1.0717  0.4784
11552TIP3    H156147   0.886   3.371   3.239  0.7588 -1.1261  0.5912
11552TIP3    H256148   0.782   3.364   3.348 -0.5382  0.2337 -0.5410
11553TIP3   OH256149   5.592   0.392  12.642 -0.4619 -0.2135 -0.1192
11553TIP3    H156150   5.545   0.416  12.563  0.2890 -0.0917 -0.5363
11553TIP3    H256151   5.678   0.433  12.632 -0.7339  0.7493  1.2637
11554TIP3   OH256152   4.247   2.819  10.200  0.0720 -0.2106 -0.0131
11554TIP3    H156153   4.268   2.888  10.138 -1.0230  0.4070  0.2918
11554TIP3    H256154   4.200   2.753  10.148 -0.6190  0.1884  0.1034
11555TIP3   OH256155   1.890   1.496   2.924  0.0137  0.2067  0.0046
11555TIP3    H156156   1.891   1.586   2.956 -1.2718 -1.2778  4.7421
11555TIP3    H256157   1.808   1.487   2.876  0.6536  1.8301 -1.3995
11556TIP3   OH256158   2.961   2.216   2.961 -0.3326  0.3926 -0.0282
11556TIP3    H156159   2.881   2.252   2.999  0.2415  1.8101 -0.1461
11556TIP3    H256160   2.968   2.259   2.876 -0.0254 -0.5521 -0.4832
11557TIP3   OH256161   6.509   4.522  14.239  0.4862  0.2198  0.6459
11557TIP3    H156162   6.509   4.598  14.180  1.1402  0.8594  1.4489
11557TIP3    H256163   6.561   4.456  14.194 -0.1655  0.2102 -0.1032
11558TIP3   OH256164   4.781   2.230  15.234 -0.0660 -0.5385  0.0003
11558TIP3    H156165   4.696   2.217  15.277  0.2670 -0.9925  0.5393
11558TIP3    H256166   4.770   2.193  15.147 -0.3536 -0.8263  0.1556
11559TIP3   OH256167   2.789   1.469   3.407 -0.2464  0.0056  0.0274
11559TIP3    H156168   2.758   1.558   3.389  1.6467  0.4036 -1.4402
11559TIP3    H256169   2.737   1.413   3.349 -1.8265  0.0507  1.3442
11560TIP3   OH256170   1.271   1.653  16.032 -0.3268 -0.2040 -0.7004
11560TIP3    H156171   1.266   1.578  16.092  0.9368 -0.9146 -1.4589
11560TIP3    H256172   1.239   1.618  15.949  1.8073 -0.3872 -1.4833
11561TIP3   OH256173   2.375   6.700  14.821  0.0635 -0.3510 -0.1641
11561TIP3    H156174   2.390   6.679  14.729 -2.0777 -1.0862 -0.3770
11561TIP3    H256175   2.409   6.789  14.831  1.2085 -0.6332 -1.4153
11562TIP3   OH256176   6.544   1.500   2.447 -0.2589  0.2009 -0.0240
11562TIP3    H156177   6.489   1.441   2.394 -2.5941  0.5754  1.8839
11562TIP3    H256178   6.588   1.442   2.509  1.4317 -0.0841 -1.4624
11563TIP3   OH256179   6.471   3.085  10.853  0.2039 -1.3037 -0.2011
11563TIP3    H156180   6.379   3.094  10.879  0.7735  2.6017  0.7527
11563TIP3    H256181   6.473   3.120  10.763  1.0309  0.5240  0.4928
11564TIP3   OH256182   6.541   2.611   2.277 -0.0912 -0.1398 -0.0057
11564TIP3    H156183   6.528   2.614   2.183  2.8531  1.8693 -0.4275
11564TIP3    H256184   6.543   2.703   2.304 -0.2537 -0.6655  1.9061
11565TIP3   OH256185   5.528   3.686  11.602  0.4386  0.0221  0.4332
11565TIP3    H156186   5.496   3.733  11.679 -0.2204  2.0779 -1.0679
11565TIP3    H256187   5.585   3.617  11.638  1.4963  1.9990  2.6588
11566TIP3   OH256188   1.405   4.582  14.812  0.6362 -0.2464  0.3508
11566TIP3    H156189   1.383   4.670  14.842  0.6046 -0.2201  0.2473
11566TIP3    H256190   1.447   4.594  14.728  1.2106 -0.2880  0.6286
11567TIP3   OH256191   6.731   5.978   5.507  0.2514  0.2111 -0.8216
11567TIP3    H156192   6.667   5.935   5.451  0.6160  0.5042 -1.4727
11567TIP3    H256193   6.802   6.003   5.448  1.1390 -0.4337 -0.0564
11568TIP3   OH256194   4.528   1.005  11.394 -0.3075  0.3445  0.2346
11568TIP3    H156195   4.498   1.080  11.342 -1.1570 -0.4779 -0.4764
11568TIP3    H256196   4.526   1.037  11.484 -2.5107  0.5957  0.1277
11569TIP3   OH256197   2.876   0.000  12.886 -0.6436 -0.2927 -0.1104
11569TIP3    H156198   2.813  -0.039  12.946 -0.7323 -0.1383 -0.1010
11569TIP3    H256199   2.902  -0.072  12.828 -0.5270 -0.4491  0.1375
11570TIP3   OH256200   6.404   6.160   2.393 -0.6586 -0.0610  0.4644
11570TIP3    H156201   6.346   6.158   2.317  1.0601  0.9772 -0.9006
11570TIP3    H256202   6.362   6.221   2.454 -1.2306  0.3249 -0.3151
11571TIP3   OH256203   5.507   3.285  14.681 -1.2354 -0.3047  0.0900
11571TIP3    H156204   5.487   3.352  14.745 -0.9119 -0.0213 -0.1065
11571TIP3    H256205   5.602   3.288  14.671 -1.2817 -0.3560 -0.3956
11572TIP3   OH256206   0.054   3.801   4.559  0.0200 -0.3933  0.2005
11572TIP3    H156207   0.113   3.751   4.616  0.8870 -0.9298 -1.1670
11572TIP3    H256208   0.012   3.736   4.504 -0.4409  0.1788 -0.1317
11573TIP3   OH256209   4.786   5.860  12.451  0.7249  0.3041  0.4377
11573TIP3    H156210   4.842   5.902  12.386  0.4377  0.8282  0.5258
11573TIP3    H256211   4.785   5.921  12.525  0.8917 -0.1973  0.8583
11574TIP3   OH256212   6.816   1.891   1.991 -0.4224  0.1612 -0.7351
11574TIP3    H156213   6.747   1.848   1.941 -1.3744  2.0952 -1.1133
11574TIP3    H256214   6.897   1.859   1.951 -1.1347 -0.1744 -1.9512
11575TIP3   OH256215   0.665   3.373  16.389 -0.0092  0.4489 -0.1962
11575TIP3    H156216   0.596   3.438  16.377 -0.4439 -0.0813 -0.5253
11575TIP3    H256217   0.746   3.421  16.370 -0.2271  1.2397  0.8094
11576TIP3   OH256218   3.116   4.125   4.084  0.1898  0.2137 -0.5002
11576TIP3    H156219   3.175   4.192   4.117 -0.0380 -0.1287  0.6099
11576TIP3    H256220   3.130   4.049   4.141 -0.4478 -0.2654 -0.9667
11577TIP3   OH256221   5.375   3.534  11.106  0.0831  0.0019  0.2577
11577TIP3    H156222   5.417   3.612  11.141 -3.8926  2.6430 -0.4442
11577TIP3    H256223   5.376   3.547  11.011 -2.4823  0.3828  0.2243
11578TIP3   OH256224   4.382   4.006   1.246  0.8472 -0.2646 -0.4909
11578TIP3    H156225   4.392   4.050   1.161 -2.3084  0.2039 -0.6847
11578TIP3    H256226   4.306   4.049   1.287  0.9570 -1.9678  1.6162
11579TIP3   OH256227   1.778   4.677   4.358 -0.3884  0.3129  0.5188
11579TIP3    H156228   1.786   4.755   4.303 -1.8575  0.2429  0.1899
11579TIP3    H256229   1.745   4.609   4.300 -1.7796  0.1919  1.4112
11580TIP3   OH256230   3.654   5.521   2.110 -0.4239  0.5149 -0.0244
11580TIP3    H156231   3.739   5.532   2.152 -0.5390  0.4116  0.2373
11580TIP3    H256232   3.675   5.495   2.020 -0.1775 -1.7044  0.6340
11581TIP3   OH256233   0.094   0.962  11.775  0.0147  0.0033 -0.2878
11581TIP3    H156234   0.153   0.982  11.848  0.3634  1.6194 -0.9717
11581TIP3    H256235   0.024   1.028  11.782  0.1726  0.3238 -1.5253
11582TIP3   OH256236   3.081   3.201  12.552  0.4811 -0.3651  0.3121
11582TIP3    H156237   3.057   3.109  12.549 -2.2295  0.3022  0.0417
11582TIP3    H256238   3.003   3.248  12.522  1.5157  2.0597  1.2118
11583TIP3   OH256239   1.595   1.724  16.925  0.0927  0.1866 -0.3622
11583TIP3    H156240   1.564   1.701  16.838  1.1206 -1.7428 -0.2779
11583TIP3    H256241   1.687   1.747  16.912 -0.0128  0.8711  0.0775
11584TIP3   OH256242   0.680   0.621  12.786 -0.2841 -1.0502  0.4133
11584TIP3    H156243   0.596   0.666  12.780  0.7492  0.7969 -0.6693
11584TIP3    H256244   0.682   0.585  12.875 -0.8743  1.6471  1.5705
11585TIP3   OH256245   4.002   2.667   3.085 -0.2267  0.0610 -0.0613
11585TIP3    H156246   4.045   2.717   3.016 -0.2232  0.8290  0.4950
11585TIP3    H256247   4.036   2.578   3.074  0.4493  0.3622 -0.4893
11586TIP3   OH256248   3.073   6.476  15.881 -0.5089  0.6174  0.2723
11586TIP3    H156249   3.157   6.463  15.837 -1.2141  0.1432 -0.9501
11586TIP3    H256250   3.030   6.545  15.831 -0.4914  1.4859  1.4242
11587TIP3   OH256251   6.255   1.746   1.101 -0.1299  0.7422 -0.5227
11587TIP3    H156252   6.349   1.755   1.120  0.1442 -0.0214 -1.5024
11587TIP3    H256253   6.222   1.689   1.171 -0.0871  1.9148  0.4615
11588TIP3   OH256254   2.146   3.984  17.137 -0.5645 -0.0392  0.0144
11588TIP3    H156255   2.158   4.044  17.211  0.2555 -0.7023  0.4244
11588TIP3    H256256   2.134   4.042  17.061 -1.5131  0.6428  0.6769
11589TIP3   OH256257   0.745   1.474  11.153 -0.9122  0.1140 -0.0298
11589TIP3    H156258   0.725   1.563  11.183  1.0343 -0.4428  3.1613
11589TIP3    H256259   0.819   1.485  11.093  0.4292  0.5058  1.6695
11590TIP3   OH256260   0.025   3.394  13.989 -0.4597  0.2333  0.3635
11590TIP3    H156261  -0.023   3.409  13.908  1.5101 -0.1701 -0.8791
11590TIP3    H256262   0.058   3.481  14.013  0.4655  0.0387 -0.2134
11591TIP3   OH256263   4.714   4.950  11.999 -0.2986  0.0309 -0.3062
11591TIP3    H156264   4.731   5.040  11.971  1.0575 -0.4600 -1.1562
11591TIP3    H256265   4.691   4.957  12.091  1.6631  1.1065  0.1410
11592TIP3   OH256266   2.915   4.187   2.489  0.0059  0.2422 -0.0660
11592TIP3    H156267   2.911   4.148   2.402 -2.0675  0.0393  0.0890
11592TIP3    H256268   2.885   4.277   2.476 -0.1960  0.2439  0.4038
11593TIP3   OH256269   1.585   1.838  13.851  0.0887 -0.6126  0.4577
11593TIP3    H156270   1.655   1.875  13.796 -0.1380 -0.5319  0.2188
11593TIP3    H256271   1.512   1.826  13.791  0.0606 -1.1735  0.6028
11594TIP3   OH256272   3.768   3.366  16.984  0.1546 -0.3759  0.5177
11594TIP3    H156273   3.821   3.379  17.062 -0.2239 -2.2939  1.1330
11594TIP3    H256274   3.694   3.425  16.995 -0.6103 -1.6168  2.3117
11595TIP3   OH256275   0.025   5.786   1.882 -0.9868  0.4693  0.6461
11595TIP3    H156276  -0.069   5.774   1.886 -1.2532  1.1610 -2.1402
11595TIP3    H256277   0.062   5.701   1.908 -2.4218 -0.2849  0.2681
11596TIP3   OH256278   2.315   1.251   5.050 -0.5475  0.7830 -0.2154
11596TIP3    H156279   2.276   1.189   5.111  0.7049  1.1663  1.0020
11596TIP3    H256280   2.318   1.204   4.966  0.8493 -1.0161  0.7987
11597TIP3   OH256281   0.953   4.586  14.176 -0.0805 -0.4734  0.1544
11597TIP3    H156282   0.879   4.573  14.116 -0.8385 -1.7230  1.3450
11597TIP3    H256283   0.935   4.529  14.250  2.0344 -0.7233  0.5199
11598TIP3   OH256284   6.484   3.596  13.811 -0.3446 -0.4986 -0.0666
11598TIP3    H156285   6.429   3.520  13.791  0.4576 -0.5846 -2.0679
11598TIP3    H256286   6.453   3.664  13.750 -0.4448  0.5069  1.0824
11599TIP3   OH256287   0.607   1.534   1.563 -0.0176  0.1808 -0.2962
11599TIP3    H156288   0.591   1.511   1.471  0.2547  0.5921 -0.4457
11599TIP3    H256289   0.528   1.505   1.608  0.7995 -2.1732 -0.2825
11600TIP3   OH256290   6.191   5.207   1.224 -0.4976 -0.2170  0.2031
11600TIP3    H156291   6.136   5.195   1.146 -0.7914 -0.8684  0.5079
11600TIP3    H256292   6.218   5.299   1.221  1.0655 -0.7039 -1.7050
11601TIP3   OH256293   2.908   1.086  15.293 -0.5117 -0.3258 -0.2456
11601TIP3    H156294   2.843   1.053  15.355 -0.3961  0.7273  0.4565
11601TIP3    H256295   2.990   1.086  15.342  0.0444 -1.7468 -1.1635
11602TIP3   OH256296   3.619   3.685   2.386  0.4081 -0.0934 -0.2996
11602TIP3    H156297   3.623   3.774   2.421  0.1572 -0.8925  1.8822
11602TIP3    H256298   3.702   3.672   2.341  1.5929  0.3230  1.7282
11603TIP3   OH256299   2.698   2.689  15.374 -0.1935 -0.0257  0.1761
11603TIP3    H156300   2.751   2.762  15.340 -0.3877  0.6159  1.2228
11603TIP3    H256301   2.672   2.641  15.296  1.6693 -0.1736 -0.3896
11604TIP3   OH256302   3.282   2.185   3.249 -0.4305  0.0714 -0.3391
11604TIP3    H156303   3.368   2.144   3.249 -0.5708 -0.2375  0.4302
11604TIP3    H256304   3.300   2.278   3.239  0.0025  0.0239 -0.0320
11605TIP3   OH256305   0.816   1.823  12.965  0.2384  0.6075 -0.1062
11605TIP3    H156306   0.848   1.738  12.935  0.1679 -0.6771  3.3080
11605TIP3    H256307   0.888   1.883  12.947  0.8123 -0.4143 -1.3287
11606TIP3   OH256308   4.738   6.624  15.547 -0.0247 -0.2387  0.2860
11606TIP3    H156309   4.667   6.664  15.497  1.1865  0.8302 -0.6343
11606TIP3    H256310   4.817   6.670  15.516  1.0036 -1.1152  1.5778
11607TIP3   OH256311   1.336   0.260   5.456  0.0937  0.3109 -0.3242
11607TIP3    H156312   1.418   0.222   5.486 -0.0554 -2.2061 -2.9231
11607TIP3    H256313   1.349   0.275   5.363 -1.9541  1.1294 -0.5068
11608TIP3   OH256314   6.344   5.866   4.928 -0.9509  0.1802 -0.6215
11608TIP3    H156315   6.380   5.926   4.993 -1.1733  0.2369 -0.5519
11608TIP3    H256316   6.281   5.919   4.879 -2.5469 -0.4962  0.6687
11609TIP3   OH256317   6.556   6.576  11.306  0.5850  0.0854 -0.7284
11609TIP3    H156318   6.631   6.533  11.264 -0.5113  0.4288 -3.1086
11609TIP3    H256319   6.481   6.552  11.251 -0.7530  1.3337  0.5130
11610TIP3   OH256320   2.953   1.289   3.526 -0.3471 -0.2431  0.3750
11610TIP3    H156321   2.927   1.337   3.447 -2.1654 -1.3894  0.2561
11610TIP3    H256322   2.996   1.210   3.494 -0.1704 -0.2103  0.5304
11611TIP3   OH256323   2.758   2.719   3.216 -0.7075  0.3591  0.1590
11611TIP3    H156324   2.837   2.744   3.168 -0.9494  0.2281 -0.3106
11611TIP3    H256325   2.698   2.793   3.204 -0.6371  0.4791  0.5553
11612TIP3   OH256326   4.282   1.171   3.746 -0.0067  0.3975 -0.0634
11612TIP3    H156327   4.308   1.260   3.724 -2.4910  1.0808 -0.3838
11612TIP3    H256328   4.206   1.181   3.803  0.3995 -1.4984  0.8535
11613TIP3   OH256329   1.789   0.293  13.545  0.0579  0.0375 -0.4388
11613TIP3    H156330   1.839   0.374  13.551  2.2281 -1.1236 -2.1270
11613TIP3    H256331   1.714   0.316  13.490  0.2473  1.0718 -0.2853
11614TIP3   OH256332   1.237   6.560   5.216 -0.1229 -0.1910 -0.1156
11614TIP3    H156333   1.271   6.616   5.286  0.7144  1.2357 -1.6425
11614TIP3    H256334   1.146   6.543   5.241 -1.3233  4.3212 -1.0707
11615TIP3   OH256335   2.048   3.853   1.527 -0.2735  0.1775  0.1484
11615TIP3    H156336   2.070   3.763   1.551 -0.9850  0.1093  0.5460
11615TIP3    H256337   2.107   3.907   1.579 -2.1912  0.0566  2.5151
11616TIP3   OH256338   3.016   0.798   3.888 -0.4065 -0.0408  0.7082
11616TIP3    H156339   3.051   0.762   3.807 -0.2269 -1.4394  1.3974
11616TIP3    H256340   2.956   0.867   3.859  1.1487  0.8206 -0.5480
11617TIP3   OH256341   3.115   3.943  16.180 -0.4622  0.0807  0.1544
11617TIP3    H156342   3.144   3.860  16.143  0.6015  0.7127 -0.4417
11617TIP3    H256343   3.022   3.930  16.198 -0.5107 -0.9350 -0.7942
11618TIP3   OH256344   1.974   4.264   5.331 -0.1033  0.7683  0.0155
11618TIP3    H156345   1.928   4.221   5.404  0.1712  1.2222  0.4608
11618TIP3    H256346   1.993   4.194   5.270 -0.9429  0.4906  0.0694
11619TIP3   OH256347   0.796   3.671  16.036 -0.5543 -0.1449  0.6817
11619TIP3    H156348   0.884   3.638  16.020 -1.2032 -0.1346 -3.5329
11619TIP3    H256349   0.746   3.595  16.067  1.0421  0.0427  3.9556
11620TIP3   OH256350   2.833   0.456   2.164  0.0288  0.7438  0.1995
11620TIP3    H156351   2.784   0.478   2.243 -1.8640 -1.1622 -0.3849
11620TIP3    H256352   2.907   0.403   2.195 -0.2432  0.6930  0.7683
11621TIP3   OH256353   0.010   4.168  13.689 -0.1659 -0.3191  0.0515
11621TIP3    H156354   0.009   4.096  13.626  0.8959 -0.0350 -0.3062
11621TIP3    H256355   0.095   4.160  13.732 -0.2404  0.4374  0.3416
11622TIP3   OH256356   6.747   4.084   3.331 -0.4699  0.1945  0.2307
11622TIP3    H156357   6.805   4.085   3.407  0.2443  0.7177 -0.3122
11622TIP3    H256358   6.661   4.107   3.366 -0.5437 -1.4105  1.1859
11623TIP3   OH256359   2.896   3.838  14.836  0.1601  0.1733  0.6218
11623TIP3    H156360   2.951   3.915  14.848  0.0023  0.4838 -0.6808
11623TIP3    H256361   2.950   3.777  14.786 -0.8894  0.7364 -1.2512
11624TIP3   OH256362   6.423   6.003  16.099 -0.2096  0.7734  0.4805
11624TIP3    H156363   6.503   6.049  16.124 -0.3715  0.1933  2.1473
11624TIP3    H256364   6.450   5.911  16.093 -0.5207  0.7142  0.0071
11625TIP3   OH256365   6.463   1.601   0.532  0.2862  0.5469 -0.1304
11625TIP3    H156366   6.540   1.557   0.495  0.3765  0.3274  0.3076
11625TIP3    H256367   6.389   1.549   0.502  0.3289  0.5981 -0.3267
11626TIP3   OH256368   1.327   5.557  15.822 -0.0568 -0.2049 -0.0925
11626TIP3    H156369   1.402   5.608  15.792  0.8657 -0.3901  1.8355
11626TIP3    H256370   1.326   5.569  15.917  0.2215 -3.8526  0.4362
11627TIP3   OH256371   6.795   4.860  15.755 -0.4729  0.1623 -0.4001
11627TIP3    H156372   6.875   4.914  15.752 -0.5815  0.3548  0.0750
11627TIP3    H256373   6.724   4.924  15.762 -0.5307 -0.0587  1.3881
11628TIP3   OH256374   5.875   0.044   1.934 -0.2039  0.3158 -0.4124
11628TIP3    H156375   5.894   0.079   2.021  1.3691 -0.4466 -0.4204
11628TIP3    H256376   5.780   0.044   1.927 -0.4549 -1.8073  2.2498
11629TIP3   OH256377   2.405   3.666  17.115  0.4720 -0.3735  0.2890
11629TIP3    H156378   2.329   3.674  17.058  0.9894  1.2093 -0.1992
11629TIP3    H256379   2.391   3.585  17.163  0.6493 -2.4322 -2.9962
11630TIP3   OH256380   4.324   5.557  13.300 -0.0168 -0.2090 -0.2518
11630TIP3    H156381   4.254   5.500  13.332  0.8512 -0.9192  0.3968
11630TIP3    H256382   4.316   5.553  13.204 -1.5761  0.6254 -0.1807
11631TIP3   OH256383   5.752   4.701  15.385  0.0877  0.7981  0.3242
11631TIP3    H156384   5.783   4.791  15.372  1.7419  0.1157 -0.6021
11631TIP3    H256385   5.699   4.683  15.307  1.2127  0.3711 -0.3474
11632TIP3   OH256386   4.059   4.166   4.902 -0.4244 -0.2287 -0.1464
11632TIP3    H156387   3.978   4.153   4.853 -0.4786 -0.2722 -0.0472
11632TIP3    H256388   4.104   4.237   4.857 -1.2837  0.8921  0.7550
11633TIP3   OH256389   0.333   4.123  15.861  0.3787  0.3167  0.2010
11633TIP3    H156390   0.274   4.173  15.803 -1.5292 -0.4691  1.4176
11633TIP3    H256391   0.421   4.146  15.831 -0.5242  2.1224 -1.1680
11634TIP3   OH256392   0.719   6.652   4.907  0.0659 -0.1126 -0.2691
11634TIP3    H156393   0.761   6.573   4.874  0.5860  0.6695 -1.5310
11634TIP3    H256394   0.628   6.645   4.878  0.5186  0.5620 -1.8610
11635TIP3   OH256395   2.437   3.201   1.290  0.1942 -0.0847  0.7822
11635TIP3    H156396   2.447   3.184   1.196  0.3283  1.9257  0.3969
11635TIP3    H256397   2.379   3.132   1.321  0.1448 -0.7730 -0.7943
11636TIP3   OH256398   3.266   1.115   3.063  0.3757 -0.1437 -0.3971
11636TIP3    H156399   3.181   1.153   3.044 -0.6708 -2.0580  0.3270
11636TIP3    H256400   3.277   1.124   3.157  1.2648  0.6782 -0.5764
11637TIP3   OH256401   6.077   1.650   2.538 -0.7572  0.1032  0.0737
11637TIP3    H156402   6.147   1.713   2.553 -0.7893  0.2718 -0.4722
11637TIP3    H256403   6.021   1.692   2.473 -1.7612  0.2722  1.0494
11638TIP3   OH256404   0.314   5.613  13.621  0.0641 -0.0013  0.3392
11638TIP3    H156405   0.408   5.616  13.636  0.3917  0.7287 -1.6913
11638TIP3    H256406   0.303   5.543  13.557 -0.4736  1.6281 -1.3870
11639TIP3   OH256407   5.691   0.508   5.820  0.2168 -0.1337 -0.3307
11639TIP3    H156408   5.643   0.573   5.872 -0.3873 -0.1735 -0.8260
11639TIP3    H256409   5.656   0.424   5.850 -0.3511 -0.1450 -0.9985
11640TIP3   OH256410   5.923   3.738  16.526 -0.1246 -0.0907  0.5679
11640TIP3    H156411   5.960   3.796  16.460 -0.9967  0.9319  0.9615
11640TIP3    H256412   5.997   3.718  16.584  0.0637  1.1067  0.7657
11641TIP3   OH256413   5.717   0.692  11.690 -0.5891 -0.6933  0.2154
11641TIP3    H156414   5.682   0.697  11.778 -0.1482  0.4047  0.3390
11641TIP3    H256415   5.812   0.693  11.701 -0.5292 -0.9146 -0.2485
11642TIP3   OH256416   6.638   0.686   3.666  0.1457  0.1190 -0.2656
11642TIP3    H156417   6.671   0.766   3.707  0.6428 -0.5180  0.5793
11642TIP3    H256418   6.618   0.712   3.576 -3.1521  2.1194  0.9618
11643TIP3   OH256419   4.998   4.804   2.140 -0.5952 -0.2979  0.3065
11643TIP3    H156420   5.004   4.890   2.098  0.2949 -0.2245  0.5650
11643TIP3    H256421   4.998   4.823   2.234  0.7765 -0.6386  0.3794
11644TIP3   OH256422   2.550   4.775   1.089 -0.3926 -0.0101 -0.4686
11644TIP3    H156423   2.502   4.710   1.141  0.8348 -0.1447  0.5173
11644TIP3    H256424   2.501   4.780   1.007  0.3007 -3.2575 -1.1766
11645TIP3   OH256425   3.106   5.088  12.238  0.2969  0.0525 -0.1435
11645TIP3    H156426   3.090   5.093  12.332  1.6279 -2.1101  0.2297
11645TIP3    H256427   3.026   5.052  12.201 -0.3184  1.1301  0.1090
11646TIP3   OH256428   0.544   4.966  12.575 -0.2865 -0.2795 -0.4057
11646TIP3    H156429   0.622   5.020  12.593 -0.2152 -0.6465  0.4316
11646TIP3    H256430   0.488   5.022  12.522 -0.0125  0.4628  0.0784
11647TIP3   OH256431   3.178   3.286  14.774 -0.1200 -0.2912  0.1450
11647TIP3    H156432   3.273   3.291  14.771 -0.1679  0.3107 -0.4516
11647TIP3    H256433   3.148   3.372  14.744 -0.8544 -0.6138 -0.0684
11648TIP3   OH256434   6.141   4.773   5.514 -0.1620  0.3917  0.3014
11648TIP3    H156435   6.136   4.869   5.512  0.6497  0.4288 -2.5038
11648TIP3    H256436   6.176   4.752   5.600  2.9708  2.8167 -0.3184
11649TIP3   OH256437   0.519   6.302   3.648  0.3714 -0.0030 -0.4998
11649TIP3    H156438   0.555   6.380   3.691 -0.8903  0.0421  0.5150
11649TIP3    H256439   0.516   6.236   3.717 -0.9462 -0.1726 -0.6918
11650TIP3   OH256440   4.067   3.417  16.447 -0.4138  0.1588 -0.4216
11650TIP3    H156441   4.054   3.459  16.362  0.2399  2.4852  0.5786
11650TIP3    H256442   4.032   3.480  16.510  1.1032 -0.5694  1.1712
11651TIP3   OH256443   5.471   2.298  11.700  0.4783 -0.0098  0.4676
11651TIP3    H156444   5.541   2.241  11.667 -0.1197 -0.7224  0.4091
11651TIP3    H256445   5.390   2.258  11.668  0.0357  0.7676  0.5914
11652TIP3   OH256446   5.418   4.739  11.561  0.2940 -0.2242 -0.3278
11652TIP3    H156447   5.327   4.710  11.547  0.1084 -0.3615  1.0954
11652TIP3    H256448   5.449   4.763  11.474 -1.7435  1.6628 -0.5723
11653TIP3   OH256449   1.017   2.868  15.493  0.0688 -0.2515  0.7382
11653TIP3    H156450   0.982   2.930  15.557  3.3777  0.2858  2.1245
11653TIP3    H256451   1.099   2.908  15.464 -0.0219 -1.8269 -1.7919
11654TIP3   OH256452   2.341   5.277   0.571  0.6208 -0.2642 -0.2009
11654TIP3    H156453   2.362   5.184   0.585 -0.6525 -0.5678 -0.2365
11654TIP3    H256454   2.253   5.276   0.533  0.1366  1.0076  0.8641
11655TIP3   OH256455   5.411   4.066   3.880  0.7531 -0.1489 -0.5169
11655TIP3    H156456   5.396   4.083   3.787 -0.2079 -0.7514 -0.4914
11655TIP3    H256457   5.324   4.072   3.919  0.3500 -4.4625 -0.4411
11656TIP3   OH256458   4.752   1.778   1.349  0.7633  0.2769 -0.5956
11656TIP3    H156459   4.808   1.700   1.345  0.2150 -0.1991  0.6706
11656TIP3    H256460   4.804   1.842   1.398  0.8548  0.4126 -0.8658
11657TIP3   OH256461   1.762   2.394   1.645  0.1092 -0.4390 -0.8156
11657TIP3    H156462   1.771   2.341   1.725  3.3784  1.5047  0.1831
11657TIP3    H256463   1.718   2.474   1.674 -1.6699 -1.0640 -1.6696
11658TIP3   OH256464   2.798   4.677   0.982  0.1436 -0.3835  0.1865
11658TIP3    H156465   2.873   4.698   1.039  0.6959 -1.6599 -0.0456
11658TIP3    H256466   2.721   4.696   1.035  0.6171  2.0297  0.0380
11659TIP3   OH256467   3.342   1.775   5.225 -0.7996  0.1579 -0.2915
11659TIP3    H156468   3.274   1.719   5.186 -1.4192  1.4495 -1.0824
11659TIP3    H256469   3.328   1.861   5.185 -0.0895  0.9775  1.2047
11660TIP3   OH256470   3.841   1.874   3.393 -0.1356  0.4494 -0.4260
11660TIP3    H156471   3.785   1.797   3.379  0.1903 -0.1766  1.4622
11660TIP3    H256472   3.781   1.948   3.386 -0.4167  0.0454 -2.4764
11661TIP3   OH256473   4.586   0.882   2.613 -0.4140 -0.2238 -0.0463
11661TIP3    H156474   4.599   0.794   2.647 -2.2165 -0.6416 -0.3949
11661TIP3    H256475   4.510   0.916   2.661  1.0512  1.6334  1.0106
11662TIP3   OH256476   3.695   0.811   6.153  0.1967  0.0883 -0.6303
11662TIP3    H156477   3.733   0.801   6.240  0.6040 -0.2896 -0.8504
11662TIP3    H256478   3.769   0.834   6.097  0.4723 -2.6447 -1.4426
11663TIP3   OH256479   2.225   0.436   6.363 -0.4064 -0.0263  0.4960
11663TIP3    H156480   2.293   0.453   6.428 -0.2298 -1.0376  0.5909
11663TIP3    H256481   2.241   0.500   6.294  0.3906  0.0086  0.7101
11664TIP3   OH256482   4.500   2.481   1.897  0.1871  0.3488  0.1935
11664TIP3    H156483   4.528   2.417   1.963 -1.1515 -2.9722 -2.3343
11664TIP3    H256484   4.581   2.511   1.857  0.7841 -0.7827  0.5182
11665TIP3   OH256485   2.108   6.144  13.432  0.1384 -0.1307  0.5466
11665TIP3    H156486   2.097   6.052  13.456 -0.4515 -0.2747 -0.2777
11665TIP3    H256487   2.022   6.171  13.400  0.6775  0.3106 -0.5526
11666TIP3   OH256488   0.003   1.758  15.334  0.1796  0.2395  0.2037
11666TIP3    H156489   0.014   1.678  15.384  0.9892  1.2822  1.7304
11666TIP3    H256490  -0.065   1.807  15.381 -0.5907  0.2944 -0.9344
11667TIP3   OH256491   2.678   3.156   4.443 -0.2027  0.4106 -0.7746
11667TIP3    H156492   2.596   3.119   4.477  1.0690 -2.0680 -0.2545
11667TIP3    H256493   2.731   3.171   4.521  0.1704  1.1553 -1.1713
11668TIP3   OH256494   0.261   1.223   4.451  0.5147  0.1525  0.3914
11668TIP3    H156495   0.185   1.170   4.429  0.8424  0.6726 -2.0814
11668TIP3    H256496   0.226   1.294   4.505 -0.6644  0.0770 -0.2649
11669TIP3   OH256497   3.312   3.792  15.904  0.0673 -0.1710  0.2985
11669TIP3    H156498   3.384   3.756  15.956  0.8363 -1.5651 -1.6681
11669TIP3    H256499   3.268   3.716  15.867  1.7503  0.7838 -3.9712
11670TIP3   OH256500   1.923   3.150  15.998  0.7539 -0.5147 -0.5629
11670TIP3    H156501   1.916   3.055  15.984  0.0649 -0.4459 -0.7162
11670TIP3    H256502   1.935   3.186  15.910 -1.1610 -0.2835 -0.7539
11671TIP3   OH256503   3.586   6.339  12.151  0.3897  0.0063  0.3903
11671TIP3    H156504   3.638   6.327  12.071  0.9086  1.1987  0.5225
11671TIP3    H256505   3.553   6.429  12.144 -0.3594 -0.2151  1.0571
11672TIP3   OH256506   3.439   5.243   0.884  0.5481 -0.1379 -0.0551
11672TIP3    H156507   3.453   5.234   0.790  1.1812  3.7285 -0.4166
11672TIP3    H256508   3.357   5.293   0.891  1.6920  1.6185  1.3052
11673TIP3   OH256509   6.677   1.835   4.121 -0.0476  0.1527 -0.5965
11673TIP3    H156510   6.603   1.779   4.099  0.4641 -0.5889 -0.4280
11673TIP3    H256511   6.729   1.784   4.183 -0.2700  1.3288  0.5697
11674TIP3   OH256512   3.405   6.465  15.028  0.6230 -0.0885  0.1560
11674TIP3    H156513   3.337   6.405  14.998  0.9831 -0.1191 -0.6054
11674TIP3    H256514   3.480   6.408  15.047  1.3760  0.2246 -1.7418
11675TIP3   OH256515   0.270   5.568  15.198  0.3483 -0.0110  0.1809
11675TIP3    H156516   0.350   5.617  15.217  0.6589  0.3202 -1.9324
11675TIP3    H256517   0.202   5.635  15.187  0.1156 -0.2219  0.3179
11676TIP3   OH256518   2.866   4.152   4.872 -0.3070 -0.4556  0.2718
11676TIP3    H156519   2.821   4.087   4.819 -0.1023 -0.4525  0.0958
11676TIP3    H256520   2.797   4.193   4.923 -0.6366  0.2638 -0.7506
11677TIP3   OH256521   6.039   1.367  12.340  0.2237 -0.7801 -0.1127
11677TIP3    H156522   6.105   1.426  12.376 -2.4796  2.1804  0.2337
11677TIP3    H256523   5.988   1.339  12.417 -1.6668  0.5609 -0.8413
11678TIP3   OH256524   6.469   3.199   2.894 -0.0132  0.0592 -0.3292
11678TIP3    H156525   6.479   3.258   2.969  1.3367  0.8479 -1.0965
11678TIP3    H256526   6.385   3.224   2.855 -1.0233 -0.7865  1.2631
11679TIP3   OH256527   3.264   4.601  12.500 -0.8242  0.2639  0.2173
11679TIP3    H156528   3.215   4.527  12.465 -0.2968 -0.4474  0.9639
11679TIP3    H256529   3.344   4.604  12.448 -1.5879  1.3585 -0.9263
11680TIP3   OH256530   2.332   5.755  14.652 -0.2264 -0.5930 -0.0238
11680TIP3    H156531   2.254   5.805  14.676 -0.3889 -1.2072  0.7308
11680TIP3    H256532   2.395   5.822  14.623 -1.2803 -0.1542 -1.3354
11681TIP3   OH256533   3.407   1.112  12.768  0.5414  0.4411  0.3644
11681TIP3    H156534   3.335   1.170  12.796  0.0792 -0.2564  0.6357
11681TIP3    H256535   3.384   1.027  12.805 -0.3835 -0.6527 -2.6083
11682TIP3   OH256536   3.230   5.367  16.587 -0.4362 -0.2320 -0.2489
11682TIP3    H156537   3.227   5.426  16.511  0.5813  1.0269  0.6621
11682TIP3    H256538   3.141   5.370  16.622  0.2701  3.0770  1.4722
11683TIP3   OH256539   2.416   6.342   5.692 -0.2817 -0.0720  0.2846
11683TIP3    H156540   2.385   6.432   5.685  0.0410  0.0412  0.3272
11683TIP3    H256541   2.340   6.293   5.723 -0.4875  0.1656  0.1572
11684TIP3   OH256542   6.449   4.208  11.438 -0.3767 -0.6083  0.3304
11684TIP3    H156543   6.486   4.124  11.411 -0.9601 -0.5185 -0.8064
11684TIP3    H256544   6.401   4.239  11.361  0.8135  1.3366  0.3312
11685TIP3   OH256545   1.204   0.256   0.654 -0.7787 -0.1556  0.1183
11685TIP3    H156546   1.152   0.319   0.605 -0.6508 -0.6284 -0.6429
11685TIP3    H256547   1.140   0.210   0.709 -0.7402  1.2633  1.3890
11686TIP3   OH256548   4.839   0.745  15.330 -0.5497 -0.2651  0.4608
11686TIP3    H156549   4.818   0.831  15.364 -1.8203 -0.7393  0.9085
11686TIP3    H256550   4.901   0.761  15.259  0.1411  0.9170  1.3092
11687TIP3   OH256551   5.822   2.146  15.197  0.4416 -0.2904 -0.5986
11687TIP3    H156552   5.801   2.181  15.283  0.1964  2.3632 -1.7013
11687TIP3    H256553   5.911   2.111  15.207  0.6864  0.6281  0.5522
11688TIP3   OH256554   0.749   0.931   6.312 -0.1054  0.2907  0.0587
11688TIP3    H156555   0.827   0.983   6.294 -0.4439  0.9138  0.3607
11688TIP3    H256556   0.683   0.965   6.251 -0.2750  0.0876  0.1281
11689TIP3   OH256557   0.951   0.288  13.811  0.3535 -0.3010 -0.3521
11689TIP3    H156558   0.879   0.253  13.760  0.4813  0.8463 -1.3345
11689TIP3    H256559   1.029   0.243  13.778  0.0933 -1.5772  0.7462
11690TIP3   OH256560   5.942   1.327   2.255 -0.0772 -0.0044 -0.0039
11690TIP3    H156561   5.963   1.368   2.171  1.4977  0.1333  0.4432
11690TIP3    H256562   5.981   1.384   2.321  0.9197 -1.4465  0.6906
11691TIP3   OH256563   3.075   6.747   0.234  0.2725  0.4189  0.2442
11691TIP3    H156564   3.107   6.834   0.209 -0.4427  0.3210 -1.0791
11691TIP3    H256565   2.988   6.742   0.195 -0.6403 -0.0037  2.3068
11692TIP3   OH256566   0.984   3.308  14.050  0.1635  0.0143 -0.2617
11692TIP3    H156567   1.020   3.313  13.961  1.4696 -0.9925  0.1985
11692TIP3    H256568   0.968   3.215  14.064 -2.6666  0.4414 -0.4498
11693TIP3   OH256569   5.891   6.313  16.103  0.7758 -0.5121  0.1133
11693TIP3    H156570   5.954   6.329  16.033  0.7508  1.5925  0.5455
11693TIP3    H256571   5.859   6.224  16.086  0.5248  0.0520 -2.7358
11694TIP3   OH256572   0.272   4.803   4.907  0.8493  0.4935  0.2044
11694TIP3    H156573   0.193   4.816   4.960  1.5150  1.9995  0.8630
11694TIP3    H256574   0.338   4.859   4.948  2.0461 -0.1272 -0.8216
11695TIP3   OH256575   4.716   1.039   3.259 -0.3734  0.5572 -0.1288
11695TIP3    H156576   4.667   0.970   3.304  0.1247  0.4804  0.3040
11695TIP3    H256577   4.686   1.120   3.301  1.4466  0.3553  1.6673
11696TIP3   OH256578   4.623   1.301   6.366  0.1625  0.6546 -0.2909
11696TIP3    H156579   4.534   1.334   6.382  0.3653  0.2139  1.9214
11696TIP3    H256580   4.646   1.255   6.447  1.7537 -0.7267 -1.5043
11697TIP3   OH256581   2.247   3.548   3.687 -0.1595 -0.9253  0.1631
11697TIP3    H156582   2.317   3.506   3.637 -1.2725 -0.8173 -1.5064
11697TIP3    H256583   2.292   3.613   3.741  0.9658 -0.4189 -1.3618
11698TIP3   OH256584   3.768   6.720  14.658  0.1510  0.1053 -0.3984
11698TIP3    H156585   3.682   6.678  14.656  0.0654  0.1691  1.1866
11698TIP3    H256586   3.792   6.731  14.566 -0.4556 -2.1278 -0.8437
11699TIP3   OH256587   1.368   5.480  16.998 -0.6463  0.4207 -0.0062
11699TIP3    H156588   1.390   5.501  16.907 -0.2081  1.3036  0.2990
11699TIP3    H256589   1.292   5.533  17.017 -0.1415  0.9838  0.4559
11700TIP3   OH256590   2.076   3.377  13.597 -0.2317  0.4049  0.0579
11700TIP3    H156591   2.170   3.363  13.604  0.1058  0.4658 -3.3633
11700TIP3    H256592   2.064   3.470  13.616  0.5377  0.6211 -0.5102
11701TIP3   OH256593   6.497   0.185  11.948 -1.3504 -0.3721 -0.8677
11701TIP3    H156594   6.473   0.253  12.012  0.4524 -0.1279 -0.4384
11701TIP3    H256595   6.453   0.106  11.980 -1.9032  0.1456 -0.3154
11702TIP3   OH256596   5.071   3.412  13.820 -0.1993  0.0072 -0.2456
11702TIP3    H156597   5.016   3.466  13.877 -0.7667 -1.3904  0.5624
11702TIP3    H256598   5.158   3.418  13.858 -0.4040 -0.2148  0.2680
11703TIP3   OH256599   0.936   4.157   6.603 -0.0829 -0.2364 -0.1413
11703TIP3    H156600   0.986   4.093   6.553  0.2793 -0.6766  0.7793
11703TIP3    H256601   0.847   4.122   6.605 -0.6270  0.8664 -2.3372
11704TIP3   OH256602   6.540   0.876   4.793  0.8589  0.5511  0.1430
11704TIP3    H156603   6.524   0.950   4.850  2.5625  0.1117  1.2306
11704TIP3    H256604   6.559   0.803   4.852  1.4437 -0.2028 -0.9478
11705TIP3   OH256605   2.329   5.943  14.363 -0.1299  0.1079  0.7785
11705TIP3    H156606   2.276   5.864  14.348 -2.5859  2.0644 -1.2379
11705TIP3    H256607   2.395   5.941  14.294 -0.0967 -0.2606  0.8195
11706TIP3   OH256608   4.609   1.716  14.700  0.5593 -0.1722 -0.1478
11706TIP3    H156609   4.579   1.631  14.732 -0.5566 -0.4578 -1.9249
11706TIP3    H256610   4.701   1.701  14.677  0.2955 -0.9838 -0.7189
11707TIP3   OH256611   5.639   0.127   3.301  0.4739  0.2836  0.1612
11707TIP3    H156612   5.617   0.151   3.391  0.9054 -0.9265  0.6012
11707TIP3    H256613   5.690   0.202   3.268  3.3671 -0.7331  2.1195
11708TIP3   OH256614   3.962   3.494   1.431  0.1712 -0.5271  0.5347
11708TIP3    H156615   3.962   3.463   1.340  0.0098 -0.9147  0.6669
11708TIP3    H256616   3.893   3.444   1.473 -0.2580  0.1851  0.6951
11709TIP3   OH256617   2.547   2.424   0.845  0.4004 -0.3086 -0.2970
11709TIP3    H156618   2.555   2.381   0.930 -0.9779 -0.8116 -0.4116
11709TIP3    H256619   2.562   2.354   0.781 -0.5946 -0.3669 -0.4735
11710TIP3   OH256620   5.673   6.516   6.133  0.4264 -0.1890  0.1370
11710TIP3    H156621   5.693   6.591   6.189  2.4327 -0.0169 -0.7570
11710TIP3    H256622   5.577   6.512   6.132  0.3161  1.5125  1.3110
11711TIP3   OH256623   3.273   6.149   1.754 -0.4903  0.3075 -0.5214
11711TIP3    H156624   3.292   6.132   1.662 -1.1141  1.3649 -0.8541
11711TIP3    H256625   3.268   6.062   1.794 -0.7495 -0.1737 -1.5879
11712TIP3   OH256626   0.435   6.719   4.282  0.5830  0.4814 -0.4546
11712TIP3    H156627   0.419   6.719   4.188 -0.0978 -0.3978 -0.3433
11712TIP3    H256628   0.359   6.674   4.320  0.2526  1.9256  0.6237
11713TIP3   OH256629   5.828   5.972  16.436 -0.2396 -0.2655 -0.0721
11713TIP3    H156630   5.866   6.051  16.397  0.1376 -0.6782 -0.5355
11713TIP3    H256631   5.805   5.917  16.361  1.2710 -1.4274  0.3028
11714TIP3   OH256632   1.644   2.354  13.287  0.2047  0.4988  0.0211
11714TIP3    H156633   1.684   2.427  13.334  2.3254 -0.9686  0.5361
11714TIP3    H256634   1.707   2.332  13.218 -0.2271 -1.1099  0.1211
11715TIP3   OH256635   5.053   5.213  14.536  0.8457  0.6215  0.7589
11715TIP3    H156636   5.131   5.237  14.586  1.5993 -1.5258  0.6752
11715TIP3    H256637   5.086   5.199  14.447  0.0316  1.5476  0.3083
11716TIP3   OH256638   0.274   2.563  10.466  0.0723  0.4609  0.4090
11716TIP3    H156639   0.218   2.533  10.394  1.0772  0.8188 -0.5171
11716TIP3    H256640   0.248   2.507  10.540 -1.3350  0.4503 -0.0744
11717TIP3   OH256641   0.834   3.135  12.908  0.1602  0.1691  0.3925
11717TIP3    H156642   0.904   3.085  12.866 -1.2921  0.5134 -2.5579
11717TIP3    H256643   0.798   3.076  12.974 -0.8563 -2.3571 -2.3177
11718TIP3   OH256644   4.396   2.101   1.277  0.3814  0.0049  0.5512
11718TIP3    H156645   4.418   2.054   1.358  0.4861 -0.4818  0.2404
11718TIP3    H256646   4.478   2.143   1.251  0.6197 -0.7380  0.1023
11719TIP3   OH256647   4.093   0.174  15.342  0.4488 -0.3923  0.4562
11719TIP3    H156648   4.131   0.251  15.386 -1.4857  0.7902  0.1203
11719TIP3    H256649   4.043   0.211  15.269  0.8569 -2.1131 -0.7093
11720TIP3   OH256650   4.997   4.956  14.460  0.2489  0.4827  0.2268
11720TIP3    H156651   5.004   5.041  14.502  1.6380  1.4731 -1.8807
11720TIP3    H256652   5.018   4.893  14.529 -1.4887  1.7873  1.9884
11721TIP3   OH256653   5.088   4.731  12.893  0.3599  0.1690  0.4689
11721TIP3    H156654   5.073   4.762  12.804  1.3653 -0.2451  0.1401
11721TIP3    H256655   5.066   4.805  12.949 -3.5233 -0.6168  0.1083
11722TIP3   OH256656   6.207   0.296   0.498 -0.1006 -0.5356  0.6316
11722TIP3    H156657   6.287   0.340   0.470 -0.7117  0.4052  0.3444
11722TIP3    H256658   6.176   0.347   0.573 -0.7676 -0.5267  0.3550
11723TIP3   OH256659   0.417   5.181  12.804  0.7935 -0.2020 -0.3417
11723TIP3    H156660   0.503   5.158  12.769  1.1167 -2.0084  1.5139
11723TIP3    H256661   0.437   5.232  12.883  0.1379  0.1229 -0.3803
11724TIP3   OH256662   1.983   3.756  12.915  0.3316  0.7191 -0.1143
11724TIP3    H156663   2.059   3.731  12.862 -0.2080 -0.2316 -0.4609
11724TIP3    H256664   1.909   3.713  12.871 -0.1133 -0.1385  1.4366
11725TIP3   OH256665   5.226   1.184  15.533 -0.0117 -0.2931  0.3295
11725TIP3    H156666   5.198   1.099  15.499 -0.2218  0.3677 -1.1805
11725TIP3    H256667   5.298   1.163  15.594 -1.5948 -1.7120  1.7541
11726TIP3   OH256668   6.185   3.628  11.697 -0.4375 -0.3163  0.4303
11726TIP3    H156669   6.175   3.631  11.793 -0.8299 -1.6492  0.4443
11726TIP3    H256670   6.215   3.539  11.679 -1.1569 -0.3284 -0.7630
11727TIP3   OH256671   1.367   3.824  15.165 -0.6811 -0.3182 -0.3527
11727TIP3    H156672   1.341   3.795  15.077 -2.2434  1.2785 -0.4598
11727TIP3    H256673   1.460   3.841  15.158 -0.4504 -1.8759 -1.2291
11728TIP3   OH256674   2.280   5.001  12.235 -0.2235 -0.3152 -0.1975
11728TIP3    H156675   2.267   5.089  12.200  0.3980 -1.1157 -2.4826
11728TIP3    H256676   2.276   5.012  12.330 -1.6067  1.9429 -0.4945
11729TIP3   OH256677   1.827   3.217  16.505  0.4224  0.2695  0.2276
11729TIP3    H156678   1.751   3.224  16.563 -0.8320  2.3369 -1.6101
11729TIP3    H256679   1.901   3.203  16.564 -1.3985 -2.1211  2.0376
11730TIP3   OH256680   6.201   2.218   2.340  0.3292  0.4238 -0.4818
11730TIP3    H156681   6.203   2.124   2.322  1.0715  0.8440 -2.7106
11730TIP3    H256682   6.290   2.239   2.368 -0.1819  0.2296  1.3208
11731TIP3   OH256683   0.996   0.326   1.901  0.3839 -0.5569 -0.0008
11731TIP3    H156684   1.022   0.355   1.814  1.4922 -0.8019  0.2463
11731TIP3    H256685   0.904   0.352   1.908  0.5580  0.3226 -0.8749
11732TIP3   OH256686   6.415   0.965   2.833  0.2929 -0.1432 -0.4937
11732TIP3    H156687   6.389   0.930   2.747  0.4113 -0.2037 -0.5057
11732TIP3    H256688   6.334   0.998   2.871  0.1749 -0.4694 -0.4643
11733TIP3   OH256689   1.553   5.921   5.364  0.1087  0.2170 -0.2077
11733TIP3    H156690   1.619   5.916   5.433 -0.1839  0.7868  0.1154
11733TIP3    H256691   1.491   5.987   5.395 -0.8445 -0.6289 -0.3135
11734TIP3   OH256692   3.970   0.842  13.510 -0.5425  0.6220  0.4884
11734TIP3    H156693   4.034   0.783  13.549 -1.2464 -0.8397 -0.5279
11734TIP3    H256694   3.933   0.891  13.583 -0.8072 -1.0512  1.4852
11735TIP3   OH256695   0.673   4.513  16.274  0.0942 -0.3288 -0.1099
11735TIP3    H156696   0.747   4.482  16.222 -0.5212 -1.1574 -0.4892
11735TIP3    H256697   0.673   4.457  16.351  1.0116  0.9053  0.8133
11736TIP3   OH256698   5.874   6.477   0.687  0.0601  0.2469  0.2961
11736TIP3    H156699   5.904   6.395   0.725  1.6204  0.6887  0.0763
11736TIP3    H256700   5.940   6.498   0.621  0.0220  2.0035  0.7850
11737TIP3   OH256701   3.178   1.548  13.354  0.3857  0.2427  0.2611
11737TIP3    H156702   3.254   1.532  13.410  0.1171 -1.3077  0.2106
11737TIP3    H256703   3.104   1.510  13.402 -0.0938  0.2551 -0.4529
11738TIP3   OH256704   1.112   3.885   3.687 -0.1760  0.3726  0.1626
11738TIP3    H156705   1.149   3.935   3.760  0.6096  2.1190 -1.3948
11738TIP3    H256706   1.030   3.929   3.667 -1.4200 -1.3473  1.2812
11739TIP3   OH256707   0.734   3.531   4.031  0.1677 -0.1245 -0.1296
11739TIP3    H156708   0.745   3.531   4.126  1.6135 -1.0554 -0.2901
11739TIP3    H256709   0.820   3.510   3.997 -0.8305 -1.9038 -1.5996
11740TIP3   OH256710   1.466   5.551  13.624 -0.2534  0.3214  0.0952
11740TIP3    H156711   1.380   5.593  13.620 -0.4437  0.2452  2.8442
11740TIP3    H256712   1.528   5.625  13.626 -0.4456  0.4577  1.7606
11741TIP3   OH256713   2.103   5.705  16.542  0.2147 -0.1840  0.0917
11741TIP3    H156714   2.196   5.693  16.562  0.2736 -0.4544 -0.3238
11741TIP3    H256715   2.084   5.795  16.567  0.2113 -0.6059  1.6373
11742TIP3   OH256716   3.789   3.497  14.063 -0.1895  0.6486  0.0134
11742TIP3    H156717   3.797   3.574  14.119  0.9203  0.2445  0.4231
11742TIP3    H256718   3.814   3.423  14.120  0.4941  0.1855 -0.8682
11743TIP3   OH256719   5.578   3.765  14.975 -0.1232 -0.1198 -0.2481
11743TIP3    H156720   5.575   3.845  14.921  0.1963 -0.5984 -0.9833
11743TIP3    H256721   5.660   3.772  15.023 -0.8106  0.7176  0.8192
11744TIP3   OH256722   5.387   1.216  14.400 -0.0960 -0.2041 -0.1926
11744TIP3    H156723   5.326   1.176  14.462  0.9020  2.4025  2.5461
11744TIP3    H256724   5.336   1.224  14.319 -2.4143 -0.8551  1.1507
11745TIP3   OH256725   6.164   1.131   1.561  0.0191 -0.0442 -1.1673
11745TIP3    H156726   6.161   1.226   1.572 -0.7471 -0.2022  0.1368
11745TIP3    H256727   6.256   1.108   1.575 -0.1891  0.2630  0.7860
11746TIP3   OH256728   5.833   1.864  13.967 -0.0176  0.2423  0.3547
11746TIP3    H156729   5.853   1.900  14.054 -1.1075 -0.3725  0.8796
11746TIP3    H256730   5.899   1.902  13.909  0.5315  0.9080  1.3972
11747TIP3   OH256731   2.551   2.422   2.827 -0.0928  0.4203  0.5074
11747TIP3    H156732   2.615   2.399   2.894 -1.0290 -0.2563  1.1791
11747TIP3    H256733   2.500   2.493   2.865 -0.1201  0.5658  0.2021
11748TIP3   OH256734   0.630   6.361  10.826 -0.8224  0.4105 -0.3538
11748TIP3    H156735   0.637   6.416  10.904  0.1657  0.8658 -0.7589
11748TIP3    H256736   0.566   6.404  10.771 -1.3287  0.2284  0.0850
11749TIP3   OH256737   4.644   2.534   4.386  0.2081  0.4895 -0.2682
11749TIP3    H156738   4.593   2.490   4.454  0.7417 -0.1224 -0.2525
11749TIP3    H256739   4.649   2.470   4.315 -0.1649  1.0469 -0.7975
11750TIP3   OH256740   2.937   0.625   2.900  0.0698 -0.2209  0.0549
11750TIP3    H156741   2.860   0.629   2.956  0.6311 -0.9757  0.8898
11750TIP3    H256742   2.908   0.578   2.822 -0.2412 -0.7514  0.4881
11751TIP3   OH256743   4.970   3.396   2.098 -0.3141 -0.1014 -0.3293
11751TIP3    H156744   4.959   3.352   2.183  3.3296 -0.4322  0.0890
11751TIP3    H256745   4.937   3.333   2.034 -0.2998 -1.1286  0.6530
11752TIP3   OH256746   5.315   5.145  13.545 -0.6039 -0.0998 -0.1823
11752TIP3    H156747   5.347   5.156  13.634  0.4128 -1.8828 -0.2958
11752TIP3    H256748   5.276   5.229  13.522  3.4653  2.0023  0.2056
11753TIP3   OH256749   1.156   0.218  17.133  0.1748  0.3131  0.5398
11753TIP3    H156750   1.185   0.300  17.174 -0.6838  1.9890 -2.0480
11753TIP3    H256751   1.193   0.221  17.044 -1.1856 -1.3368 -0.1081
11754TIP3   OH256752   3.982   0.888  12.977 -0.1552  0.1294 -0.1899
11754TIP3    H156753   4.063   0.887  13.028 -1.2465 -0.6455  1.5736
11754TIP3    H256754   3.935   0.966  13.009 -1.3438 -0.9851  0.8254
11755TIP3   OH256755   3.062   5.817   0.921  0.1352  0.4641 -0.1706
11755TIP3    H156756   3.044   5.791   1.011 -1.6117  2.4424  0.0759
11755TIP3    H256757   2.990   5.876   0.897  0.6881  0.1663 -2.7792
11756TIP3   OH256758   2.908   2.368   5.959  0.1174 -0.2679 -0.1602
11756TIP3    H156759   3.001   2.387   5.968  0.2489 -0.4849 -1.0717
11756TIP3    H256760   2.897   2.341   5.868 -0.8683 -0.0629 -0.1086
11757TIP3   OH256761   3.954   6.458  12.742  0.4405 -0.3974  0.3643
11757TIP3    H156762   4.047   6.460  12.764  0.0577 -0.7448  2.1461
11757TIP3    H256763   3.935   6.547  12.712  0.9242  0.2657  1.9510
11758TIP3   OH256764   2.047   0.349   0.976 -0.5800  0.7627  0.3302
11758TIP3    H156765   1.967   0.401   0.973 -1.2314 -0.2106  0.5824
11758TIP3    H256766   2.047   0.310   1.064 -0.5171 -0.2900 -0.1202
11759TIP3   OH256767   5.478   1.986  16.845 -1.0524  0.3949  0.3140
11759TIP3    H156768   5.533   1.933  16.903  0.6782  0.4749 -1.2135
11759TIP3    H256769   5.442   1.924  16.782  0.9490  0.9795 -1.4554
11760TIP3   OH256770   5.340   3.676  15.530 -0.1520 -0.0008 -0.0893
11760TIP3    H156771   5.333   3.580  15.529 -1.4743  0.0605  1.7548
11760TIP3    H256772   5.325   3.701  15.439 -2.5329 -1.3866 -0.1193
11761TIP3   OH256773   4.818   5.400  11.674  0.4638 -0.3038 -0.1207
11761TIP3    H156774   4.801   5.313  11.708 -0.3750 -1.0614 -2.3516
11761TIP3    H256775   4.909   5.397  11.644  1.0654  0.2299  1.6064
11762TIP3   OH256776   0.205   6.201   3.777  0.4948 -0.3488 -0.1705
11762TIP3    H156777   0.122   6.224   3.818  0.6868  0.8851 -0.4470
11762TIP3    H256778   0.244   6.137   3.836 -0.4481 -0.6160  0.1830
11763TIP3   OH256779   0.706   3.027   4.468  0.1200 -0.0959  0.2582
11763TIP3    H156780   0.749   2.967   4.529  0.8236 -0.2573 -0.3770
11763TIP3    H256781   0.702   3.110   4.515 -2.2607 -1.0030  1.7259
11764TIP3   OH256782   3.309   4.456  11.602 -0.4283  0.2348  0.5169
11764TIP3    H156783   3.327   4.367  11.572  0.4225 -0.3263  2.5579
11764TIP3    H256784   3.267   4.444  11.687  0.2934  1.7909  1.1047
11765TIP3   OH256785   6.383   2.528  15.639 -0.4683 -0.4414 -0.9468
11765TIP3    H156786   6.402   2.497  15.728  2.2246  1.2891 -0.8689
11765TIP3    H256787   6.287   2.532  15.635 -0.6232  0.9296  2.4042
11766TIP3   OH256788   1.178   1.425   5.013 -0.4311  0.3273  0.2903
11766TIP3    H156789   1.208   1.470   5.092  0.6644  0.4563 -0.1870
11766TIP3    H256790   1.213   1.477   4.941 -0.9554 -0.1024 -0.2798
11767TIP3   OH256791   1.368   0.897   5.062  0.2796 -0.7567 -0.3430
11767TIP3    H156792   1.382   0.827   4.998  0.4992 -0.4456 -0.6394
11767TIP3    H256793   1.456   0.918   5.093  0.4678  0.8885 -1.8691
11768TIP3   OH256794   5.011   0.971  15.619  0.0509  0.6289 -0.6130
11768TIP3    H156795   4.966   1.049  15.653 -0.0100  0.1660  0.3933
11768TIP3    H256796   5.084   0.958  15.680  0.5476  0.3848 -1.2622
11769TIP3   OH256797   5.506   6.433   2.126 -0.1709 -0.1929 -0.0275
11769TIP3    H156798   5.411   6.417   2.128 -0.1389 -0.1553  1.8786
11769TIP3    H256799   5.530   6.452   2.216  1.5364  0.5880 -0.6218
11770TIP3   OH256800   0.511   2.057   3.422  0.6467 -0.1211 -0.0895
11770TIP3    H156801   0.421   2.075   3.395  0.7456 -0.5993 -0.7420
11770TIP3    H256802   0.558   2.140   3.407  0.7110 -0.3990 -1.4224
11771TIP3   OH256803   6.195   6.010   0.814 -0.5532 -0.2866  0.4566
11771TIP3    H156804   6.195   6.095   0.771 -0.3689 -0.4643  0.1032
11771TIP3    H256805   6.283   6.000   0.848 -0.4185 -0.5647  0.0364
11772TIP3   OH256806   6.289   6.703   6.497  0.2286 -0.0466 -0.0220
11772TIP3    H156807   6.352   6.642   6.535  0.6067  0.2642 -0.1578
11772TIP3    H256808   6.338   6.784   6.483  0.3955 -0.4865 -2.2145
11773TIP3   OH256809   6.149   0.533   4.479  0.2119 -0.2917 -0.0322
11773TIP3    H156810   6.219   0.471   4.498  0.2964 -0.1806  0.0145
11773TIP3    H256811   6.069   0.481   4.484  0.2133 -0.2109  0.8657
11774TIP3   OH256812   4.317   4.850   1.402 -0.0999 -0.3576  0.0141
11774TIP3    H156813   4.392   4.908   1.387 -1.4558  1.7281  1.0325
11774TIP3    H256814   4.348   4.785   1.464  0.7322  0.8268  0.8586
11775TIP3   OH256815   6.407   1.251   2.500 -0.8956  0.7040  0.7320
11775TIP3    H156816   6.365   1.185   2.444 -0.2491  0.1900  0.8566
11775TIP3    H256817   6.334   1.292   2.547 -1.1326 -1.3109  2.1812
11776TIP3   OH256818   0.204   5.744   4.748 -0.0614  0.3840  0.4305
11776TIP3    H156819   0.187   5.789   4.831  0.0267  0.2975  0.4946
11776TIP3    H256820   0.291   5.774   4.722  0.3230 -0.3459  0.8581
11777TIP3   OH256821   3.960   1.065  14.256  0.4784 -0.0034 -0.0521
11777TIP3    H156822   4.039   1.013  14.269  0.6344  0.3324  0.3429
11777TIP3    H256823   3.894   1.021  14.310  1.4476  2.1487  3.0626
11778TIP3   OH256824   0.121   1.307   1.570  0.5179  0.4908 -0.7831
11778TIP3    H156825   0.159   1.377   1.623  1.0605  0.2459 -0.8492
11778TIP3    H256826   0.042   1.346   1.533 -0.5617  0.2880  1.2108
11779TIP3   OH256827   5.887   4.293  15.501 -0.0587 -0.3534 -0.1752
11779TIP3    H156828   5.809   4.275  15.449 -1.1938 -1.7443  1.8915
11779TIP3    H256829   5.892   4.219  15.562  1.9438  0.5552  0.8178
11780TIP3   OH256830   1.316   4.948   3.020  0.0994  0.1019  0.4002
11780TIP3    H156831   1.324   4.862   2.978 -0.6264  0.3682 -0.2976
11780TIP3    H256832   1.222   4.964   3.024  0.1987  0.5261  1.2429
11781TIP3   OH256833   6.144   5.501   0.042  0.1688  0.2329  0.1176
11781TIP3    H156834   6.237   5.495   0.064 -0.0372 -1.0283  0.7279
11781TIP3    H256835   6.137   5.577  -0.016  1.4140  0.9679  0.9089
11782TIP3   OH256836   6.508   5.133   2.570  0.0137  0.0900 -0.0309
11782TIP3    H156837   6.542   5.222   2.554  2.5916 -0.9395 -0.4892
11782TIP3    H256838   6.482   5.102   2.484 -0.5427  0.2499  0.0770
11783TIP3   OH256839   5.841   0.811   1.656 -0.3172 -0.2837 -0.4199
11783TIP3    H156840   5.885   0.821   1.740 -0.8904 -2.3902  0.1538
11783TIP3    H256841   5.903   0.847   1.592 -0.2785  2.2002  0.9696
11784TIP3   OH256842   0.538   4.763   2.506  0.0697  0.3150 -0.3880
11784TIP3    H156843   0.619   4.713   2.493 -0.3107 -0.7437  1.1980
11784TIP3    H256844   0.468   4.700   2.491 -0.4402  0.7735  0.0397
11785TIP3   OH256845   6.619   6.164   2.204  0.0658 -0.4722  0.6190
11785TIP3    H156846   6.701   6.201   2.237  0.2201 -1.6192  1.5631
11785TIP3    H256847   6.553   6.190   2.268  0.0960 -1.4154  1.0493
11786TIP3   OH256848   2.494   5.943  16.715 -0.2231 -0.6364  0.2152
11786TIP3    H156849   2.530   5.986  16.637  0.9000 -2.4692 -0.2972
11786TIP3    H256850   2.541   5.983  16.788  1.0447 -1.1872 -0.2828
11787TIP3   OH256851   5.122   4.412  12.405  0.2675 -0.3961 -0.6002
11787TIP3    H156852   5.045   4.361  12.432  1.4251 -1.1976  1.3627
11787TIP3    H256853   5.124   4.486  12.466  0.4615  0.1985 -1.3239
11788TIP3   OH256854   2.612   5.720  16.438 -0.1833 -0.3171  0.2979
11788TIP3    H156855   2.677   5.669  16.487  0.5349  0.3313  0.0391
11788TIP3    H256856   2.608   5.678  16.353  0.1069 -0.1892  0.2184
11789TIP3   OH256857   2.662   3.070   3.526 -0.2832 -0.0749  0.0379
11789TIP3    H156858   2.625   3.119   3.453 -1.4302  1.7897  1.8136
11789TIP3    H256859   2.588   3.024   3.564 -0.2700  1.2938  1.7869
11790TIP3   OH256860   6.277   4.075   5.911 -0.1289 -0.1296  0.1132
11790TIP3    H156861   6.313   4.087   5.999 -2.0701  0.0500  0.9300
11790TIP3    H256862   6.290   4.159   5.868 -1.6426  0.7099  1.2134
11791TIP3   OH256863   5.477   2.826   5.340 -0.3274  0.4010  0.1188
11791TIP3    H156864   5.487   2.908   5.293  0.2337  0.3256  0.1071
11791TIP3    H256865   5.497   2.848   5.431 -0.4245  0.3275  0.1583
11792TIP3   OH256866   6.355   2.226   0.655  0.4550  0.1841  0.6923
11792TIP3    H156867   6.402   2.301   0.618  1.6634 -0.9129 -0.0565
11792TIP3    H256868   6.275   2.221   0.603  0.9891  0.1505 -0.1359
11793TIP3   OH256869   4.873   1.881  11.314 -0.3946  0.3964  0.1539
11793TIP3    H156870   4.783   1.915  11.317 -0.7768 -0.6125  0.1108
11793TIP3    H256871   4.880   1.836  11.230 -0.4199 -1.0637  0.9125
11794TIP3   OH256872   1.607   4.709  11.380  0.8312  0.1538  0.1617
11794TIP3    H156873   1.627   4.700  11.286  2.2579  0.5395  0.4087
11794TIP3    H256874   1.512   4.717  11.384  0.7516  0.0575 -1.2504
11795TIP3   OH256875   2.074   4.673   2.616 -0.0660 -0.2992 -0.7107
11795TIP3    H156876   2.167   4.680   2.641 -0.6897  0.5065  1.5009
11795TIP3    H256877   2.063   4.741   2.549  1.2047 -1.2224 -1.8949
11796TIP3   OH256878   3.655   0.448  14.575  0.6415 -0.3872 -0.6934
11796TIP3    H156879   3.626   0.367  14.534 -0.5062  0.2263 -1.1235
11796TIP3    H256880   3.573   0.493  14.598  1.2585 -0.3796  1.5922
11797TIP3   OH256881   4.519   0.629  15.051  0.5905 -0.1901  0.1672
11797TIP3    H156882   4.447   0.595  15.105 -0.8507 -1.4027 -2.4240
11797TIP3    H256883   4.564   0.550  15.019  2.3053  0.5447  0.6926
11798TIP3   OH256884   3.003   5.326   2.924 -0.3830  0.0848  0.0567
11798TIP3    H156885   3.009   5.232   2.907  0.4362 -0.2654  2.2023
11798TIP3    H256886   3.092   5.358   2.909  0.0251  0.0092  2.1796
11799TIP3   OH256887   0.536   5.350   4.945 -0.1430  0.3072  0.6816
11799TIP3    H156888   0.494   5.328   5.028 -0.9329 -1.1261 -0.0832
11799TIP3    H256889   0.546   5.266   4.900  2.6030  0.7437  0.3957
11800TIP3   OH256890   4.067   1.024   3.515 -0.1253 -0.4096 -0.5840
11800TIP3    H156891   4.154   1.063   3.509 -0.4833  0.1118 -2.9457
11800TIP3    H256892   4.012   1.092   3.553  0.5450 -0.8547  1.2185
11801TIP3   OH256893   4.485   0.863  15.887 -0.1061  0.2083  0.3477
11801TIP3    H156894   4.410   0.808  15.863  1.1136 -0.8230 -1.2015
11801TIP3    H256895   4.558   0.801  15.896  0.9570  1.4120  0.0688
11802TIP3   OH256896   1.187   1.407  16.149  0.2747  0.0677 -0.0149
11802TIP3    H156897   1.111   1.384  16.203 -0.0386  1.6903  0.2830
11802TIP3    H256898   1.178   1.353  16.070 -1.7449  0.9360 -0.4219
11803TIP3   OH256899   3.662   3.911  11.287  0.0800 -0.4821 -0.1581
11803TIP3    H156900   3.610   3.980  11.329  1.7566  0.6864  0.0303
11803TIP3    H256901   3.732   3.958  11.241  1.2359 -2.0563 -0.0562
11804TIP3   OH256902   2.862   2.927   2.778 -0.1359  0.4040  0.7473
11804TIP3    H156903   2.837   3.017   2.795  0.3183  0.2932  2.0223
11804TIP3    H256904   2.792   2.874   2.817 -1.4102  0.2055 -1.6679
11805TIP3   OH256905   3.452   3.312   3.105 -0.0932 -0.3657 -0.9395
11805TIP3    H156906   3.457   3.308   3.010  0.1977  0.2465 -0.9493
11805TIP3    H256907   3.539   3.288   3.136  0.1478  0.5890 -0.8619
11806TIP3   OH256908   4.871   5.897   6.642  0.4789  0.3137  0.0137
11806TIP3    H156909   4.935   5.827   6.631 -0.4772 -0.7069  0.8661
11806TIP3    H256910   4.893   5.960   6.574  3.7706  1.0474  1.6522
11807TIP3   OH256911   5.465   1.910   5.950  0.9639  0.1179  0.0192
11807TIP3    H156912   5.537   1.885   5.892  0.8214  0.8386 -0.4803
11807TIP3    H256913   5.491   1.995   5.985  1.1413 -0.4030  1.1870
11808TIP3   OH256914   2.094   1.421   5.047 -0.2211 -0.7554 -0.7777
11808TIP3    H156915   2.040   1.351   5.010 -1.8053 -0.3305  0.6801
11808TIP3    H256916   2.173   1.376   5.078 -1.3344 -1.9658  0.4005
11809TIP3   OH256917   2.318   3.043  15.690  0.1654 -0.1062  0.0556
11809TIP3    H156918   2.347   3.132  15.711 -0.0188 -0.1048  0.2991
11809TIP3    H256919   2.326   3.038  15.595 -0.8367  0.5327 -0.0728
11810TIP3   OH256920   1.963   4.427   0.524  0.0510 -0.5697  0.0824
11810TIP3    H156921   1.960   4.429   0.429 -0.7906  0.4794  0.1154
11810TIP3    H256922   1.900   4.360   0.550  0.9318 -1.4860 -0.1120
11811TIP3   OH256923   1.256   2.415   6.246  0.4695  0.0288 -0.4178
11811TIP3    H156924   1.301   2.406   6.162 -0.8957 -1.5061 -1.0152
11811TIP3    H256925   1.317   2.378   6.310  0.0062 -2.1813 -1.2352
11812TIP3   OH256926   4.393   0.637  13.422 -0.2831  0.4057 -0.1628
11812TIP3    H156927   4.423   0.728  13.418  3.1510 -0.6850 -0.8579
11812TIP3    H256928   4.385   0.611  13.330 -1.2254 -0.0419  0.0365
11813TIP3   OH256929   4.500   0.892  14.965  0.3705 -0.0918  0.1941
11813TIP3    H156930   4.524   0.933  15.048 -2.8748  0.2891  1.0022
11813TIP3    H256931   4.479   0.801  14.988 -1.0278  0.1456 -0.0962
11814TIP3   OH256932   3.140   2.189   1.066  0.2631  0.2107 -0.2194
11814TIP3    H156933   3.084   2.115   1.088 -1.4015  1.7403  0.8439
11814TIP3    H256934   3.099   2.229   0.990  0.1463  1.0604  0.2820
11815TIP3   OH256935   6.013   1.783   2.900 -0.5524 -0.8462  0.4859
11815TIP3    H156936   6.064   1.863   2.883 -1.4240 -0.3582  0.1646
11815TIP3    H256937   5.932   1.795   2.851 -0.6274 -2.0014  0.3045
11816TIP3   OH256938   5.853   2.640  16.059 -0.5702 -0.7324  0.2268
11816TIP3    H156939   5.903   2.678  16.131 -1.5335 -0.1690  0.6064
11816TIP3    H256940   5.818   2.715  16.011 -0.7117 -1.1120 -0.2739
11817TIP3   OH256941   1.392   0.521   5.374 -0.1594 -0.2248  0.1345
11817TIP3    H156942   1.385   0.556   5.285  1.5064 -0.7312 -0.2198
11817TIP3    H256943   1.362   0.593   5.430 -0.8948  0.2212 -0.8091
11818TIP3   OH256944   6.807   0.641   5.372  0.1499  0.0737  0.4196
11818TIP3    H156945   6.841   0.556   5.401 -1.0745 -0.4162  0.4779
11818TIP3    H256946   6.837   0.650   5.282  1.5395  0.2645  0.8946
11819TIP3   OH256947   6.513   0.582   5.364 -0.1598 -0.6734 -0.0446
11819TIP3    H156948   6.603   0.586   5.397 -0.3447  0.6788  0.3269
11819TIP3    H256949   6.463   0.547   5.437 -0.1323 -0.2650  0.1699
11820TIP3   OH256950   1.648   0.910   3.171  0.3814  0.0382 -0.0616
11820TIP3    H156951   1.695   0.899   3.254 -2.3138  0.7094  1.6183
11820TIP3    H256952   1.641   0.821   3.136  0.7420 -0.3688  0.8746
11821TIP3   OH256953   3.372   3.224  12.908 -0.4707  0.0133 -0.9595
11821TIP3    H156954   3.332   3.167  12.973 -0.3961 -1.6839 -2.3612
11821TIP3    H256955   3.327   3.307  12.918 -1.1290 -0.5152  0.5886
11822TIP3   OH256956   2.912   6.802  12.500 -0.2480 -0.0600  0.4571
11822TIP3    H156957   2.893   6.889  12.535 -1.0885  0.3856 -1.0588
11822TIP3    H256958   2.918   6.815  12.405  0.1332 -1.5628  0.2648
11823TIP3   OH256959   0.329   0.812   3.288 -0.1624 -0.7955  0.4919
11823TIP3    H156960   0.270   0.798   3.362 -0.2343 -0.3572  0.5154
11823TIP3    H256961   0.363   0.900   3.300  0.4495 -1.0204  0.4423
11824TIP3   OH256962   5.905   0.980  10.580 -0.3065 -0.4260 -0.3931
11824TIP3    H156963   5.884   0.923  10.507  0.2454 -0.6444 -0.3884
11824TIP3    H256964   5.903   1.069  10.544  0.1262 -0.5455 -0.7094
11825TIP3   OH256965   1.263   5.875   5.581  0.0476  0.3703 -0.4093
11825TIP3    H156966   1.194   5.810   5.567  0.8647 -0.4525 -0.6936
11825TIP3    H256967   1.224   5.958   5.552 -0.7441 -0.1162 -0.7583
11826TIP3   OH256968   2.243   6.177  16.311 -0.2788 -0.2679 -0.4273
11826TIP3    H156969   2.284   6.147  16.230  1.3899 -2.5212  1.1678
11826TIP3    H256970   2.165   6.121  16.320  0.3164 -1.0146  0.2094
11827TIP3   OH256971   0.487   5.526  15.487  0.1265 -0.0721  0.3137
11827TIP3    H156972   0.424   5.455  15.474 -1.3228  0.9574  1.4460
11827TIP3    H256973   0.466   5.560  15.574  0.7440  1.7919 -0.2472
11828TIP3   OH256974   4.999   1.997   1.184  0.3114  0.1107  0.2006
11828TIP3    H156975   4.986   2.050   1.105 -1.2606 -0.7981 -0.1779
11828TIP3    H256976   4.951   2.043   1.253  0.4270  0.1150  0.2777
11829TIP3   OH256977   1.468   6.441  15.054 -0.0933 -0.2155 -0.0555
11829TIP3    H156978   1.445   6.499  14.982  0.1056 -2.7915 -2.2493
11829TIP3    H256979   1.563   6.449  15.061 -0.1889  0.5803  0.4263
11830TIP3   OH256980   0.423   6.077   4.096  0.0811 -0.4404 -0.3933
11830TIP3    H156981   0.375   6.001   4.129 -1.5268 -0.3080 -2.3372
11830TIP3    H256982   0.357   6.129   4.050  1.5315  1.2038 -0.6546
11831TIP3   OH256983   4.846   1.522  14.853  0.1174 -0.4867 -0.1664
11831TIP3    H156984   4.796   1.548  14.930 -1.9256 -0.4419 -1.4522
11831TIP3    H256985   4.919   1.584  14.849 -0.3119  0.1098  1.1854
11832TIP3   OH256986   2.840   6.402  10.719  0.2020  0.4016 -0.0767
11832TIP3    H156987   2.929   6.429  10.744 -0.0659  0.4526  0.8273
11832TIP3    H256988   2.854   6.327  10.660  0.9092  1.6811 -1.5974
11833TIP3   OH256989   0.683   0.485  13.045 -0.4096  0.3865 -0.8479
11833TIP3    H156990   0.750   0.510  13.108 -0.0856 -0.0509 -1.0192
11833TIP3    H256991   0.607   0.463  13.099 -0.8155  2.0718 -0.7127
11834TIP3   OH256992   0.568   0.663   2.900 -0.4725 -0.1088 -0.0371
11834TIP3    H156993   0.585   0.684   2.992  0.9005  0.8871 -0.4868
11834TIP3    H256994   0.542   0.571   2.900  0.2545 -0.3246  1.2649
11835TIP3   OH256995   1.510   2.152   5.961  0.0632 -0.3482 -0.8401
11835TIP3    H156996   1.588   2.161   6.016 -0.5635 -2.7900  0.5316
11835TIP3    H256997   1.544   2.135   5.873  1.0805  0.1603 -0.5468
11836TIP3   OH256998   1.585   2.084  10.611  0.0026  0.1792 -0.3022
11836TIP3    H156999   1.599   2.174  10.641  0.2500  0.0168  0.0805
11836TIP3    H257000   1.671   2.057  10.579 -0.2148  0.2834 -0.9815
11837TIP3   OH257001   2.153   4.857  15.252 -0.3497  0.4009  0.0974
11837TIP3    H157002   2.237   4.902  15.251 -1.4295  2.5618  1.4612
11837TIP3    H257003   2.173   4.766  15.229  2.1388  1.1920 -0.9431
11838TIP3   OH257004   2.510   2.280   5.798  0.5690 -0.4851  0.5118
11838TIP3    H157005   2.474   2.303   5.884  0.1747  0.5139  0.0915
11838TIP3    H257006   2.574   2.349   5.780  0.0316 -0.2088 -0.3725
11839TIP3   OH257007   2.419   4.342  14.757 -0.1521  0.1990 -0.3942
11839TIP3    H157008   2.408   4.437  14.758  1.5031  0.3893 -0.0143
11839TIP3    H257009   2.482   4.324  14.827 -0.0605 -1.1327 -0.7990
11840TIP3   OH257010   0.150   6.488  12.378  0.1868 -0.2101  0.2745
11840TIP3    H157011   0.067   6.459  12.414 -0.9126 -2.1872 -3.5435
11840TIP3    H257012   0.195   6.407  12.352  1.5169  1.0113 -1.3803
11841TIP3   OH257013   2.336   5.002   1.794 -0.5897  0.2874  0.0159
11841TIP3    H157014   2.426   5.033   1.781 -0.8699  1.1778  0.1793
11841TIP3    H257015   2.286   5.081   1.813 -1.0011 -0.4520  2.1227
11842TIP3   OH257016   2.081   3.447   5.847  0.3775  0.7680 -0.0468
11842TIP3    H157017   2.159   3.478   5.801  0.4775  0.4962 -0.0596
11842TIP3    H257018   2.115   3.410   5.928  0.2523  0.7281 -0.0137
11843TIP3   OH257019   0.195   1.168   0.148  0.4092 -0.2615 -0.0580
11843TIP3    H157020   0.263   1.136   0.089  2.0931  0.8885  1.2172
11843TIP3    H257021   0.148   1.234   0.097 -0.0992 -1.4292 -1.1218
11844TIP3   OH257022   5.653   0.890   2.862 -0.3750 -0.0409 -0.3040
11844TIP3    H157023   5.675   0.800   2.886  1.0031  0.2771 -0.3366
11844TIP3    H257024   5.702   0.906   2.782 -0.7590  0.6848 -0.3979
11845TIP3   OH257025   5.508   6.522  12.566 -0.2145 -0.5527  0.0480
11845TIP3    H157026   5.533   6.489  12.652  0.8533 -1.0473 -0.4401
11845TIP3    H257027   5.590   6.524  12.516 -0.8941 -0.7167 -1.1048
11846TIP3   OH257028   1.239   6.559   1.985 -0.1942 -0.1984  0.4792
11846TIP3    H157029   1.158   6.530   2.026  0.0216  0.4280  1.3658
11846TIP3    H257030   1.240   6.654   1.997 -0.8423  0.2128 -2.3122
11847TIP3   OH257031   3.842   6.767   1.025 -0.2584  0.0595 -0.0166
11847TIP3    H157032   3.821   6.725   0.941  1.7260  0.9805 -1.0183
11847TIP3    H257033   3.813   6.705   1.091 -3.0970 -0.0970 -1.3377
11848TIP3   OH257034   0.041   0.050   4.932 -0.4313 -0.1928  0.0338
11848TIP3    H157035   0.086   0.023   5.012  0.2430 -0.4592 -0.4282
11848TIP3    H257036   0.112   0.074   4.871 -0.9197 -0.3555 -0.6094
11849TIP3   OH257037   2.448   3.787   0.982 -0.3269 -0.5445 -0.3595
11849TIP3    H157038   2.356   3.763   0.971 -0.3694  0.0258 -1.2957
11849TIP3    H257039   2.487   3.713   1.029 -1.4172 -0.4756  0.6581
11850TIP3   OH257040   4.069   4.367   1.825  0.0365  0.7942  0.0500
11850TIP3    H157041   4.028   4.288   1.789 -1.4916  1.3383  0.5437
11850TIP3    H257042   4.138   4.335   1.882 -0.1197 -0.1708 -0.2935
11851TIP3   OH257043   6.502   0.463  17.022 -0.0933  0.1797  0.3113
11851TIP3    H157044   6.529   0.495  16.936  0.1788  0.5558  0.5334
11851TIP3    H257045   6.421   0.510  17.041  0.2690  0.7030  0.6050
11852TIP3   OH257046   1.973   3.210  14.278 -0.6799 -0.3878  0.4842
11852TIP3    H157047   2.036   3.139  14.267 -1.3404 -0.8795 -0.2057
11852TIP3    H257048   1.888   3.166  14.285 -0.8778  0.2165  2.1904
11853TIP3   OH257049   1.604   3.813   4.691  0.2168 -0.8612  0.4252
11853TIP3    H157050   1.660   3.840   4.764 -0.7711  0.3523  0.7520
11853TIP3    H257051   1.586   3.895   4.644  0.3543 -1.5486 -0.8287
11854TIP3   OH257052   1.163   1.439   0.364 -0.0163  0.8176  0.1525
11854TIP3    H157053   1.104   1.386   0.418 -0.9270  1.3819 -0.2630
11854TIP3    H257054   1.133   1.529   0.377 -0.3990  0.9469 -1.4355
11855TIP3   OH257055   6.088   6.820  11.852 -0.1787 -0.9340  0.1110
11855TIP3    H157056   6.064   6.910  11.831  2.1660 -0.4180 -0.5702
11855TIP3    H257057   6.067   6.810  11.945 -1.4592 -0.0511 -0.0791
11856TIP3   OH257058   1.458   6.313   3.127 -0.0337  0.4434 -0.3592
11856TIP3    H157059   1.379   6.287   3.079 -0.4983 -0.1986  0.7316
11856TIP3    H257060   1.503   6.230   3.146  1.7233  0.9067 -2.3226
11857TIP3   OH257061   1.877   5.551  15.173  1.0737 -0.5141  0.1435
11857TIP3    H157062   1.809   5.528  15.236  0.7076  1.2590  0.4251
11857TIP3    H257063   1.940   5.603  15.224  1.0662  0.4458 -0.8099
11858TIP3   OH257064   1.544   0.228  14.468  0.3747 -0.4013  0.0797
11858TIP3    H157065   1.519   0.319  14.456 -0.1362 -0.6266 -0.6117
11858TIP3    H257066   1.514   0.205  14.556  1.8291  0.5227  0.8453
11859TIP3   OH257067   5.885   1.380  14.030 -0.1555  0.2697 -0.5848
11859TIP3    H157068   5.980   1.385  14.020  0.1105 -2.4308  0.1945
11859TIP3    H257069   5.854   1.342  13.948 -0.5505  0.7932 -0.6879
11860TIP3   OH257070   1.051   5.144   5.902  0.3810  0.1306  0.1130
11860TIP3    H157071   1.046   5.140   5.997  0.0012 -0.2609  0.0790
11860TIP3    H257072   1.070   5.236   5.882 -1.6359  0.6512  0.4777
11861TIP3   OH257073   1.102   0.878  14.897  0.3287 -0.2574  0.1601
11861TIP3    H157074   1.122   0.928  14.976 -0.3814  0.0521  0.1473
11861TIP3    H257075   1.107   0.942  14.826 -0.8026 -0.1635  0.1710
11862TIP3   OH257076   2.291   2.699  12.608  0.4267 -0.8023  0.1993
11862TIP3    H157077   2.316   2.633  12.542 -0.8873 -2.9986  1.8316
11862TIP3    H257078   2.371   2.714  12.658  0.8841 -0.7088 -0.5477
11863TIP3   OH257079   5.879   4.972  13.037  0.0814 -0.2726 -0.0263
11863TIP3    H157080   5.926   4.927  13.107 -0.1691 -1.0520 -0.3527
11863TIP3    H257081   5.948   5.002  12.977  0.2869  0.2963  0.4991
11864TIP3   OH257082   5.262   4.752   0.156 -0.6146  0.4858 -0.1792
11864TIP3    H157083   5.321   4.706   0.097 -1.2220 -0.6749  0.1021
11864TIP3    H257084   5.272   4.844   0.134  0.3812  0.1896 -0.9687
11865TIP3   OH257085   2.096   3.031  12.003  0.2742 -0.3327  0.4630
11865TIP3    H157086   2.191   3.038  11.997  0.4251 -1.4654  1.3766
11865TIP3    H257087   2.063   3.097  11.943  1.6475  1.1165  1.2576
11866TIP3   OH257088   0.275   3.730  16.145 -0.3048  0.7212 -0.3584
11866TIP3    H157089   0.365   3.743  16.175 -0.0024 -0.9409 -0.5081
11866TIP3    H257090   0.226   3.803  16.183  1.1659  1.8454 -0.5717
11867TIP3   OH257091   0.684   5.318   6.238  0.6871  0.2620  0.1266
11867TIP3    H157092   0.749   5.265   6.284  0.0197  0.6586  1.5565
11867TIP3    H257093   0.602   5.300   6.285 -0.1616  0.0566 -1.4158
11868TIP3   OH257094   0.843   2.756   2.022 -0.4792 -0.9677  0.4622
11868TIP3    H157095   0.800   2.696   2.083  0.3617 -0.4461  1.5883
11868TIP3    H257096   0.841   2.841   2.066  2.0980 -1.0184  0.7616
11869TIP3   OH257097   6.547   1.887   0.841  0.5892 -0.0668 -0.0424
11869TIP3    H157098   6.570   1.796   0.822  2.4131  0.6209 -1.2934
11869TIP3    H257099   6.631   1.930   0.858 -0.0866  1.7379 -1.1317
11870TIP3   OH257100   2.064   1.944   1.045 -0.1145 -0.2036 -0.5373
11870TIP3    H157101   2.058   1.974   1.136 -0.3333 -0.4383 -0.4748
11870TIP3    H257102   2.088   2.023   0.996 -0.5347  0.0453 -0.3519
11871TIP3   OH257103   2.805   6.443  11.688 -0.2372  0.5617 -0.0661
11871TIP3    H157104   2.710   6.435  11.678 -0.1453 -0.3968 -0.2134
11871TIP3    H257105   2.837   6.462  11.600 -0.0957 -1.1943 -0.4165
11872TIP3   OH257106   4.402   4.095   0.984 -0.3713 -0.5382 -0.0840
11872TIP3    H157107   4.470   4.122   0.922  0.6941  0.7273  1.5916
11872TIP3    H257108   4.320   4.127   0.945  0.3460  0.7287 -0.5795
11873TIP3   OH257109   1.076   3.412  14.274  0.2203  0.1429  0.2207
11873TIP3    H157110   1.045   3.371  14.194  1.6874 -0.8786  0.1571
11873TIP3    H257111   1.130   3.486  14.244 -0.7857  0.9295  0.3084
11874TIP3   OH257112   1.964   2.966  11.018  0.0693  0.3721 -0.0233
11874TIP3    H157113   2.035   3.021  10.986  1.0706  0.7169  2.6565
11874TIP3    H257114   2.007   2.885  11.046 -0.8251 -0.1217 -0.0534
11875TIP3   OH257115   0.343   5.332   6.010  0.3092 -0.4204  0.1599
11875TIP3    H157116   0.421   5.303   5.964  0.2382 -0.0260 -0.2148
11875TIP3    H257117   0.363   5.317   6.103  1.3031  0.7941  0.1543
11876TIP3   OH257118   6.718   3.099   4.600  0.0309 -0.4085  0.1029
11876TIP3    H157119   6.730   3.116   4.693  0.6477 -0.1597 -0.0173
11876TIP3    H257120   6.681   3.012   4.596 -1.9793  0.4001  0.6731
11877TIP3   OH257121   0.773   1.017  15.618 -0.0299  0.1646  0.8065
11877TIP3    H157122   0.740   0.965  15.545 -2.4961  1.5792  0.8476
11877TIP3    H257123   0.785   1.104  15.581 -2.0911  1.0966  2.2310
11878TIP3   OH257124   6.424   3.680  14.365 -0.1349  0.0863  0.2744
11878TIP3    H157125   6.443   3.745  14.297  0.5489 -2.7244 -2.3000
11878TIP3    H257126   6.350   3.631  14.331 -1.4305  0.2378  2.7642
11879TIP3   OH257127   1.983   1.066   4.014 -0.1859  0.1056  0.5300
11879TIP3    H157128   1.892   1.034   4.017 -0.4964  1.0324  1.3696
11879TIP3    H257129   1.989   1.111   3.930 -0.5021  0.0422  0.4699
11880TIP3   OH257130   1.583   2.510  12.767 -0.1337  0.3732  0.1346
11880TIP3    H157131   1.563   2.458  12.844  0.6586 -0.8598 -0.4782
11880TIP3    H257132   1.506   2.499  12.710 -0.3375  0.5694  0.3734
11881TIP3   OH257133   5.829   3.139  17.085 -0.0223  0.2159  0.3409
11881TIP3    H157134   5.748   3.094  17.064  1.8238 -3.2988  0.4139
11881TIP3    H257135   5.879   3.140  17.003  0.2291  1.6322  0.4893
11882TIP3   OH257136   1.573   3.599   5.232  0.2179  0.1562 -0.7630
11882TIP3    H157137   1.631   3.548   5.288 -0.7864 -0.0240  0.1382
11882TIP3    H257138   1.628   3.627   5.159  0.7049 -2.4888 -1.4707
11883TIP3   OH257139   4.549   3.354   1.192  0.2292  0.5076  0.3238
11883TIP3    H157140   4.532   3.441   1.227 -1.4562  1.1752 -2.0171
11883TIP3    H257141   4.488   3.297   1.238  1.3888  0.5159  1.9176
11884TIP3   OH257142   2.572   4.416  10.561 -0.9558  0.3636 -0.0186
11884TIP3    H157143   2.623   4.390  10.638 -2.2684  0.9218  1.0723
11884TIP3    H257144   2.596   4.354  10.493 -1.1299 -1.2705  1.3885
11885TIP3   OH257145   1.948   0.992   0.771 -0.3901 -0.1148  0.4492
11885TIP3    H157146   1.870   1.042   0.749  0.7293  1.3265 -0.3347
11885TIP3    H257147   1.916   0.916   0.820 -2.0226  1.9807  2.7291
11886TIP3   OH257148   0.593   1.553   5.144 -0.9366 -0.5647 -0.0215
11886TIP3    H157149   0.683   1.519   5.142 -1.8019 -2.8952 -0.1934
11886TIP3    H257150   0.549   1.502   5.212 -2.3878 -0.0972 -0.5939
11887TIP3   OH257151   3.107   5.631  15.565  0.1004 -0.2327  0.1769
11887TIP3    H157152   3.111   5.555  15.623  0.4203  0.1426  0.6448
11887TIP3    H257153   3.189   5.628  15.515  1.5757  1.5557  2.4008
11888TIP3   OH257154   3.500   5.901   2.354  0.7014  0.5690  0.2530
11888TIP3    H157155   3.409   5.913   2.329 -0.0856 -4.1486  0.3000
11888TIP3    H257156   3.512   5.955   2.431 -1.7954  1.9072 -0.2733
11889TIP3   OH257157   6.793   5.711   2.488 -0.6461 -0.3846  0.0852
11889TIP3    H157158   6.751   5.675   2.410 -0.4157 -0.7113  0.1139
11889TIP3    H257159   6.803   5.804   2.468 -0.0906 -0.5676 -0.4973
11890TIP3   OH257160   5.953   5.990   2.559  0.7216 -0.4117  0.3775
11890TIP3    H157161   5.919   6.018   2.474 -2.1741  1.1568  1.9785
11890TIP3    H257162   5.908   5.908   2.577  0.3316 -0.0715  0.9762
11891TIP3   OH257163   0.987   5.721   1.443  0.2521 -0.2283 -0.2739
11891TIP3    H157164   0.918   5.786   1.432 -0.8478 -0.6840  3.3002
11891TIP3    H257165   1.067   5.772   1.452  0.6475  0.2860 -5.2519
11892TIP3   OH257166   1.788   0.289   4.436  0.6721  0.1626  0.5259
11892TIP3    H157167   1.724   0.349   4.473  0.7166 -0.9580  2.5007
11892TIP3    H257168   1.740   0.243   4.367  0.9747  3.2447 -1.8593
11893TIP3   OH257169   4.403   0.173  14.677  0.0145  0.1581 -0.1296
11893TIP3    H157170   4.468   0.240  14.657 -1.7466  2.2715  1.0341
11893TIP3    H257171   4.435   0.133  14.758  0.1826  0.7907  0.1245
11894TIP3   OH257172   1.039   4.388   6.091  0.0975 -0.1514 -0.0382
11894TIP3    H157173   1.083   4.339   6.021 -2.2739 -0.7687 -1.1442
11894TIP3    H257174   1.099   4.459   6.111  1.2423 -0.4795 -2.1140
11895TIP3   OH257175   4.371   4.959  12.247  0.2061 -0.3534 -0.2800
11895TIP3    H157176   4.348   4.868  12.265 -2.4588 -0.1686 -2.4582
11895TIP3    H257177   4.297   5.009  12.279  1.0982  0.9561 -0.2318
11896TIP3   OH257178   4.794   0.224  12.265 -0.7119 -0.1167 -0.4682
11896TIP3    H157179   4.731   0.155  12.287  0.1300 -0.2230  1.7706
11896TIP3    H257180   4.856   0.182  12.205  0.6480 -1.7886  2.0183
11897TIP3   OH257181   1.400   5.825   4.430  0.1011 -0.2901 -0.1523
11897TIP3    H157182   1.465   5.871   4.483 -0.4394 -0.4855  0.6855
11897TIP3    H257183   1.356   5.894   4.380 -0.9767  0.1590  1.3877
11898TIP3   OH257184   4.176   2.975  16.510 -0.3693 -0.0797  0.3261
11898TIP3    H157185   4.127   2.900  16.543 -0.9168 -0.5033 -1.4158
11898TIP3    H257186   4.236   2.939  16.444 -0.8778  1.0263 -0.7703
11899TIP3   OH257187   5.196   4.780  11.809  0.4239 -0.2678 -0.5649
11899TIP3    H157188   5.219   4.717  11.741  1.7880 -2.4565  1.8498
11899TIP3    H257189   5.141   4.731  11.869  2.2106  0.5696  1.8184
11900TIP3   OH257190   3.393   1.333   0.005 -0.5855  0.6264  0.1120
11900TIP3    H157191   3.367   1.263  -0.054 -1.9718  1.1309  0.1137
11900TIP3    H257192   3.481   1.358  -0.025 -1.5148  1.3151 -2.1590
11901TIP3   OH257193   5.080   3.011   1.593  0.4067 -0.2340 -0.1791
11901TIP3    H157194   5.173   2.992   1.609  0.3280 -0.2738  0.2399
11901TIP3    H257195   5.075   3.030   1.500  0.7687 -0.6387 -0.2835
11902TIP3   OH257196   5.434   4.150  13.717 -0.3161 -0.0101  0.3008
11902TIP3    H157197   5.402   4.106  13.796 -1.0506 -0.4401 -0.2268
11902TIP3    H257198   5.442   4.080  13.652  1.4305  0.1418  0.3290
11903TIP3   OH257199   2.860   3.395   0.577  0.0356  0.2523  0.4587
11903TIP3    H157200   2.771   3.360   0.578  0.2837 -0.3480  1.5989
11903TIP3    H257201   2.901   3.362   0.657  1.7905 -0.7466 -0.8204
11904TIP3   OH257202   0.807   5.485  13.803 -0.3847  0.5722 -0.3864
11904TIP3    H157203   0.820   5.391  13.787  0.4972  0.3319  1.6669
11904TIP3    H257204   0.712   5.495  13.809 -0.4838 -0.1931 -0.6185
11905TIP3   OH257205   5.384   5.769   3.183  0.1108  0.6721  0.0705
11905TIP3    H157206   5.382   5.787   3.277  0.3454  0.4061  0.1250
11905TIP3    H257207   5.303   5.809   3.150 -1.1754 -1.2636  0.7459
11906TIP3   OH257208   1.141   0.594   1.080  0.0388 -0.2675  0.1792
11906TIP3    H157209   1.080   0.593   1.006  0.3962 -0.6067 -0.1159
11906TIP3    H257210   1.085   0.606   1.157 -0.4269 -0.7991 -0.0684
11907TIP3   OH257211   1.768   2.614  13.104 -0.0598  0.1856 -0.0915
11907TIP3    H157212   1.808   2.677  13.044 -1.3118 -0.2950 -1.4556
11907TIP3    H257213   1.769   2.531  13.057  1.3007 -0.7826  1.5710
11908TIP3   OH257214   4.475   1.897  12.177  0.1185 -0.2110  0.1006
11908TIP3    H157215   4.557   1.928  12.216  1.2644 -2.2388 -0.6117
11908TIP3    H257216   4.408   1.918  12.243  0.7085  4.0336 -0.5091
11909TIP3   OH257217   3.995   0.787  16.691 -0.4472  0.6919  0.4471
11909TIP3    H157218   4.019   0.752  16.776 -0.9478  1.0939  0.7542
11909TIP3    H257219   4.068   0.762  16.634 -0.5665 -0.4047  0.7647
11910TIP3   OH257220   0.278   0.612   3.114 -0.3680  0.2803  0.3500
11910TIP3    H157221   0.281   0.690   3.169 -1.6631  0.8350 -0.3285
11910TIP3    H257222   0.332   0.634   3.038 -0.5955  0.4662  0.2390
11911TIP3   OH257223   3.434   4.802   5.472  0.4242  0.0500 -0.2899
11911TIP3    H157224   3.521   4.766   5.460 -0.2077 -1.4369 -0.5083
11911TIP3    H257225   3.434   4.836   5.562  0.9529 -0.6965 -0.0106
11912TIP3   OH257226   2.915   6.604  14.838  0.1219 -0.7397  0.1610
11912TIP3    H157227   2.999   6.567  14.863  0.1505 -0.5611  0.3294
11912TIP3    H257228   2.853   6.532  14.850 -0.2200 -0.0421  2.8912
11913TIP3   OH257229   0.599   2.776  16.899  0.0966 -0.0871  0.1906
11913TIP3    H157230   0.565   2.709  16.958  0.9709  0.1389  0.9680
11913TIP3    H257231   0.565   2.858  16.933 -1.0757 -0.1363 -0.8357
11914TIP3   OH257232   5.737   1.864  11.558 -0.0127 -0.0926  0.0325
11914TIP3    H157233   5.769   1.828  11.475 -0.2297  0.9209 -0.4980
11914TIP3    H257234   5.817   1.876  11.610 -0.0716 -2.8382  0.8531
11915TIP3   OH257235   2.196   4.441   6.278 -0.3909 -0.5441  0.2148
11915TIP3    H157236   2.278   4.487   6.259 -0.8481  0.6255  1.0223
11915TIP3    H257237   2.149   4.442   6.194  0.1066 -0.5683 -0.0671
11916TIP3   OH257238   2.028   2.925  14.391  0.5044 -0.7738  0.4099
11916TIP3    H157239   2.034   2.856  14.325  1.5350  0.1210 -0.4590
11916TIP3    H257240   2.101   2.907  14.451  1.6402  0.3234 -0.5954
11917TIP3   OH257241   1.973   5.158   1.934  0.0561  0.3594 -0.6992
11917TIP3    H157242   2.063   5.188   1.924  0.2506 -0.6841 -2.3831
11917TIP3    H257243   1.930   5.182   1.852 -0.6837 -0.8471 -0.6923
11918TIP3   OH257244   5.937   0.827   0.108 -0.8102 -0.0717 -0.1614
11918TIP3    H157245   5.843   0.828   0.128 -0.5826 -1.8054  1.0605
11918TIP3    H257246   5.960   0.734   0.103  0.6779  0.3403 -1.3054
11919TIP3   OH257247   0.875   1.483   3.389 -0.0546  0.0946  1.2043
11919TIP3    H157248   0.798   1.442   3.428 -0.4968 -0.1500  0.1131
11919TIP3    H257249   0.886   1.565   3.438 -0.6669 -0.1374  1.7410
11920TIP3   OH257250   1.288   5.010   2.061 -0.0395 -0.4716  0.3216
11920TIP3    H157251   1.290   5.087   2.004  2.9821 -0.6953  0.0153
11920TIP3    H257252   1.259   5.044   2.146 -1.9550  0.3557 -0.6230
11921TIP3   OH257253   1.953   1.292   2.619  0.2779 -0.6530  0.5561
11921TIP3    H157254   1.920   1.360   2.560 -2.0065 -0.9725  1.4218
11921TIP3    H257255   2.016   1.243   2.566 -1.8810 -1.0726 -1.7057
11922TIP3   OH257256   1.602   2.703  16.803 -0.1120 -0.5711 -0.1353
11922TIP3    H157257   1.697   2.716  16.795 -0.3185  0.9309 -0.3407
11922TIP3    H257258   1.585   2.621  16.757  0.9415 -0.2877 -1.0508
11923TIP3   OH257259   0.187   5.959   4.951  0.8952 -0.3766  0.3338
11923TIP3    H157260   0.201   6.046   4.914 -2.2132  0.3794  0.7778
11923TIP3    H257261   0.247   5.955   5.026  2.1008  0.8134 -0.5444
11924TIP3   OH257262   6.625   3.152  12.270  0.4601 -0.6697 -0.4353
11924TIP3    H157263   6.621   3.235  12.317  3.4895 -0.4447 -0.5240
11924TIP3    H257264   6.602   3.086  12.335  1.1658 -0.0406  0.4551
11925TIP3   OH257265   6.332   1.011  15.817  0.1887  0.4184  0.1159
11925TIP3    H157266   6.269   0.981  15.883  0.1388 -1.7463 -0.8726
11925TIP3    H257267   6.412   1.029  15.867 -0.1603 -0.2074  0.9134
11926TIP3   OH257268   1.443   1.596   0.137 -0.2927 -0.4324  0.1058
11926TIP3    H157269   1.408   1.677   0.099 -2.1668 -0.6921  1.2305
11926TIP3    H257270   1.428   1.530   0.069  1.1401  0.1206 -0.7714
11927TIP3   OH257271   3.993   5.008  14.844 -0.1119  0.1787  0.5155
11927TIP3    H157272   3.914   5.044  14.805  1.2688  1.7385 -0.9481
11927TIP3    H257273   3.997   5.047  14.932 -0.4615  0.8396  0.2362
11928TIP3   OH257274   0.836   3.786   3.510 -0.1129 -0.2510  0.1314
11928TIP3    H157275   0.897   3.759   3.441  0.2619 -0.9946  0.7334
11928TIP3    H257276   0.782   3.708   3.525 -0.1237 -0.1308  0.7329
11929TIP3   OH257277   1.564   4.077  13.852 -0.4569  0.3815 -0.1378
11929TIP3    H157278   1.510   4.003  13.824 -0.9604  0.9875 -0.7957
11929TIP3    H257279   1.556   4.141  13.781 -0.6398  1.3761  0.7585
11930TIP3   OH257280   3.073   4.666   0.443  0.0868  0.0813 -0.0915
11930TIP3    H157281   3.072   4.598   0.511 -1.8118  0.8865  0.7361
11930TIP3    H257282   3.028   4.626   0.368  0.8345 -0.2900 -0.3425
11931TIP3   OH257283   3.222   5.574   0.876  0.4668  0.5036 -0.1559
11931TIP3    H157284   3.229   5.657   0.923  1.4613 -0.0635  0.7347
11931TIP3    H257285   3.241   5.595   0.785  0.1169  1.3477 -0.0377
11932TIP3   OH257286   3.686   0.226  12.561 -0.0405 -0.0777 -0.3292
11932TIP3    H157287   3.713   0.193  12.646  0.8972 -0.6021 -0.8224
11932TIP3    H257288   3.596   0.196  12.551 -0.3457  0.4695  0.7169
11933TIP3   OH257289   2.582   4.590  15.554  0.4235 -0.5205  0.5841
11933TIP3    H157290   2.593   4.511  15.501 -0.9033 -0.1847 -0.2182
11933TIP3    H257291   2.565   4.557  15.643 -2.1393 -1.1927 -0.1324
11934TIP3   OH257292   4.264   5.720   6.212  0.3471 -0.0569  0.4206
11934TIP3    H157293   4.221   5.664   6.147  0.8503  1.0861 -0.9349
11934TIP3    H257294   4.202   5.792   6.227  0.9860  0.6294 -0.1633
11935TIP3   OH257295   0.856   5.214  16.703 -0.0499 -0.3111 -0.4128
11935TIP3    H157296   0.943   5.255  16.706  0.7785 -1.9966 -0.9320
11935TIP3    H257297   0.829   5.223  16.612 -0.6569  0.6876 -0.1343
11936TIP3   OH257298   2.041   2.085   1.295 -0.3462  0.2299  0.2415
11936TIP3    H157299   2.090   2.151   1.344  1.1508 -0.8829  0.2866
11936TIP3    H257300   1.951   2.116   1.297  0.3832  2.4701 -0.0731
11937TIP3   OH257301   5.324   6.034  13.753  0.2444  0.0399 -0.2205
11937TIP3    H157302   5.277   6.082  13.821  0.5032 -0.6478  0.4488
11937TIP3    H257303   5.352   5.953  13.795  3.1004  0.9776 -0.2579
11938TIP3   OH257304   5.471   5.481   2.755  0.0387  0.1029 -0.3841
11938TIP3    H157305   5.431   5.528   2.682  1.1507 -1.0571 -1.7570
11938TIP3    H257306   5.439   5.391   2.746  1.1880 -0.3271 -0.2016
11939TIP3   OH257307   3.628   3.818  12.368  0.5346  0.0328  0.2328
11939TIP3    H157308   3.644   3.740  12.422  0.9691  0.0715  0.1587
11939TIP3    H257309   3.639   3.788  12.278 -3.1969 -0.7756 -0.0284
11940TIP3   OH257310   4.356   4.162  14.527  0.7345  0.9600  0.2241
11940TIP3    H157311   4.268   4.175  14.563  0.7764 -0.7780  1.0245
11940TIP3    H257312   4.364   4.227  14.457 -1.3642  0.8161 -0.1740
11941TIP3   OH257313   2.747   2.061  13.854 -0.4687 -0.0992  0.3500
11941TIP3    H157314   2.817   1.997  13.838 -0.5779 -0.7823  2.4656
11941TIP3    H257315   2.736   2.061  13.949 -0.9945  2.5401  0.3289
11942TIP3   OH257316   4.489   1.501  14.816 -0.2384 -0.0842 -0.3651
11942TIP3    H157317   4.433   1.548  14.878  1.1087  0.6716  0.3116
11942TIP3    H257318   4.429   1.443  14.769 -1.1171 -1.6956  2.5847
11943TIP3   OH257319   1.347   3.405   1.823  0.4835 -0.3414  0.1218
11943TIP3    H157320   1.338   3.494   1.855 -2.2522 -1.5658  3.0279
11943TIP3    H257321   1.441   3.395   1.805  0.7947  3.1460 -0.5143
11944TIP3   OH257322   4.326   4.386   3.548 -0.3046  0.4282  0.4035
11944TIP3    H157323   4.391   4.454   3.565  0.9470  0.7491 -4.8950
11944TIP3    H257324   4.377   4.304   3.547 -1.0040 -0.0528  1.8892
11945TIP3   OH257325   1.699   2.045   4.184 -0.2222  0.2918  0.1767
11945TIP3    H157326   1.733   1.968   4.138  1.0996  1.4200 -0.7654
11945TIP3    H257327   1.766   2.066   4.249 -0.2665  1.0209 -0.0063
11946TIP3   OH257328   5.265   1.521   0.973 -0.3210 -0.4143  0.1328
11946TIP3    H157329   5.277   1.553   1.062  0.1997 -0.5360  0.1064
11946TIP3    H257330   5.303   1.589   0.917  0.6843 -1.0125  0.0723
11947TIP3   OH257331   2.153   4.136  15.715  0.3877 -0.1104  0.5829
11947TIP3    H157332   2.122   4.061  15.664 -2.3261 -0.9244  3.2448
11947TIP3    H257333   2.228   4.103  15.764  0.3795 -0.5168  0.3255
11948TIP3   OH257334   3.013   1.997   1.251  0.0282 -0.1295 -0.0898
11948TIP3    H157335   2.980   1.910   1.232  0.7660 -0.2877 -0.6681
11948TIP3    H257336   3.095   1.983   1.297 -0.5073  0.2628  1.0123
11949TIP3   OH257337   0.782   1.543  16.052  0.5559 -0.2931 -0.6074
11949TIP3    H157338   0.830   1.471  16.012 -0.1285 -0.6685 -0.7553
11949TIP3    H257339   0.839   1.620  16.038  1.4578 -0.8632 -0.1128
11950TIP3   OH257340   1.670   2.557   0.650 -0.5769 -0.1779  0.0582
11950TIP3    H157341   1.700   2.475   0.610  0.4812  0.8299 -1.2732
11950TIP3    H257342   1.734   2.623   0.620 -1.8644  1.2796  0.4571
11951TIP3   OH257343   3.477   2.219   5.893 -0.4489 -0.2438 -0.0785
11951TIP3    H157344   3.389   2.191   5.865 -0.2097 -0.2547 -0.8155
11951TIP3    H257345   3.467   2.312   5.915 -0.5126 -0.0950 -0.7304
11952TIP3   OH257346   5.178   5.065  15.664 -0.0284  0.1910 -0.0928
11952TIP3    H157347   5.102   5.017  15.632  0.4808 -0.2914 -0.5919
11952TIP3    H257348   5.251   5.003  15.654  0.0683 -0.1730  2.4789
11953TIP3   OH257349   3.133   5.132   4.790  0.1982  0.1743 -0.6592
11953TIP3    H157350   3.208   5.075   4.772  1.8369  1.9512  0.3376
11953TIP3    H257351   3.093   5.095   4.869  0.7444 -0.1086 -0.5122
11954TIP3   OH257352   1.643   1.234   5.218  0.7792 -0.1363  0.5163
11954TIP3    H157353   1.654   1.329   5.220  2.6494 -0.3466  0.7641
11954TIP3    H257354   1.605   1.213   5.303 -0.0573  0.4272  0.2900
11955TIP3   OH257355   3.228   1.490  11.966  0.1613 -0.5668 -0.1814
11955TIP3    H157356   3.145   1.539  11.967  1.2313  1.2963 -0.9257
11955TIP3    H257357   3.295   1.557  11.951  1.5767 -2.4015 -2.3159
11956TIP3   OH257358   4.005   3.104   2.345  0.2388 -0.0210  0.5323
11956TIP3    H157359   4.062   3.029   2.328 -0.1526  0.1423 -1.7184
11956TIP3    H257360   3.956   3.115   2.263  0.5091  2.8555  0.7117
11957TIP3   OH257361   4.667   2.183  13.033 -0.7036 -0.1488 -0.6297
11957TIP3    H157362   4.674   2.276  13.053 -1.7491 -1.0235  4.6494
11957TIP3    H257363   4.578   2.171  13.001 -1.4069  0.3322  1.1029
11958TIP3   OH257364   0.608   4.224   2.426 -0.8288 -0.3350 -0.2490
11958TIP3    H157365   0.607   4.228   2.521  0.3692  0.5197 -0.2676
11958TIP3    H257366   0.518   4.242   2.400 -0.9538  0.3661  0.6805
11959TIP3   OH257367   6.236   3.819  14.763 -0.4690  0.5836  0.0857
11959TIP3    H157368   6.188   3.738  14.781  0.1811  0.2960  0.5734
11959TIP3    H257369   6.322   3.789  14.733 -1.0230  1.0790 -2.0665
11960TIP3   OH257370   6.033   5.185  13.220  0.0752  0.2068 -1.1544
11960TIP3    H157371   6.055   5.240  13.145 -0.4858 -0.1048 -1.5483
11960TIP3    H257372   5.937   5.184  13.222  0.0135  2.5972  1.2851
11961TIP3   OH257373   1.692   6.134  12.817  0.0822 -0.0485  0.7534
11961TIP3    H157374   1.642   6.052  12.822 -2.1076  1.2217  0.1167
11961TIP3    H257375   1.735   6.141  12.902 -3.2465  0.3149  2.4589
11962TIP3   OH257376   5.938   1.547  16.917 -0.3160  0.1952  0.3994
11962TIP3    H157377   5.843   1.531  16.924 -0.2503 -0.2345  0.3195
11962TIP3    H257378   5.977   1.480  16.973 -0.0624  0.4273  0.4966
11963TIP3   OH257379   6.033   1.638   0.164 -0.7728  0.0852 -0.3538
11963TIP3    H157380   6.094   1.690   0.113 -0.2306  0.5971  0.7867
11963TIP3    H257381   5.947   1.674   0.144 -0.4759  0.8861 -0.2041
11964TIP3   OH257382   4.864   5.065   0.413 -0.0195  0.4320  0.2610
11964TIP3    H157383   4.849   5.006   0.487  1.0557  1.1401  1.0385
11964TIP3    H257384   4.949   5.040   0.379  1.8991  3.5713  2.5352
11965TIP3   OH257385   3.324   6.368   4.453  0.4206  0.2236 -0.4937
11965TIP3    H157386   3.416   6.361   4.430  0.8687  1.1227  1.0094
11965TIP3    H257387   3.277   6.345   4.372  1.9264 -2.6213 -0.6088
11966TIP3   OH257388   2.622   1.096  15.715 -0.3371 -0.0180  0.1845
11966TIP3    H157389   2.608   1.050  15.797  0.2100 -0.7488 -0.1258
11966TIP3    H257390   2.537   1.134  15.694 -0.1811  1.2240  1.7067
11967TIP3   OH257391   1.426   5.376  13.424  0.4369  0.1237  0.1151
11967TIP3    H157392   1.442   5.372  13.518  0.2304 -1.0830  0.1001
11967TIP3    H257393   1.501   5.424  13.389 -0.4628  2.3876  1.1174
11968TIP3   OH257394   5.272   5.585   3.939  0.1923  0.2262 -0.2782
11968TIP3    H157395   5.320   5.668   3.940 -0.2722  0.4906  0.8044
11968TIP3    H257396   5.332   5.522   3.977 -0.0525  0.4112  0.4228
11969TIP3   OH257397   3.410   5.407   2.438  0.2240 -0.1515  0.3378
11969TIP3    H157398   3.412   5.417   2.343 -1.1320 -0.3856  0.2871
11969TIP3    H257399   3.320   5.383   2.459  0.9392 -1.9301  1.5151
11970TIP3   OH257400   1.956   0.310   3.317  0.5549 -0.6287 -0.5433
11970TIP3    H157401   2.018   0.249   3.277  0.3582 -0.6099 -0.8706
11970TIP3    H257402   1.959   0.288   3.410  0.5763 -1.0526 -0.6431
11971TIP3   OH257403   2.082   3.608  15.467  0.2389  0.1842 -0.3960
11971TIP3    H157404   2.120   3.612  15.554 -0.4037 -0.0381 -0.1045
11971TIP3    H257405   2.154   3.632  15.408  0.3582  1.5215  0.2779
11972TIP3   OH257406   4.855   6.029  16.560  0.4062 -0.2719  0.2438
11972TIP3    H157407   4.789   6.047  16.492  1.1600  0.3366 -0.3348
11972TIP3    H257408   4.918   6.101  16.552  1.1054 -0.8114  0.8432
11973TIP3   OH257409   0.382   1.480  10.455 -0.2444  0.0901  0.3760
11973TIP3    H157410   0.461   1.442  10.493 -0.9112 -0.0792  1.6381
11973TIP3    H257411   0.331   1.405  10.426  1.1450  0.2898 -2.7343
11974TIP3   OH257412   4.317   5.937  12.757 -0.5064 -0.1395 -0.5697
11974TIP3    H157413   4.365   5.908  12.680  0.9872 -0.3076  0.3914
11974TIP3    H257414   4.383   5.938  12.827 -2.5124 -3.1385  1.4568
11975TIP3   OH257415   3.324   6.085  12.393  0.5511  0.3767 -0.1164
11975TIP3    H157416   3.304   6.075  12.300  0.8129 -0.4090 -0.0928
11975TIP3    H257417   3.337   5.996  12.425  0.6822  0.6530  0.6253
11976TIP3   OH257418   0.436   2.981   5.945  0.1182 -0.1629  0.4934
11976TIP3    H157419   0.479   2.981   6.030 -0.2210 -0.5899  0.6692
11976TIP3    H257420   0.506   2.960   5.883  0.1127 -1.1308  0.8067
11977TIP3   OH257421   3.226   6.580  13.418 -0.2056 -0.2607  0.6131
11977TIP3    H157422   3.253   6.492  13.392  0.7609  0.3740 -0.5972
11977TIP3    H257423   3.305   6.619  13.457 -0.5125  0.2140  0.7708
11978TIP3   OH257424   0.185   2.532  13.671  0.4191 -0.0143 -0.2404
11978TIP3    H157425   0.123   2.578  13.615 -2.9358 -2.1556  1.4848
11978TIP3    H257426   0.181   2.579  13.755  1.9789  0.4673 -0.4203
11979TIP3   OH257427   4.212   1.630  15.447  0.3462 -0.0889 -1.0615
11979TIP3    H157428   4.278   1.569  15.480  1.4631  0.9647 -1.3131
11979TIP3    H257429   4.217   1.705  15.506 -0.0474  0.3472 -1.5788
11980TIP3   OH257430   6.257   6.081   5.485 -0.1338 -0.2134  0.3517
11980TIP3    H157431   6.314   6.053   5.557 -1.2322 -0.4316  1.1557
11980TIP3    H257432   6.308   6.146   5.438  1.1223 -1.0482  0.5290
11981TIP3   OH257433   0.632   6.624   5.317 -0.0219 -0.3267 -0.5340
11981TIP3    H157434   0.667   6.550   5.268  0.2435 -0.9678  0.6090
11981TIP3    H257435   0.685   6.699   5.289  0.7562 -0.8674 -0.5022
11982TIP3   OH257436   4.895   6.268  14.767  0.5135 -0.3196  0.2088
11982TIP3    H157437   4.818   6.311  14.804  0.4664  0.3117 -0.6016
11982TIP3    H257438   4.911   6.194  14.825 -1.1514 -0.8911 -0.0271
11983TIP3   OH257439   3.938   2.095  10.792  0.5103  0.0844 -0.2235
11983TIP3    H157440   3.981   2.061  10.870  0.4941  0.6604  0.0414
11983TIP3    H257441   3.916   2.018  10.741  1.6501 -0.2266 -0.2565
11984TIP3   OH257442   5.656   0.125   2.248 -0.4187  0.7052 -0.0746
11984TIP3    H157443   5.600   0.051   2.224  0.5917 -0.0467 -0.1523
11984TIP3    H257444   5.745   0.090   2.245  0.0337  1.7713  0.4652
11985TIP3   OH257445   2.565   0.148  11.707 -0.1545 -0.1787  0.1012
11985TIP3    H157446   2.608   0.067  11.733 -1.2690 -1.0465 -0.7055
11985TIP3    H257447   2.581   0.154  11.613  0.5754  0.9352  0.2928
11986TIP3   OH257448   0.326   3.695  15.125  0.0888 -0.1858 -0.6885
11986TIP3    H157449   0.283   3.612  15.150  2.9920 -1.1684  1.3596
11986TIP3    H257450   0.277   3.762  15.172  1.0508 -1.3444  2.0675
11987TIP3   OH257451   0.501   5.750   6.201  0.4787 -0.0645  0.2724
11987TIP3    H157452   0.574   5.711   6.250  1.0490  0.8192  0.1307
11987TIP3    H257453   0.484   5.687   6.131  0.3247 -0.8464  1.0000
11988TIP3   OH257454   1.700   0.278   3.527  0.2572 -0.3335 -0.3089
11988TIP3    H157455   1.617   0.254   3.569 -1.1769  2.0981 -1.6117
11988TIP3    H257456   1.699   0.230   3.444  1.2361 -2.0354  0.6304
11989TIP3   OH257457   3.643   0.419   0.186 -0.4548  0.9965 -0.5564
11989TIP3    H157458   3.650   0.450   0.277 -2.6900 -1.7087  0.6259
11989TIP3    H257459   3.686   0.333   0.187 -1.1388  0.6322 -1.8811
11990TIP3   OH257460   5.239   6.462  11.335 -0.0828  0.4838  0.2766
11990TIP3    H157461   5.220   6.410  11.257 -1.6025 -0.3224  1.1546
11990TIP3    H257462   5.229   6.553  11.307  1.2014  0.2749 -0.9140
11991TIP3   OH257463   6.331   3.321  14.598  0.0888  0.2531 -0.1343
11991TIP3    H157464   6.363   3.333  14.687  0.9916 -3.0345  0.0726
11991TIP3    H257465   6.409   3.301  14.547 -0.6004  0.7073 -1.3910
11992TIP3   OH257466   0.649   5.761   4.150 -0.0170 -0.5218  0.3653
11992TIP3    H157467   0.608   5.773   4.235  0.6720  2.3268  0.3549
11992TIP3    H257468   0.579   5.728   4.094 -0.5702 -2.0381  1.9099
11993TIP3   OH257469   0.480   5.397   1.100  0.1533 -0.2392  0.0819
11993TIP3    H157470   0.430   5.437   1.171  0.0323  0.9677 -0.6463
11993TIP3    H257471   0.413   5.371   1.036  0.4126  1.4680 -0.9382
11994TIP3   OH257472   6.390   4.744  14.063  0.3796  0.4163 -0.4115
11994TIP3    H157473   6.319   4.748  14.127  0.6332  0.0643 -0.1080
11994TIP3    H257474   6.345   4.746  13.978 -0.0485 -0.6666 -0.2162
11995TIP3   OH257475   0.491   0.967  11.887  0.5406 -0.8619  0.2034
11995TIP3    H157476   0.464   0.946  11.798 -0.8337 -1.1899  0.6845
11995TIP3    H257477   0.424   1.027  11.919  0.5132 -1.4922  1.3474
11996TIP3   OH257478   4.220   1.690   4.568  0.2903 -0.7785 -0.6268
11996TIP3    H157479   4.207   1.631   4.643 -0.3169 -0.3185 -0.3659
11996TIP3    H257480   4.175   1.646   4.496 -1.2158 -0.0525 -0.1418
11997TIP3   OH257481   5.487   6.669   2.564 -0.0151 -0.2757  0.1794
11997TIP3    H157482   5.454   6.730   2.497 -1.9918 -0.3920  1.0046
11997TIP3    H257483   5.547   6.722   2.617 -1.0729  0.7620  0.3803
11998TIP3   OH257484   6.062   1.260  11.766  0.1497 -0.0136  0.5890
11998TIP3    H157485   6.053   1.251  11.861  0.6762  0.1667  0.6574
11998TIP3    H257486   5.973   1.277  11.735  0.1046  0.7411  1.1357
11999TIP3   OH257487   2.600   6.680  11.036 -0.2394  0.7408 -0.9115
11999TIP3    H157488   2.550   6.761  11.035  0.4603  1.2384  1.2642
11999TIP3    H257489   2.685   6.704  11.073 -0.0714 -1.0036 -0.0758
12000TIP3   OH257490   5.594   2.093   2.534 -0.1703 -0.0334 -0.0529
12000TIP3    H157491   5.584   2.058   2.445 -1.0337 -0.4097  0.1806
12000TIP3    H257492   5.672   2.148   2.530 -0.9175  0.9509 -1.3709
12001TIP3   OH257493   6.452   0.585   2.489  0.3869 -0.0995  0.1160
12001TIP3    H157494   6.408   0.501   2.503  1.8975 -0.8268  0.5494
12001TIP3    H257495   6.458   0.594   2.394  0.6390 -0.6845  0.0818
12002TIP3   OH257496   4.904   0.700   5.002  0.1542 -0.3263 -0.4069
12002TIP3    H157497   4.875   0.647   5.076  1.6413 -0.0218  0.4084
12002TIP3    H257498   4.935   0.781   5.041 -0.5955  0.5035 -1.5127
12003TIP3   OH257499   6.160   3.767   4.466 -0.1027  0.1192 -0.2411
12003TIP3    H157500   6.087   3.706   4.459 -0.3249  0.3122  0.3395
12003TIP3    H257501   6.119   3.854   4.464  0.2550  0.2763 -1.6426
12004TIP3   OH257502   2.890   0.169   6.017 -0.0515 -0.1719  0.0455
12004TIP3    H157503   2.954   0.232   5.984  0.7170  0.4016  2.5603
12004TIP3    H257504   2.807   0.196   5.977  0.4508  1.8016  0.2681
12005TIP3   OH257505   2.883   6.470  14.588 -0.4181  0.5411 -0.3661
12005TIP3    H157506   2.790   6.471  14.565 -0.5300 -2.8500 -0.3002
12005TIP3    H257507   2.887   6.428  14.673  1.3381 -1.3218 -1.3280
12006TIP3   OH257508   5.731   1.196  11.727 -0.2717 -0.1171 -0.5997
12006TIP3    H157509   5.652   1.177  11.676 -1.0558 -1.7294  1.1343
12006TIP3    H257510   5.701   1.253  11.797  0.4196  0.5574 -0.8483
12007TIP3   OH257511   4.973   4.685  11.305  0.2589  0.0069 -0.1422
12007TIP3    H157512   5.008   4.751  11.365  0.7187  1.6522 -2.1685
12007TIP3    H257513   4.977   4.726  11.219 -0.1341 -2.4063 -1.3603
12008TIP3   OH257514   0.625   2.971  15.411  0.3361 -0.1038  0.0151
12008TIP3    H157515   0.704   2.993  15.362 -0.7107 -0.3299 -1.7990
12008TIP3    H257516   0.653   2.900  15.470  0.8811 -2.0605 -2.5035
12009TIP3   OH257517   2.979   0.811  11.956 -0.2480 -0.7300  0.3880
12009TIP3    H157518   2.977   0.848  11.868  2.1449  0.8874  0.9362
12009TIP3    H257519   2.990   0.717  11.942 -2.9112 -0.8936 -1.0152
12010TIP3   OH257520   1.939   4.800  12.973 -0.4366 -0.1713  0.0932
12010TIP3    H157521   1.910   4.891  12.963 -2.8835 -0.9989 -0.6855
12010TIP3    H257522   1.905   4.773  13.058 -2.1883 -1.2197 -0.9171
12011TIP3   OH257523   0.022   5.891   3.857 -0.5928  0.2431  0.4789
12011TIP3    H157524   0.116   5.907   3.861 -0.8572  2.0172  0.0951
12011TIP3    H257525  -0.001   5.904   3.765 -1.0437 -1.2383  0.3743
12012TIP3   OH257526   3.390   1.217   4.092 -0.0212  0.1346  1.0419
12012TIP3    H157527   3.388   1.210   4.188 -0.8717  0.6615  1.0713
12012TIP3    H257528   3.480   1.241   4.072  0.0517  0.4782  1.7532
12013TIP3   OH257529   0.960   6.465  15.620 -0.2333 -0.1236  0.4387
12013TIP3    H157530   0.893   6.533  15.608 -0.2634 -0.2086  0.1127
12013TIP3    H257531   0.937   6.422  15.702  0.4279  0.9919  1.2253
12014TIP3   OH257532   3.963   5.387   1.287 -0.5084 -0.2450 -0.1981
12014TIP3    H157533   4.047   5.420   1.320 -0.7275  0.8231 -0.6884
12014TIP3    H257534   3.899   5.453   1.314 -0.9203 -0.1525 -1.3803
12015TIP3   OH257535   6.629   4.262   2.225 -0.4595  0.0907 -0.5480
12015TIP3    H157536   6.556   4.321   2.241 -0.9396 -0.4403 -0.7551
12015TIP3    H257537   6.610   4.222   2.140  0.3089  0.2995 -0.8266
12016TIP3   OH257538   3.978   4.154  14.020  0.0622 -0.6955 -0.3214
12016TIP3    H157539   3.953   4.185  13.933 -1.1276  1.0976  0.6221
12016TIP3    H257540   4.071   4.132  14.012  1.1163  3.5091 -1.0148
12017TIP3   OH257541   4.247   4.801  16.688 -0.8382  0.0579 -0.1778
12017TIP3    H157542   4.257   4.718  16.734  1.4215  0.5061  0.1780
12017TIP3    H257543   4.158   4.829  16.709 -0.7402 -1.0149  1.7927
12018TIP3   OH257544   3.859   2.432   5.964 -0.2455 -0.1843  0.7026
12018TIP3    H157545   3.947   2.400   5.986  0.1214  0.3450  0.0287
12018TIP3    H257546   3.860   2.524   5.992 -0.3433  0.0228  0.0249
12019TIP3   OH257547   5.489   2.469  11.441  0.8503  0.0125 -0.1642
12019TIP3    H157548   5.493   2.374  11.453  0.7421  0.2511  1.8905
12019TIP3    H257549   5.504   2.505  11.528 -0.1427  1.8736 -0.7359
12020TIP3   OH257550   0.055   1.090   2.288  0.1268 -0.1448  0.4347
12020TIP3    H157551  -0.023   1.126   2.332 -0.0607  0.6020 -0.4944
12020TIP3    H257552   0.067   1.004   2.328 -1.4106 -0.4284  0.3145
12021TIP3   OH257553   5.660   1.207   0.340  0.2215  0.1111 -0.1132
12021TIP3    H157554   5.657   1.181   0.248 -0.3182 -0.4900  0.0745
12021TIP3    H257555   5.664   1.303   0.337  0.7645  0.0761 -0.7703
12022TIP3   OH257556   4.306   1.209  12.183  0.2462  0.3147  0.2045
12022TIP3    H157557   4.309   1.124  12.140  1.0457 -0.0416  0.9316
12022TIP3    H257558   4.393   1.247  12.168  0.5836  0.1262  1.5894
12023TIP3   OH257559   5.600   0.820   2.050  0.5402  0.0092 -0.8335
12023TIP3    H157560   5.599   0.744   1.992 -0.5528  0.2440 -1.1297
12023TIP3    H257561   5.602   0.782   2.138 -0.4583 -0.3656 -0.9696
12024TIP3   OH257562   3.144   6.474   6.062 -0.4545 -0.3390  0.8212
12024TIP3    H157563   3.124   6.512   6.148  1.3089  1.2852  0.5454
12024TIP3    H257564   3.233   6.439   6.071 -1.0412 -2.0240  0.2517
12025TIP3   OH257565   3.996   1.470  13.515  0.0209 -0.0408 -0.2760
12025TIP3    H157566   4.004   1.387  13.562  0.1895  0.0632 -0.1231
12025TIP3    H257567   3.901   1.481  13.503 -0.0025 -0.2573 -0.3041
12026TIP3   OH257568   2.539   1.655  11.741 -0.2294 -0.2079  0.3726
12026TIP3    H157569   2.520   1.733  11.793  1.1578  0.0908  0.4543
12026TIP3    H257570   2.493   1.668  11.658  1.8584  1.7813 -0.5215
12027TIP3   OH257571   6.268   3.797   2.630 -0.2312  0.2137 -0.0220
12027TIP3    H157572   6.189   3.836   2.667  0.3568  1.9417 -0.5528
12027TIP3    H257573   6.270   3.827   2.539  1.3006  0.6210  0.1333
12028TIP3   OH257574   0.580   3.813   1.955  0.3599 -0.2335 -0.1652
12028TIP3    H157575   0.521   3.874   1.999 -0.4778 -1.3719  0.3312
12028TIP3    H257576   0.621   3.764   2.027  1.4020  0.0902 -0.5357
12029TIP3   OH257577   0.197   1.362  11.794 -0.2783 -0.1551 -0.0480
12029TIP3    H157578   0.265   1.371  11.862  0.7408  1.0848 -1.2065
12029TIP3    H257579   0.115   1.362  11.843  0.3694  1.9167  1.1188
12030TIP3   OH257580   4.365   3.267  11.119 -0.1673  0.3408  0.0721
12030TIP3    H157581   4.350   3.182  11.160  1.1530  1.2854  2.6429
12030TIP3    H257582   4.290   3.320  11.146 -0.5056  0.2730 -0.7315
12031TIP3   OH257583   0.531   2.223   0.592  0.2280  0.6796  0.1242
12031TIP3    H157584   0.459   2.175   0.550  1.5118 -0.0016 -1.3488
12031TIP3    H257585   0.490   2.301   0.628 -1.3099  0.1510 -0.4452
12032TIP3   OH257586   6.076   2.706   2.897 -0.3988  0.2836 -0.3046
12032TIP3    H157587   6.149   2.707   2.834  1.5108 -1.0164  1.8220
12032TIP3    H257588   6.092   2.629   2.951 -3.3524  0.0244  0.2690
12033TIP3   OH257589   5.540   6.346   1.367 -0.0230 -0.0901 -0.0933
12033TIP3    H157590   5.632   6.330   1.385 -0.6897 -0.9094  2.9072
12033TIP3    H257591   5.503   6.260   1.348 -0.5811 -0.0513  0.7939
12034TIP3   OH257592   4.986   4.847  10.311 -0.1475 -0.3692  0.0060
12034TIP3    H157593   4.968   4.890  10.395 -1.7628  1.1386 -1.0797
12034TIP3    H257594   4.936   4.766  10.314  0.5360 -0.7724  0.8586
12035TIP3   OH257595   4.648   3.550  12.137  0.5020 -0.1096  0.0776
12035TIP3    H157596   4.631   3.487  12.207  0.0815 -0.1754 -0.0830
12035TIP3    H257597   4.737   3.529  12.107  0.6537 -0.1305  0.5402
12036TIP3   OH257598   0.535   3.714  12.810 -0.1026 -0.5379 -0.2215
12036TIP3    H157599   0.539   3.667  12.726 -0.7909 -2.6483  0.9049
12036TIP3    H257600   0.621   3.700  12.849 -0.4575 -1.2410  0.3122
12037TIP3   OH257601   5.329   4.952  12.318  0.1173  0.6910 -0.0139
12037TIP3    H157602   5.272   4.911  12.253 -1.4573 -0.8042  2.2230
12037TIP3    H257603   5.346   5.039  12.284 -3.3716  1.1060 -0.8621
12038TIP3   OH257604   1.016   4.205  15.727  0.1324 -0.1457 -0.7269
12038TIP3    H157605   0.950   4.259  15.684  1.4810 -0.0792 -2.7709
12038TIP3    H257606   0.996   4.116  15.700  0.0419 -0.2844 -0.2127
12039TIP3   OH257607   5.112   4.740   2.430  0.0551  0.1451 -0.0202
12039TIP3    H157608   5.019   4.730   2.447  0.0328  0.1254 -0.1520
12039TIP3    H257609   5.155   4.713   2.511 -0.0790  0.7719  0.2598
12040TIP3   OH257610   4.885   1.394  13.060 -0.1709 -0.4238 -0.0889
12040TIP3    H157611   4.931   1.311  13.065 -0.4317 -0.5077  0.9481
12040TIP3    H257612   4.840   1.402  13.144 -1.1522  0.1760 -0.6622
12041TIP3   OH257613   0.428   4.742  14.601  0.0047  0.3805  0.4157
12041TIP3    H157614   0.513   4.766  14.638  0.2665  1.1772 -0.6670
12041TIP3    H257615   0.397   4.822  14.559  0.0432 -0.6775 -1.6921
12042TIP3   OH257616   6.290   2.805   2.750  0.1340  0.1448 -0.2962
12042TIP3    H157617   6.383   2.814   2.770  0.4970  2.5237 -2.8431
12042TIP3    H257618   6.287   2.753   2.670 -0.9684 -3.0461  1.7063
12043TIP3   OH257619   2.094   1.643   2.547  0.1485 -0.0414  0.3805
12043TIP3    H157620   2.025   1.588   2.511  0.4168 -1.8868  2.5250
12043TIP3    H257621   2.175   1.595   2.527  0.3782 -0.5316  2.3464
12044TIP3   OH257622   5.506   1.780  15.536  0.4336  0.0412 -0.1429
12044TIP3    H157623   5.569   1.756  15.604  1.0179 -2.5338 -1.5339
12044TIP3    H257624   5.425   1.737  15.562  0.7151 -1.1334 -1.1620
12045TIP3   OH257625   5.223   5.706   1.905 -0.0676  0.6774  0.8749
12045TIP3    H157626   5.163   5.677   1.836 -0.2566  0.8627  0.9597
12045TIP3    H257627   5.169   5.761   1.961  0.0069  0.2789  1.3439
12046TIP3   OH257628   2.806   5.743   6.368 -0.3767  0.0394 -0.0895
12046TIP3    H157629   2.780   5.684   6.440  1.0505 -0.7413 -0.1930
12046TIP3    H257630   2.858   5.687   6.310  0.4830  1.2752 -0.5071
12047TIP3   OH257631   4.095   5.381  13.445  0.1731 -0.0373  0.0609
12047TIP3    H157632   4.043   5.449  13.489  0.4495 -0.4230  1.0037
12047TIP3    H257633   4.036   5.346  13.378 -1.0793 -1.0032  1.6254
12048TIP3   OH257634   6.454   2.060  15.995  0.4667  0.2763 -0.4459
12048TIP3    H157635   6.462   2.057  15.899  1.8184 -1.1659 -0.3049
12048TIP3    H257636   6.393   1.988  16.015  0.7081  0.1479 -0.1774
12049TIP3   OH257637   2.672   6.739   3.758 -0.3031 -0.2757 -0.0452
12049TIP3    H157638   2.736   6.667   3.759 -0.7108 -0.6420  0.0801
12049TIP3    H257639   2.725   6.818   3.761  0.1455 -0.5775  0.1250
12050TIP3   OH257640   4.907   1.559  11.276  0.2046  0.3057 -0.1333
12050TIP3    H157641   4.900   1.464  11.263  0.0424  0.2731  0.1747
12050TIP3    H257642   4.825   1.594  11.242  0.6799  0.4392 -1.1586
12051TIP3   OH257643   0.193   5.745  11.020  0.0868  0.0527  0.1853
12051TIP3    H157644   0.250   5.797  11.077  0.3935 -0.4224  0.3211
12051TIP3    H257645   0.193   5.658  11.061  0.0361 -0.2005 -0.3543
12052TIP3   OH257646   0.756   2.224  12.407  0.4384 -0.3085 -0.0255
12052TIP3    H157647   0.748   2.177  12.324 -0.2152 -0.8397  0.3288
12052TIP3    H257648   0.841   2.266  12.403  0.9145 -1.3086 -0.4745
12053TIP3   OH257649   6.360   1.641  16.092 -0.2775  0.4871 -0.7676
12053TIP3    H157650   6.320   1.559  16.064 -1.3028 -0.1271  2.3715
12053TIP3    H257651   6.299   1.709  16.064  0.0872  0.1219 -2.4827
12054TIP3   OH257652   6.421   5.621   0.108  0.2443  0.4410 -0.4496
12054TIP3    H157653   6.496   5.574   0.071  0.7600 -0.6304  1.8307
12054TIP3    H257654   6.439   5.713   0.091  1.2626  0.0759 -1.4029
12055TIP3   OH257655   1.071   1.464   1.327 -0.0821 -0.0137  0.2005
12055TIP3    H157656   1.001   1.504   1.378 -0.1143  0.3673 -0.1377
12055TIP3    H257657   1.039   1.376   1.306 -0.2609 -0.0066  0.4417
12056TIP3   OH257658   1.079   3.115   1.554  0.2661 -0.2358  0.4759
12056TIP3    H157659   1.110   3.187   1.499 -1.1821  0.3555  0.4267
12056TIP3    H257660   0.988   3.101   1.527 -0.2187 -0.4484  2.1966
12057TIP3   OH257661   5.896   6.301   2.187 -0.2669 -0.2088  0.5997
12057TIP3    H157662   5.943   6.248   2.122  1.3063  1.2602  0.4882
12057TIP3    H257663   5.943   6.285   2.269  0.7555  1.6197  0.3989
12058TIP3   OH257664   3.614   3.097  15.507  0.0011  0.1009  0.6850
12058TIP3    H157665   3.662   3.175  15.481  1.6361 -0.9017  0.5916
12058TIP3    H257666   3.574   3.065  15.426  1.2907 -0.4560  0.2486
12059TIP3   OH257667   5.130   2.025  16.589  0.4086  0.1042 -0.0494
12059TIP3    H157668   5.196   1.954  16.586  1.0941  0.7426 -0.2400
12059TIP3    H257669   5.083   2.010  16.672 -0.0169 -1.0740 -0.4891
12060TIP3   OH257670   6.642   4.642  16.335 -0.0836 -0.1345  0.1274
12060TIP3    H157671   6.665   4.732  16.357 -1.2968  0.5067 -1.1245
12060TIP3    H257672   6.550   4.647  16.308 -0.0637 -1.7005 -0.2734
12061TIP3   OH257673   3.833   5.387  14.396  0.0265  0.0043  0.1265
12061TIP3    H157674   3.762   5.435  14.438 -0.0439 -0.3805  0.4528
12061TIP3    H257675   3.883   5.453  14.348  0.5450  0.5659  1.4207
12062TIP3   OH257676   0.980   3.557   5.608 -0.6020 -0.0981 -0.3691
12062TIP3    H157677   0.984   3.631   5.547  3.1678 -0.8390 -1.1763
12062TIP3    H257678   1.000   3.596   5.693 -0.3147  0.0674 -0.5114
12063TIP3   OH257679   5.066   2.172   6.258  1.0382  0.2921  0.1055
12063TIP3    H157680   4.986   2.157   6.208  1.4005 -1.7399  0.1072
12063TIP3    H257681   5.124   2.100   6.234  2.3418  0.9445  1.1971
12064TIP3   OH257682   0.069   2.845  11.283  0.1873 -0.1154 -0.1611
12064TIP3    H157683   0.141   2.897  11.318  0.4671 -0.7848  0.2497
12064TIP3    H257684   0.002   2.847  11.352  0.6866 -1.3237  0.3693
12065TIP3   OH257685   4.917   1.104  12.587 -0.1477  0.0651 -0.0062
12065TIP3    H157686   4.845   1.144  12.635 -0.9885 -0.9675 -0.4090
12065TIP3    H257687   4.961   1.178  12.545 -0.8363  0.7206  0.4113
12066TIP3   OH257688   3.939   4.191  12.804  0.3628  0.1577 -0.3843
12066TIP3    H157689   3.878   4.264  12.792 -0.9529 -1.0143 -1.1363
12066TIP3    H257690   4.018   4.218  12.758  0.2492  1.5371  0.2261
12067TIP3   OH257691   2.308   1.246   3.049  0.6958  0.8986  0.3664
12067TIP3    H157692   2.378   1.274   2.990  0.3451  0.7345 -0.1263
12067TIP3    H257693   2.262   1.327   3.070  1.6669  1.1700  1.5311
12068TIP3   OH257694   6.095   2.666  11.357 -0.3010 -0.6716 -0.1225
12068TIP3    H157695   6.099   2.614  11.277 -0.4020 -1.2041  0.2082
12068TIP3    H257696   6.031   2.734  11.339 -1.7916 -1.9637  0.1659
12069TIP3   OH257697   6.679   2.857   6.249 -0.6418 -0.0170 -0.3649
12069TIP3    H157698   6.637   2.942   6.232  1.0352  0.6487 -1.3049
12069TIP3    H257699   6.704   2.861   6.342  0.3668  0.9581 -0.6630
12070TIP3   OH257700   5.711   1.669   3.879 -0.5199 -0.3468  0.9296
12070TIP3    H157701   5.625   1.708   3.892 -0.3411  0.7047 -0.7875
12070TIP3    H257702   5.694   1.575   3.872 -1.1432 -0.4592  3.5445
12071TIP3   OH257703   1.837   3.676  13.512 -0.0118  0.3268 -0.2324
12071TIP3    H157704   1.917   3.703  13.557  0.6001  0.2272 -1.2497
12071TIP3    H257705   1.797   3.611  13.570  0.2752  0.9018  0.6113
12072TIP3   OH257706   5.286   0.299   2.157 -0.3117 -0.5062 -0.0855
12072TIP3    H157707   5.333   0.343   2.228 -1.1615 -0.2505  0.3225
12072TIP3    H257708   5.196   0.331   2.165 -0.0673  0.8413 -2.3225
12073TIP3   OH257709   2.802   4.730  13.747  0.0291  0.3917 -0.1258
12073TIP3    H157710   2.803   4.634  13.750 -2.4656  0.3027 -1.2090
12073TIP3    H257711   2.891   4.754  13.720  1.7705 -1.4241  3.6910
12074TIP3   OH257712   1.525   5.559   2.790 -0.4456 -0.1521 -0.0843
12074TIP3    H157713   1.491   5.556   2.701  0.1757  1.5149 -0.3993
12074TIP3    H257714   1.467   5.619   2.837 -1.2380 -1.6165  0.8656
12075TIP3   OH257715   5.149   2.587   1.811 -0.3677  0.4147 -0.4022
12075TIP3    H157716   5.083   2.518   1.811  0.6091 -0.5350  0.0227
12075TIP3    H257717   5.115   2.653   1.751 -1.4054 -0.3511 -0.6632
12076TIP3   OH257718   4.694   2.149  16.592 -0.5967  0.4451  0.1454
12076TIP3    H157719   4.774   2.129  16.542 -0.5049  0.7485  0.1715
12076TIP3    H257720   4.629   2.088  16.557 -0.0266 -0.6717  0.9856
12077TIP3   OH257721   4.005   1.647  16.397  0.9118  0.2105 -0.1485
12077TIP3    H157722   4.063   1.587  16.444  0.7625  0.5285  0.4528
12077TIP3    H257723   4.064   1.712  16.359  1.3161 -1.6912 -2.9144
12078TIP3   OH257724   6.500   1.985   1.787 -0.2091 -0.2573  0.2534
12078TIP3    H157725   6.554   2.051   1.743 -1.4273  0.3358 -0.3638
12078TIP3    H257726   6.478   1.922   1.718 -1.6697  0.3822  0.1290
12079TIP3   OH257727   5.963   5.460  15.560 -0.4720 -0.1613  0.0594
12079TIP3    H157728   5.926   5.537  15.516 -1.5641 -0.6864  0.0215
12079TIP3    H257729   5.990   5.492  15.646 -1.6889  0.1042  0.3617
12080TIP3   OH257730   6.814   2.532  13.485 -0.5774  0.0193  0.3378
12080TIP3    H157731   6.850   2.539  13.396  1.8064 -2.3071  1.0668
12080TIP3    H257732   6.808   2.438  13.501  0.4417  0.4042  3.2038
12081TIP3   OH257733   3.730   2.911   4.890 -0.2049  0.0944  0.0437
12081TIP3    H157734   3.800   2.865   4.936  1.7264  2.2262 -0.6657
12081TIP3    H257735   3.758   3.002   4.888 -2.5500  0.8338 -1.1243
12082TIP3   OH257736   4.539   1.812  16.945 -0.6028  0.6172  0.3939
12082TIP3    H157737   4.548   1.792  17.038 -0.4213 -1.0308  0.0375
12082TIP3    H257738   4.613   1.766  16.904 -0.9207  0.9944 -0.6005
12083TIP3   OH257739   3.193   2.448   5.385 -0.2210 -1.0934  0.2300
12083TIP3    H157740   3.182   2.395   5.307 -0.6022 -1.6969  0.6867
12083TIP3    H257741   3.108   2.444   5.430 -0.6231  0.8428 -0.3035
12084TIP3   OH257742   1.607   6.437  16.060  0.9142 -0.3039 -0.1385
12084TIP3    H157743   1.592   6.513  16.117 -0.2164 -0.7450  0.1438
12084TIP3    H257744   1.545   6.449  15.988  0.5146 -1.1296  0.0708
12085TIP3   OH257745   1.582   5.380   1.361  0.4520 -0.0559  0.4499
12085TIP3    H157746   1.610   5.310   1.420  1.3160 -1.2138 -1.2962
12085TIP3    H257747   1.521   5.338   1.300 -0.9147  1.2606  0.8759
12086TIP3   OH257748   2.930   5.006  16.860 -0.1099  0.4423 -0.1636
12086TIP3    H157749   3.007   5.052  16.895 -0.7071 -0.0679  1.8800
12086TIP3    H257750   2.905   4.945  16.929 -0.7316 -1.3459 -1.9226
12087TIP3   OH257751   1.854   0.488  10.642 -0.4300 -0.0587 -0.2044
12087TIP3    H157752   1.760   0.475  10.648 -0.3082 -1.4034 -1.0027
12087TIP3    H257753   1.885   0.415  10.588  0.9357  0.8978 -0.7395
12088TIP3   OH257754   2.736   4.266  12.938  0.4359 -0.4131 -0.4387
12088TIP3    H157755   2.816   4.215  12.928  0.3887 -0.4606 -0.5733
12088TIP3    H257756   2.693   4.228  13.015 -1.0828 -2.5661 -2.3226
12089TIP3   OH257757   4.847   3.892   4.454 -0.2331 -0.3702 -0.3218
12089TIP3    H157758   4.933   3.860   4.479 -0.1472 -0.0820 -0.2463
12089TIP3    H257759   4.816   3.940   4.531 -0.2712 -0.0925 -0.5085
12090TIP3   OH257760   4.029   1.415   5.317 -0.3163 -0.0917 -0.1471
12090TIP3    H157761   3.942   1.422   5.357 -0.1473  0.4922  0.1197
12090TIP3    H257762   4.070   1.500   5.332 -0.0356 -0.0625 -1.0725
12091TIP3   OH257763   5.410   1.196   3.894  0.3314 -0.4918  0.5933
12091TIP3    H157764   5.464   1.161   3.823  1.2162  0.9615  0.5218
12091TIP3    H257765   5.321   1.172   3.871  0.5921  0.0346 -1.0743
12092TIP3   OH257766   4.504   1.967   2.453 -0.3958 -0.2470  0.3903
12092TIP3    H157767   4.567   1.978   2.524  0.0979 -0.4544 -0.0156
12092TIP3    H257768   4.510   1.874   2.429  0.9304  0.2612 -1.3045
12093TIP3   OH257769   4.660   5.022  12.545 -0.0219 -0.4216 -0.3395
12093TIP3    H157770   4.698   5.109  12.530  1.3648 -1.0485 -0.5786
12093TIP3    H257771   4.632   4.993  12.458  0.5722 -0.6887 -0.4435
12094TIP3   OH257772   2.683   3.141  14.695  0.4146 -0.3957  0.4125
12094TIP3    H157773   2.688   3.177  14.606  0.9616  0.1310  0.6450
12094TIP3    H257774   2.590   3.125  14.710  0.2648  0.0255 -0.0563
12095TIP3   OH257775   6.067   1.189  14.636  0.0655  0.0729 -0.4128
12095TIP3    H157776   6.052   1.109  14.585  1.4871  0.8612 -2.1345
12095TIP3    H257777   5.989   1.242  14.621 -0.6042 -0.7093  0.2311
12096TIP3   OH257778   6.237   1.876   2.544 -0.1076  0.1726  0.0358
12096TIP3    H157779   6.197   1.933   2.610  0.1426  0.2332  0.1374
12096TIP3    H257780   6.198   1.904   2.461 -0.4964  0.0313  0.1669
12097TIP3   OH257781   2.851   6.777  16.253  0.4474 -0.6366  0.1349
12097TIP3    H157782   2.917   6.826  16.205  0.3517  0.8513  1.4737
12097TIP3    H257783   2.793   6.742  16.186  2.4377 -1.7361 -1.0250
12098TIP3   OH257784   5.974   3.070   5.399 -0.5762  0.2854  0.4301
12098TIP3    H157785   5.933   3.144   5.444  0.6452  1.0878  0.2537
12098TIP3    H257786   6.057   3.105   5.365  0.3770 -1.3571  0.9963
12099TIP3   OH257787   1.268   4.129  16.609  0.4290 -0.0099 -0.2089
12099TIP3    H157788   1.206   4.129  16.682  1.1693  0.6744  0.4196
12099TIP3    H257789   1.231   4.191  16.546  2.5677  3.6133  1.9600
12100TIP3   OH257790   6.486   5.947  11.924  0.0484 -0.3899  0.3447
12100TIP3    H157791   6.430   5.910  11.856 -1.3485  2.9450 -0.4149
12100TIP3    H257792   6.441   5.927  12.006 -0.3393 -0.9362  0.0052
12101TIP3   OH257793   3.277   1.667  14.263 -0.2945 -0.3032  0.0843
12101TIP3    H157794   3.351   1.717  14.296  1.8784 -2.3798 -1.5324
12101TIP3    H257795   3.271   1.591  14.321  0.1449 -1.1861 -1.0118
12102TIP3   OH257796   4.094   1.114  12.669 -0.1839  0.2436  0.0634
12102TIP3    H157797   4.066   1.176  12.736 -0.9784  0.7736 -0.7489
12102TIP3    H257798   4.021   1.111  12.607 -0.0647 -1.3459 -0.0238
12103TIP3   OH257799   0.348   4.282   2.838 -0.5778  0.0146 -0.4824
12103TIP3    H157800   0.321   4.374   2.844 -0.6173  0.0341 -0.9350
12103TIP3    H257801   0.270   4.237   2.804 -0.9896 -0.3965  0.9960
12104TIP3   OH257802   2.672   2.966  16.582 -0.6618  0.6333  0.2543
12104TIP3    H157803   2.731   3.011  16.522 -0.9424  1.9010  0.9148
12104TIP3    H257804   2.599   2.937  16.527  0.0853 -0.0704 -0.3824
12105TIP3   OH257805   0.293   6.035   1.671 -0.1142  0.2688  0.3263
12105TIP3    H157806   0.225   6.081   1.720  0.6851  0.2181  1.4923
12105TIP3    H257807   0.351   5.999   1.738  1.4943  0.9594 -0.6623
12106TIP3   OH257808   2.111   0.680  12.625  0.1866 -0.5397 -0.3896
12106TIP3    H157809   2.198   0.719  12.637 -0.0579  0.3447 -1.3491
12106TIP3    H257810   2.098   0.680  12.530 -0.6513 -1.1339 -0.2809
12107TIP3   OH257811   6.110   1.693  13.579 -0.3067  0.2439 -0.6863
12107TIP3    H157812   6.030   1.649  13.608  0.2853 -1.1049 -1.0985
12107TIP3    H257813   6.085   1.786  13.575 -1.1765  0.1414  1.5051
12108TIP3   OH257814   3.716   4.137  13.881 -0.0353 -0.0831 -0.4495
12108TIP3    H157815   3.696   4.173  13.968 -0.8636 -0.5039 -0.4604
12108TIP3    H257816   3.634   4.145  13.832  0.8064  1.4074 -1.6407
12109TIP3   OH257817   5.624   4.627   3.287 -0.5837 -0.0251 -0.4041
12109TIP3    H157818   5.617   4.673   3.370 -1.1362 -0.5944 -0.1396
12109TIP3    H257819   5.711   4.587   3.289 -0.5013  0.1636 -0.2098
12110TIP3   OH257820   1.804   6.686   0.489 -0.2342 -0.2465 -0.1475
12110TIP3    H157821   1.814   6.682   0.393 -1.1351  1.2103 -0.3207
12110TIP3    H257822   1.892   6.704   0.521  0.0709 -0.7180 -0.7100
12111TIP3   OH257823   1.524   1.195   5.480 -0.3326 -0.3978  0.2279
12111TIP3    H157824   1.577   1.175   5.557  0.3521  3.5142  0.8725
12111TIP3    H257825   1.438   1.219   5.514 -0.2767  0.5347 -0.2599
12112TIP3   OH257826   5.756   2.000  12.022  0.3321 -0.5423 -0.2491
12112TIP3    H157827   5.683   2.061  12.022  0.9038  0.1613  0.9234
12112TIP3    H257828   5.797   2.011  11.936  0.6073  0.9649  0.0605
12113TIP3   OH257829   4.488   5.889   6.663 -0.2683 -0.2640 -0.3693
12113TIP3    H157830   4.430   5.855   6.595 -1.1969  1.7945 -0.6461
12113TIP3    H257831   4.571   5.843   6.650 -0.9734 -1.1712 -1.7747
12114TIP3   OH257832   3.330   6.684  14.668 -0.7968 -0.4617 -0.0080
12114TIP3    H157833   3.367   6.772  14.669 -0.6860 -0.4914 -1.0199
12114TIP3    H257834   3.249   6.692  14.618  0.4420 -1.3985 -2.2463
12115TIP3   OH257835   1.772   4.491   4.167 -0.4420 -0.3981  0.1175
12115TIP3    H157836   1.854   4.512   4.123  0.0952 -0.8903  0.8755
12115TIP3    H257837   1.757   4.399   4.147 -1.2444 -0.1005 -0.7054
12116TIP3   OH257838   0.198   2.457   3.494 -0.4331 -0.3793 -0.3409
12116TIP3    H157839   0.119   2.415   3.528 -0.1191  0.3765  1.3214
12116TIP3    H257840   0.179   2.551   3.498  0.6238 -0.1917  0.2613
12117TIP3   OH257841   3.011   2.978   0.138  0.3234  0.0080  0.2759
12117TIP3    H157842   3.101   2.944   0.144  1.5183  3.1532  1.1307
12117TIP3    H257843   2.964   2.931   0.207  1.7547 -0.4650  0.9666
12118TIP3   OH257844   5.955   6.483  13.765  0.4895  0.4474  0.3171
12118TIP3    H157845   6.019   6.549  13.740  0.0259  1.2435  1.2293
12118TIP3    H257846   6.006   6.419  13.816  1.1051 -0.3579 -1.2360
12119TIP3   OH257847   1.233   1.330   0.665  0.1414  0.2282  0.2060
12119TIP3    H157848   1.265   1.392   0.599 -0.0137  0.7239  0.5918
12119TIP3    H257849   1.146   1.305   0.633  0.4536 -0.2651 -0.2668
12120TIP3   OH257850   5.596   4.081  11.557  0.8979 -0.1405  0.0661
12120TIP3    H157851   5.604   4.002  11.504  1.7168 -0.8206  1.1979
12120TIP3    H257852   5.592   4.050  11.647  0.0002  1.0463  0.4556
12121TIP3   OH257853   4.687   1.100  13.871 -0.0492 -0.4057  0.1072
12121TIP3    H157854   4.739   1.114  13.950  2.3434 -1.8161 -1.1249
12121TIP3    H257855   4.753   1.090  13.802 -2.0174 -1.9250 -1.5859
12122TIP3   OH257856   3.506   4.532  12.315  0.1309  0.5082 -0.2214
12122TIP3    H157857   3.471   4.551  12.228  1.2104  2.8476 -0.2093
12122TIP3    H257858   3.597   4.507  12.299  0.2784  0.7712  0.1924
12123TIP3   OH257859   6.689   4.794  11.501 -0.0803  0.2435  0.2160
12123TIP3    H157860   6.775   4.756  11.519 -0.1339 -0.2080 -0.4725
12123TIP3    H257861   6.645   4.729  11.446 -0.7734  0.5829  0.3606
12124TIP3   OH257862   4.996   6.081  15.695  0.0821  0.4515  0.1086
12124TIP3    H157863   4.960   6.141  15.629 -0.8508 -0.5199 -0.2632
12124TIP3    H257864   5.058   6.027  15.646  0.4861  0.7020  0.3345
12125TIP3   OH257865   1.745   5.895   4.419 -0.4127 -0.4193 -0.1219
12125TIP3    H157866   1.716   5.822   4.475  0.0806 -0.3410  0.2359
12125TIP3    H257867   1.839   5.901   4.434 -0.3437 -0.1328 -0.6567
12126TIP3   OH257868   3.467   4.098  13.202 -0.0286 -0.2968  0.5620
12126TIP3    H157869   3.388   4.049  13.182  0.3030 -0.1346 -1.1831
12126TIP3    H257870   3.521   4.092  13.124  1.9176 -0.8078  1.9031
12127TIP3   OH257871   0.733   1.238   1.017  0.6226 -0.0472  0.0470
12127TIP3    H157872   0.682   1.307   1.059  1.2611  0.1148  0.5850
12127TIP3    H257873   0.714   1.246   0.924 -2.9477 -2.1406  0.5037
12128TIP3   OH257874   4.837   0.783   2.876 -0.4651 -0.4326 -0.2776
12128TIP3    H157875   4.894   0.763   2.951  1.7109  1.3276 -1.3962
12128TIP3    H257876   4.754   0.809   2.915 -0.4948 -2.9183  1.4157
12129TIP3   OH257877   2.699   2.707  13.158 -0.5456  0.5591  0.0374
12129TIP3    H157878   2.666   2.779  13.106  0.7647  1.9724  1.1163
12129TIP3    H257879   2.634   2.696  13.228 -0.3826  1.1797  0.2904
12130TIP3   OH257880   0.468   2.112   5.842  0.2224  0.0662 -0.0078
12130TIP3    H157881   0.478   2.191   5.896 -1.4770 -0.0582  0.5433
12130TIP3    H257882   0.425   2.143   5.762  0.1631 -0.1841 -0.0739
12131TIP3   OH257883   1.023   4.302  17.198  0.3651  0.7326  0.5711
12131TIP3    H157884   0.961   4.352  17.147 -1.3454 -1.0432  0.8614
12131TIP3    H257885   1.021   4.214  17.160  0.1360 -0.2363  2.7448
12132TIP3   OH257886   3.840   5.490   2.491 -0.5611 -0.0747 -0.2485
12132TIP3    H157887   3.749   5.500   2.462 -1.0433 -1.3612  0.7431
12132TIP3    H257888   3.846   5.545   2.569 -0.6718 -0.4190  0.0100
12133TIP3   OH257889   6.576   4.820  14.555 -0.1825  0.1063 -0.1364
12133TIP3    H157890   6.575   4.873  14.634  0.3382 -0.3956  0.2134
12133TIP3    H257891   6.530   4.740  14.579  2.3962 -1.2565  0.5434
12134TIP3   OH257892   3.981   0.187   2.120  0.4772 -0.1525  0.2009
12134TIP3    H157893   3.926   0.212   2.194  0.4299  1.0140 -0.2159
12134TIP3    H257894   4.057   0.245   2.127  1.5170 -1.5574  0.6061
12135TIP3   OH257895   4.798   5.159   4.884  0.3029  0.3612  0.1027
12135TIP3    H157896   4.809   5.071   4.846 -1.0384  0.1800  0.1074
12135TIP3    H257897   4.884   5.200   4.874  0.9310 -0.9272  0.0320
12136TIP3   OH257898   0.540   0.440  16.919  0.0532 -0.6475  0.0490
12136TIP3    H157899   0.531   0.486  17.002 -0.3775 -0.1945 -0.2443
12136TIP3    H257900   0.618   0.477  16.878 -1.4061  1.2399 -1.0772
12137TIP3   OH257901   2.382   2.264  15.505  0.3251  0.6668 -0.2754
12137TIP3    H157902   2.423   2.351  15.506  1.7268  0.0151  0.1843
12137TIP3    H257903   2.290   2.281  15.521  0.5794  2.0767 -0.2067
12138TIP3   OH257904   5.005   5.709  16.840 -0.3460  0.2134  0.0649
12138TIP3    H157905   4.926   5.667  16.806 -0.2728  0.3412 -0.2667
12138TIP3    H257906   5.077   5.671  16.789 -0.1660 -0.0939  0.5423
12139TIP3   OH257907   3.930   1.349   6.465 -0.4659  0.4113  0.1868
12139TIP3    H157908   3.994   1.290   6.426 -1.5087 -0.0184 -0.9167
12139TIP3    H257909   3.865   1.291   6.506 -0.9884  0.8088 -0.0710
12140TIP3   OH257910   2.855   2.149  11.395 -0.4113 -0.2003  0.1638
12140TIP3    H157911   2.787   2.084  11.377  2.3551 -2.4110 -2.6552
12140TIP3    H257912   2.812   2.233  11.378 -2.9201 -1.4520  0.0824
12141TIP3   OH257913   0.030   5.906   5.726 -0.2316 -0.1725 -0.1219
12141TIP3    H157914  -0.021   5.922   5.647  0.8111 -1.6188 -1.1291
12141TIP3    H257915  -0.015   5.834   5.769 -0.1558 -0.1382  0.0133
12142TIP3   OH257916   0.344   3.579   4.483 -0.3933  1.0034 -0.1656
12142TIP3    H157917   0.350   3.541   4.395 -1.8938  0.2438  0.0538
12142TIP3    H257918   0.309   3.509   4.538 -1.6247  2.1633  0.5749
12143TIP3   OH257919   0.026   5.304   1.482 -0.7774  0.1011  0.0010
12143TIP3    H157920  -0.030   5.333   1.410 -1.5147 -0.0178  0.5194
12143TIP3    H257921   0.074   5.383   1.508 -3.1815  1.0391  1.7712
12144TIP3   OH257922   5.573   3.138  11.785 -0.1984 -0.0270  0.3056
12144TIP3    H157923   5.663   3.120  11.758  0.4479  1.6492  1.3021
12144TIP3    H257924   5.568   3.107  11.875 -0.3141  0.8424  0.5998
12145TIP3   OH257925   1.819   5.950  15.771 -0.0329 -0.2281 -0.1346
12145TIP3    H157926   1.735   5.967  15.812 -0.9096  0.1178 -2.0452
12145TIP3    H257927   1.803   5.874  15.715  0.7622  0.2547 -1.0200
12146TIP3   OH257928   5.581   2.972  11.029 -0.9058  0.0121 -0.1566
12146TIP3    H157929   5.565   2.964  11.123 -0.4917 -1.1278 -0.1767
12146TIP3    H257930   5.638   3.049  11.021 -0.5025 -0.2077  0.5778
12147TIP3   OH257931   2.999   4.796   1.124  0.4596 -0.1548 -0.6277
12147TIP3    H157932   3.060   4.772   1.193  0.9030 -0.3011 -1.0658
12147TIP3    H257933   3.055   4.818   1.049 -0.0270 -0.3075 -1.0380
12148TIP3   OH257934   0.749   1.592   0.085 -0.0657 -0.3140  0.7045
12148TIP3    H157935   0.773   1.510   0.042 -0.5599 -0.9310  1.6144
12148TIP3    H257936   0.731   1.568   0.176  0.5954  0.9314  1.1741
12149TIP3   OH257937   3.179   2.719   4.793 -0.0095 -0.1616  0.5344
12149TIP3    H157938   3.246   2.755   4.734 -1.3728  0.0784 -0.9208
12149TIP3    H257939   3.098   2.724   4.742 -0.8115 -2.1745  1.5776
12150TIP3   OH257940   6.340   5.678   0.402 -0.4720  0.2445 -0.3577
12150TIP3    H157941   6.401   5.689   0.329  0.0733  0.1133  0.0727
12150TIP3    H257942   6.302   5.591   0.389  1.4507 -0.8215  0.8537
12151TIP3   OH257943   5.218   4.724  10.951 -0.1904  0.2861  0.2417
12151TIP3    H157944   5.256   4.721  10.863  1.2871 -0.1952  0.8782
12151TIP3    H257945   5.274   4.666  11.003 -0.8082  0.8820  1.5929
12152TIP3   OH257946   6.803   3.308  11.696 -0.1250  0.2926  0.1209
12152TIP3    H157947   6.728   3.253  11.670 -0.3204  1.3713 -1.6581
12152TIP3    H257948   6.804   3.302  11.792 -1.8222 -0.6256  0.1153
12153TIP3   OH257949   0.690   5.285  12.927 -0.2522 -0.2766 -0.0572
12153TIP3    H157950   0.618   5.341  12.955 -1.5039 -0.3347 -2.9680
12153TIP3    H257951   0.753   5.289  12.999 -1.9767  1.8647  1.4047
12154TIP3   OH257952   2.529   2.843   5.086 -0.0235  0.8002  0.3319
12154TIP3    H157953   2.504   2.762   5.131  1.2265  1.6663  2.6523
12154TIP3    H257954   2.452   2.899   5.092 -0.5074  0.2019 -0.2909
12155TIP3   OH257955   2.276   1.035  11.368 -0.2217 -0.3350  0.1822
12155TIP3    H157956   2.308   1.018  11.280  0.0022  4.2238 -0.7411
12155TIP3    H257957   2.196   0.983  11.375  0.6036 -1.9767 -2.1244
12156TIP3   OH257958   1.955   0.515   4.115  0.3730  0.2109  0.3485
12156TIP3    H157959   2.007   0.575   4.061  0.3907 -1.5166 -1.6401
12156TIP3    H257960   1.864   0.538   4.096  0.3580  2.3760  2.8393
12157TIP3   OH257961   4.000   2.290   4.138  0.2652 -0.1138  0.0980
12157TIP3    H157962   3.920   2.312   4.186  0.4633  1.9131 -0.4647
12157TIP3    H257963   4.070   2.311   4.199  0.4249 -1.2268  0.3240
12158TIP3   OH257964   5.299   2.942  14.857 -0.0999 -0.1589  0.4047
12158TIP3    H157965   5.278   2.942  14.950  1.2251 -0.5050  0.7057
12158TIP3    H257966   5.372   2.882  14.848  0.1185  0.2623 -0.7848
12159TIP3   OH257967   0.694   0.644   2.534 -0.5048  0.0520  0.6385
12159TIP3    H157968   0.729   0.700   2.603 -1.6157 -0.3856  1.5782
12159TIP3    H257969   0.627   0.698   2.491 -1.4557 -0.4745  1.4331
12160TIP3   OH257970   2.228   1.408   1.747 -0.3325  0.3751 -0.1655
12160TIP3    H157971   2.182   1.371   1.673  1.0057  3.6906 -2.8016
12160TIP3    H257972   2.170   1.477   1.779 -0.1542  0.0791  0.8184
12161TIP3   OH257973   2.785   3.709   4.810  0.6328 -0.2227  0.3532
12161TIP3    H157974   2.731   3.631   4.799  1.1157 -0.4271 -0.6379
12161TIP3    H257975   2.874   3.675   4.820  0.7118  0.1573  0.9749
12162TIP3   OH257976   0.943   1.233   5.691 -0.2040 -0.1161  0.7263
12162TIP3    H157977   0.874   1.298   5.702 -0.2349 -0.0975  0.4332
12162TIP3    H257978   0.961   1.232   5.596 -1.5374 -1.8918  0.4679
12163TIP3   OH257979   4.608   5.935   5.025 -0.2353 -0.3077 -0.6498
12163TIP3    H157980   4.583   5.845   5.001  0.2966 -1.0262  1.3181
12163TIP3    H257981   4.568   5.948   5.111 -0.2451  1.3295 -0.8888
12164TIP3   OH257982   3.758   3.683   1.894  0.2828  0.4006 -0.3766
12164TIP3    H157983   3.680   3.653   1.846 -0.0550  0.7442 -0.0473
12164TIP3    H257984   3.829   3.630   1.858 -0.2319 -0.5010 -0.1027
12165TIP3   OH257985   5.060   2.454  13.302 -0.6279 -0.8663  0.5174
12165TIP3    H157986   5.074   2.544  13.332  0.9030 -0.8660 -0.1396
12165TIP3    H257987   5.055   2.403  13.383  0.0795 -0.4028  0.8597
12166TIP3   OH257988   3.272   5.120   1.771 -0.0163  0.0675  0.2482
12166TIP3    H157989   3.266   5.025   1.775  1.7236 -0.1245 -1.0834
12166TIP3    H257990   3.344   5.142   1.830 -2.2993  0.8563  2.8694
12167TIP3   OH257991   2.609   4.585   6.112 -0.5086  0.4118 -0.4862
12167TIP3    H157992   2.567   4.506   6.080 -1.0428  0.1241  0.8517
12167TIP3    H257993   2.583   4.653   6.050 -2.3523  0.0841 -0.1054
12168TIP3   OH257994   2.788   2.622   6.023  0.6681  0.3756 -0.2295
12168TIP3    H157995   2.714   2.598   6.078 -0.2956  1.8155 -0.8687
12168TIP3    H257996   2.796   2.550   5.960  1.2963 -0.8992  1.2948
12169TIP3   OH257997   5.547   3.242  11.534  0.7265  0.1635 -0.0553
12169TIP3    H157998   5.603   3.243  11.611  1.3581 -0.1635 -0.5001
12169TIP3    H257999   5.467   3.197  11.562  0.5512  0.9302  0.6786
12170TIP3   OH258000   5.249   0.525  16.506 -0.4994  0.0651  0.2668
12170TIP3    H158001   5.207   0.446  16.541 -0.0502 -0.8086 -1.1169
12170TIP3    H258002   5.341   0.516  16.530 -0.3810 -0.0270 -0.2108
12171TIP3   OH258003   3.483   6.492  12.569  0.3446  0.6342 -0.7080
12171TIP3    H158004   3.409   6.500  12.509 -1.5630 -1.9159  1.1743
12171TIP3    H258005   3.469   6.408  12.613  3.0123  1.2825  1.5112
12172TIP3   OH258006   4.582   6.441  16.257 -0.1309 -0.2842  0.5552
12172TIP3    H158007   4.507   6.415  16.204  1.5311 -0.2599 -1.8891
12172TIP3    H258008   4.544   6.482  16.335 -2.6111  0.4700 -1.0289
12173TIP3   OH258009   5.649   0.366  13.887  0.3767 -0.7822 -0.6512
12173TIP3    H158010   5.727   0.416  13.912  0.5150 -0.7854 -1.0805
12173TIP3    H258011   5.607   0.418  13.819 -0.4611 -0.3616  0.1745
12174TIP3   OH258012   3.057   5.915   2.790 -0.2155 -0.0182  0.0547
12174TIP3    H158013   3.083   5.907   2.881 -0.4046 -0.7097  0.0472
12174TIP3    H258014   3.025   5.828   2.766 -1.0572  0.4112 -0.3908
12175TIP3   OH258015   5.331   6.260  14.762  0.4262  0.1592  0.1684
12175TIP3    H158016   5.281   6.178  14.761 -0.4138  0.6707 -1.7910
12175TIP3    H258017   5.393   6.251  14.690  0.2020  1.3224 -0.1714
12176TIP3   OH258018   5.907   6.153  12.425  0.5683 -0.2840 -0.0348
12176TIP3    H158019   5.914   6.222  12.358 -2.2150  0.0576 -0.0559
12176TIP3    H258020   5.916   6.072  12.376 -1.5712 -0.0371 -0.9088
12177TIP3   OH258021   6.083   5.792   0.471 -0.0319 -0.0811 -0.1106
12177TIP3    H158022   6.081   5.873   0.522  0.7979 -0.2564  0.2078
12177TIP3    H258023   6.176   5.773   0.460 -0.2053 -1.9153  1.3253
12178TIP3   OH258024   2.393   6.179   5.461 -0.5957 -0.1766 -0.4946
12178TIP3    H158025   2.408   6.170   5.367 -1.1059  2.4694 -0.8640
12178TIP3    H258026   2.473   6.143   5.501 -0.9684 -2.6364 -1.8300
12179TIP3   OH258027   4.574   1.620   2.708  0.3277 -0.3341  0.2244
12179TIP3    H158028   4.516   1.604   2.782 -0.6887 -0.5580 -0.6157
12179TIP3    H258029   4.657   1.646   2.748 -0.4497  0.3384  1.4331
12180TIP3   OH258030   4.224   3.082   0.415  0.0907 -0.1994 -0.3652
12180TIP3    H158031   4.293   3.071   0.481  0.9071  0.2823 -1.1253
12180TIP3    H258032   4.265   3.054   0.333 -0.5023  0.4375 -0.8864
12181TIP3   OH258033   5.407   5.630  15.637 -0.2414  0.1605 -0.2039
12181TIP3    H158034   5.352   5.606  15.712  0.2643 -0.8082 -0.1324
12181TIP3    H258035   5.492   5.652  15.675  0.0959 -0.5907 -0.4977
12182TIP3   OH258036   5.718   5.375   0.497  0.1976 -0.6668 -0.0583
12182TIP3    H158037   5.794   5.434   0.503  0.5792 -1.2445  0.9246
12182TIP3    H258038   5.733   5.310   0.565 -0.6816 -1.3805 -0.5382
12183TIP3   OH258039   0.565   1.374  17.098  0.9544 -0.2511  0.3641
12183TIP3    H158040   0.570   1.411  17.009  0.3856 -0.0910  0.3945
12183TIP3    H258041   0.491   1.313  17.094  1.8599 -1.3669  0.3276
12184TIP3   OH258042   3.649   5.455  13.241 -0.1892  0.3149  0.0876
12184TIP3    H158043   3.592   5.464  13.164  1.3713 -0.6589 -1.2116
12184TIP3    H258044   3.589   5.450  13.315 -1.7408  0.8016 -1.1133
12185TIP3   OH258045   3.832   1.418   3.459 -0.0921  0.0469  0.4487
12185TIP3    H158046   3.923   1.407   3.432  0.1679  1.0046  0.8910
12185TIP3    H258047   3.788   1.453   3.382 -0.0608 -0.3202  0.2648
12186TIP3   OH258048   2.446   5.167   6.695 -0.2569  0.0897 -0.1340
12186TIP3    H158049   2.382   5.096   6.697  1.3004 -1.3396  0.3133
12186TIP3    H258050   2.465   5.180   6.603  0.8041 -1.3507 -0.1384
12187TIP3   OH258051   5.449   5.112  15.839 -0.1523  0.1308  0.6602
12187TIP3    H158052   5.363   5.124  15.880 -0.3281 -0.0481  0.3432
12187TIP3    H258053   5.476   5.024  15.865 -0.1661  0.1011  0.5771
12188TIP3   OH258054   3.332   2.083   0.301 -0.4708 -0.2264 -0.1955
12188TIP3    H158055   3.308   2.048   0.215 -2.4256  2.6096 -0.8906
12188TIP3    H258056   3.347   2.176   0.286  2.9784 -0.3523  1.8723
12189TIP3   OH258057   5.463   3.986  14.439  0.1429 -0.4445  0.3930
12189TIP3    H158058   5.502   3.931  14.506  0.4902 -0.2428  0.3554
12189TIP3    H258059   5.513   4.068  14.442  1.1279 -0.9753 -1.1297
12190TIP3   OH258060   4.820   3.320  16.372  0.4124  0.3421 -0.0626
12190TIP3    H158061   4.765   3.254  16.329 -1.0560  1.2059  0.4888
12190TIP3    H258062   4.802   3.310  16.465  1.8772  0.0308  0.2068
12191TIP3   OH258063   0.778   2.712  16.418 -0.0844  0.0642  0.3636
12191TIP3    H158064   0.716   2.698  16.490 -0.3886  0.2417  0.1363
12191TIP3    H258065   0.769   2.635  16.362  0.2711 -0.1526  0.5990
12192TIP3   OH258066   5.481   2.710  10.958 -0.7009 -0.6043  0.1788
12192TIP3    H158067   5.550   2.647  10.978 -0.9741 -1.1367 -0.5670
12192TIP3    H258068   5.511   2.792  10.999 -0.2584 -1.1593  0.9871
12193TIP3   OH258069   1.778   0.848  11.028  0.1636  0.1160 -0.7456
12193TIP3    H158070   1.735   0.803  10.955  0.9648 -0.9369 -0.5871
12193TIP3    H258071   1.871   0.825  11.018  0.2112 -0.4775  0.9009
12194TIP3   OH258072   0.662   4.387  14.189  0.1364  0.5776 -0.3255
12194TIP3    H158073   0.591   4.447  14.212  0.0056 -0.2521  1.5315
12194TIP3    H258074   0.711   4.432  14.120 -1.4822  1.6750 -0.7840
12195TIP3   OH258075   2.118   0.131  17.120 -0.0062  0.2282  0.2454
12195TIP3    H158076   2.118   0.159  17.211 -1.3917  1.2060 -0.0299
12195TIP3    H258077   2.027   0.141  17.092  0.7059  1.5072 -1.6996
12196TIP3   OH258078   2.105   1.215  15.709  0.2631 -0.3430 -0.1198
12196TIP3    H158079   2.052   1.137  15.700 -0.9354  0.4631 -0.1667
12196TIP3    H258080   2.082   1.269  15.633 -0.7070  1.0836  1.1486
12197TIP3   OH258081   0.787   2.963   2.172  0.4678 -0.0909 -0.1103
12197TIP3    H158082   0.776   2.947   2.265 -1.5420 -2.6892 -0.7284
12197TIP3    H258083   0.768   3.056   2.160  2.7146  0.7330  2.3007
12198TIP3   OH258084   2.791   2.479  17.241  0.3605  0.2167 -0.1029
12198TIP3    H158085   2.739   2.400  17.258 -0.3566  0.7667  0.2387
12198TIP3    H258086   2.731   2.539  17.197  0.8444  0.6660 -0.1560
12199TIP3   OH258087   5.905   1.230   5.758 -0.0790  0.0422 -0.4717
12199TIP3    H158088   5.900   1.139   5.786  3.3288  0.3115  1.2205
12199TIP3    H258089   5.872   1.280   5.834 -1.4323  0.2934 -1.1974
12200TIP3   OH258090   5.637   4.677  15.103 -0.2004 -0.4817  0.7320
12200TIP3    H158091   5.640   4.764  15.063 -0.4189  0.5492  2.8792
12200TIP3    H258092   5.726   4.644  15.096  0.1240  0.3608  0.7957
12201TIP3   OH258093   0.599   5.095  13.458  0.0353  0.5273  0.3236
12201TIP3    H158094   0.519   5.078  13.407  0.7645  1.3497 -1.1397
12201TIP3    H258095   0.571   5.088  13.549 -1.3709 -0.7420 -0.1670
12202TIP3   OH258096   6.487   6.226  17.038  0.1194 -0.2206 -0.4455
12202TIP3    H158097   6.511   6.239  16.947  0.0025 -0.5440 -0.5244
12202TIP3    H258098   6.395   6.200  17.035  0.3165 -0.9574 -0.2909
12203TIP3   OH258099   3.117   0.062   1.579 -0.2073 -0.2136  0.0863
12203TIP3    H158100   3.116  -0.011   1.516 -2.1061  0.4234 -0.6395
12203TIP3    H258101   3.114   0.140   1.525  0.6891  0.4047  0.9143
12204TIP3   OH258102   3.275   1.237   5.619 -0.5682 -0.3981  0.3052
12204TIP3    H158103   3.322   1.270   5.696  0.6968  1.0602 -1.0487
12204TIP3    H258104   3.192   1.284   5.619 -0.1921  0.2738  0.2885
12205TIP3   OH258105   1.433   6.452   3.906  0.3203 -0.7072  0.6985
12205TIP3    H158106   1.471   6.491   3.828  4.7628 -0.6350  2.7179
12205TIP3    H258107   1.381   6.378   3.874 -0.1193  0.8945 -2.4232
12206TIP3   OH258108   6.130   6.330   5.230 -0.5105  0.3529 -0.0002
12206TIP3    H158109   6.213   6.317   5.276 -1.3418 -0.8172  1.1871
12206TIP3    H258110   6.153   6.324   5.137  1.0494  1.9569  0.2575
12207TIP3   OH258111   1.781   1.951  14.233  0.2759  0.7715 -0.2701
12207TIP3    H158112   1.716   1.956  14.302  0.7961  2.2026  0.1259
12207TIP3    H258113   1.794   1.857  14.219 -0.1371  0.4758  1.2797
12208TIP3   OH258114   6.529   6.432   2.346  0.2715 -0.7432  0.1968
12208TIP3    H158115   6.546   6.526   2.353 -0.5011 -0.5302 -0.7059
12208TIP3    H258116   6.449   6.418   2.397 -1.3118 -0.3935 -2.1458
12209TIP3   OH258117   3.408   3.518  13.840 -0.0420 -0.0379 -0.0349
12209TIP3    H158118   3.361   3.477  13.767  0.6939  0.6201 -0.8782
12209TIP3    H258119   3.374   3.607  13.844 -0.3170 -0.1683  0.6406
12210TIP3   OH258120   0.071   5.737   1.309 -0.6649  0.3439  0.2930
12210TIP3    H158121   0.157   5.756   1.272 -1.6034  1.5428 -1.3595
12210TIP3    H258122   0.066   5.788   1.389 -0.0316  0.6436  0.1384
12211TIP3   OH258123   4.722   3.521  14.304 -0.2153 -0.1217 -0.7318
12211TIP3    H158124   4.738   3.592  14.366  0.5302 -0.3206 -0.6868
12211TIP3    H258125   4.809   3.485  14.285 -0.6191 -1.2940 -0.4250
12212TIP3   OH258126   0.814   1.182   2.726  0.3468 -0.4670  0.0402
12212TIP3    H158127   0.856   1.230   2.797 -1.1947 -0.5209  1.0040
12212TIP3    H258128   0.724   1.170   2.755  0.0652 -1.7322 -1.3025
12213TIP3   OH258129   5.934   1.116   0.479  0.2831  0.4251 -0.6466
12213TIP3    H158130   5.921   1.178   0.408 -2.8266  1.7484  0.9519
12213TIP3    H258131   5.858   1.059   0.475 -0.1613  0.7888  1.8406
12214TIP3   OH258132   2.964   4.334  13.947  0.4755  0.4517 -0.2035
12214TIP3    H158133   3.041   4.322  13.891  1.5127  1.4694  0.9638
12214TIP3    H258134   2.978   4.274  14.020 -0.8842 -0.8902 -1.0057
12215TIP3   OH258135   4.403   1.089   5.800 -0.0758 -0.2452  0.2110
12215TIP3    H158136   4.327   1.147   5.798  1.3797  1.6849 -2.1553
12215TIP3    H258137   4.465   1.133   5.858  0.4574 -0.1854 -0.4003
12216TIP3   OH258138   1.505   3.058  13.355 -0.3254  0.1371 -0.0223
12216TIP3    H158139   1.587   3.075  13.308 -1.0627  0.1140 -1.3522
12216TIP3    H258140   1.456   3.001  13.296 -0.5116 -1.4277  1.6012
12217TIP3   OH258141   5.192   0.671  14.112 -0.5821 -0.3090  0.1183
12217TIP3    H158142   5.279   0.665  14.151 -0.8394  2.5078  1.2681
12217TIP3    H258143   5.206   0.717  14.030 -1.0720  0.8606  0.6801
12218TIP3   OH258144   4.324   3.006  11.221 -0.5753 -0.8053 -0.3434
12218TIP3    H158145   4.365   2.925  11.251  0.0475 -0.0408  0.9544
12218TIP3    H258146   4.233   2.983  11.206 -0.3301 -1.8214 -0.3091
12219TIP3   OH258147   5.268   3.493   0.942  0.1022 -0.2954  0.2698
12219TIP3    H158148   5.197   3.431   0.927 -0.7281  0.7939 -0.3106
12219TIP3    H258149   5.341   3.458   0.890 -0.8284  0.0344 -1.2865
12220TIP3   OH258150   5.466   1.377  15.562  0.1416 -0.4107  0.0330
12220TIP3    H158151   5.500   1.295  15.527  1.9528  0.6671 -0.7800
12220TIP3    H258152   5.492   1.376  15.654  0.6522 -0.4894 -0.1115
12221TIP3   OH258153   6.406   0.637   5.135 -0.0354  0.0988  0.0531
12221TIP3    H158154   6.451   0.643   5.219  1.2474  3.0612 -0.7550
12221TIP3    H258155   6.473   0.658   5.070 -1.3498 -0.6424 -1.5959
12222TIP3   OH258156   4.561   4.622  15.649  0.3853  0.0861 -0.3189
12222TIP3    H158157   4.531   4.531  15.641  1.7630 -0.4349  0.3427
12222TIP3    H258158   4.528   4.651  15.734  0.7739 -0.1202 -0.0950
12223TIP3   OH258159   5.582   0.158  14.045  0.6069  0.2822 -0.2058
12223TIP3    H158160   5.592   0.216  13.968  1.3725 -0.3476 -0.5847
12223TIP3    H258161   5.497   0.183  14.082  0.1641  0.5138 -1.3302
12224TIP3   OH258162   3.464   3.233   0.866 -0.1640 -0.3667 -0.6480
12224TIP3    H158163   3.400   3.234   0.795 -0.1430 -0.1834 -0.6643
12224TIP3    H258164   3.448   3.314   0.914 -1.3795 -1.3313  0.6129
12225TIP3   OH258165   6.023   0.976  11.929  0.1480 -0.0584 -0.8056
12225TIP3    H158166   6.028   0.992  11.835 -0.1404 -0.0415 -0.8163
12225TIP3    H258167   5.930   0.979  11.950  0.3226  2.3610 -0.1143
12226TIP3   OH258168   1.163   3.678  14.656  0.7463  0.4494 -0.4007
12226TIP3    H158169   1.190   3.589  14.676  1.8381  1.0390  0.8389
12226TIP3    H258170   1.085   3.668  14.600  0.4833 -1.2547  0.2461
12227TIP3   OH258171   4.939   2.811  13.681  0.2478 -0.0190 -0.3872
12227TIP3    H158172   4.899   2.752  13.617  0.6057 -0.2361 -0.4073
12227TIP3    H258173   4.873   2.880  13.693  0.1264 -0.0416 -0.8938
12228TIP3   OH258174   4.055   0.149   1.635 -0.0409 -0.0984  0.5406
12228TIP3    H158175   4.044   0.082   1.702 -0.8089  0.2736  0.7893
12228TIP3    H258176   3.980   0.138   1.577 -0.9567  1.4695  1.3910
12229TIP3   OH258177   6.053   0.869  15.145  0.0284  0.3567  0.2465
12229TIP3    H158178   6.087   0.911  15.065 -1.3350  0.2439 -0.3996
12229TIP3    H258179   6.127   0.819  15.179  1.2162  1.9959  0.1490
12230TIP3   OH258180   1.165   2.653   2.028  0.0320  0.5124  0.0770
12230TIP3    H158181   1.131   2.716   1.965  0.7438 -0.6326 -1.4998
12230TIP3    H258182   1.100   2.582   2.027  1.9734 -1.3519 -2.4152
12231TIP3   OH258183   1.295   5.788  13.743 -0.1711 -0.2909 -0.5197
12231TIP3    H158184   1.210   5.807  13.783 -0.4355 -0.8284 -0.8153
12231TIP3    H258185   1.315   5.865  13.690 -0.2828  0.0092 -0.1324
12232TIP3   OH258186   5.215   3.581   1.346 -0.1368  0.3750  0.0572
12232TIP3    H158187   5.284   3.515   1.360  0.6072  1.1148 -0.1077
12232TIP3    H258188   5.227   3.644   1.417 -2.0341 -0.6444  1.3287
12233TIP3   OH258189   6.454   2.361   5.655  0.0309 -0.3184 -0.7121
12233TIP3    H158190   6.425   2.382   5.566 -0.8557  1.1588 -0.0944
12233TIP3    H258191   6.550   2.364   5.650 -0.0388  1.6830 -1.1894
12234TIP3   OH258192   1.449   3.743  14.068 -1.0068  0.3458 -0.0853
12234TIP3    H158193   1.493   3.752  13.984 -0.0496  1.3386  0.5119
12234TIP3    H258194   1.499   3.676  14.115 -1.5641 -0.2375 -0.3038
12235TIP3   OH258195   0.051   3.414  13.156 -0.0945 -0.0343 -0.1259
12235TIP3    H158196   0.002   3.496  13.161  1.3556  0.8628 -0.3200
12235TIP3    H258197   0.039   3.375  13.243  1.3373  1.6751  0.9080
12236TIP3   OH258198   1.788   3.072  13.456 -1.0490 -0.2695 -0.2293
12236TIP3    H158199   1.802   3.165  13.469  1.1174 -0.6938  0.6440
12236TIP3    H258200   1.704   3.054  13.498 -0.6983  0.9813  1.0345
12237TIP3   OH258201   6.017   2.859   5.636  0.1628 -0.6643 -0.1655
12237TIP3    H158202   5.997   2.913   5.560  0.7717  0.7776  0.6852
12237TIP3    H258203   6.086   2.800   5.606 -0.0149 -0.5077 -0.9035
12238TIP3   OH258204   2.751   5.395  11.846  0.6659 -0.0028  0.5473
12238TIP3    H158205   2.759   5.387  11.751  0.3908  1.3880  0.4045
12238TIP3    H258206   2.739   5.305  11.876  1.6866 -0.5513 -0.6442
12239TIP3   OH258207   0.335   5.819  14.078  0.0718 -0.6089 -0.6070
12239TIP3    H158208   0.369   5.903  14.109 -0.5538  0.1699 -2.0043
12239TIP3    H258209   0.399   5.790  14.013  0.6800 -1.5978  0.4071
12240TIP3   OH258210   1.116   1.195  12.933  0.3192 -0.5028  0.2045
12240TIP3    H158211   1.064   1.251  12.877  0.6145 -1.3558 -0.9389
12240TIP3    H258212   1.078   1.206  13.020 -2.0189 -1.3792 -0.6629
12241TIP3   OH258213   6.790   0.183  12.073  0.5283 -0.1479 -0.3435
12241TIP3    H158214   6.713   0.143  12.033  1.0098 -1.6707  0.2153
12241TIP3    H258215   6.792   0.272  12.039 -0.6590 -0.5536 -1.4927
12242TIP3   OH258216   4.765   6.102   4.682  0.1032  0.3944  0.1275
12242TIP3    H158217   4.784   6.016   4.720 -0.8142  0.2529  0.2718
12242TIP3    H258218   4.848   6.148   4.686  0.3756 -0.1468  0.9506
12243TIP3   OH258219   6.259   2.128   6.460  0.1105  0.2775  0.6068
12243TIP3    H158220   6.258   2.057   6.523  1.8418  0.7708  1.2127
12243TIP3    H258221   6.320   2.099   6.392 -0.5786  0.4093 -0.0864
12244TIP3   OH258222   2.774   0.862   4.462 -0.0498  0.2109 -0.2017
12244TIP3    H158223   2.694   0.853   4.410  0.3542 -1.6131 -0.5418
12244TIP3    H258224   2.755   0.818   4.545  0.9816 -1.2958 -0.7400
12245TIP3   OH258225   1.507   4.522   0.262 -0.8561 -0.1398  0.2631
12245TIP3    H158226   1.525   4.430   0.243 -1.8188 -0.6897  1.8722
12245TIP3    H258227   1.432   4.543   0.207 -0.5227 -0.2586 -0.2429
12246TIP3   OH258228   2.778   3.916   0.629  0.0637  0.2792  0.3351
12246TIP3    H158229   2.705   3.882   0.577 -0.6292 -0.8213  1.9771
12246TIP3    H258230   2.836   3.841   0.643 -0.5692  0.1404  2.4555
12247TIP3   OH258231   4.211   4.838  13.923 -0.1830 -0.0952  0.1640
12247TIP3    H158232   4.204   4.803  13.834 -1.5960  1.8721 -0.5419
12247TIP3    H258233   4.201   4.933  13.912  1.0818  0.3068  2.2747
12248TIP3   OH258234   4.542   0.945  16.232  0.3432  0.1517 -0.6816
12248TIP3    H158235   4.464   0.951  16.286  0.9918  0.0354  0.2882
12248TIP3    H258236   4.539   0.856  16.196  0.6270 -0.2697  0.3019
12249TIP3   OH258237   0.669   4.327  13.742 -0.2339 -0.4855  0.1795
12249TIP3    H158238   0.617   4.360  13.816 -0.3779 -2.5260  1.0348
12249TIP3    H258239   0.760   4.348  13.766 -0.3190 -0.7162  0.7180
12250TIP3   OH258240   3.531   5.363  12.095  0.3040  0.4237  0.4893
12250TIP3    H158241   3.451   5.414  12.108  1.0666  1.8736 -0.4303
12250TIP3    H258242   3.504   5.272  12.109 -1.5810  0.8691 -0.1595
12251TIP3   OH258243   1.151   6.144   5.419 -0.6320  0.0785  0.6806
12251TIP3    H158244   1.077   6.152   5.478 -2.1425  1.0879 -1.2661
12251TIP3    H258245   1.112   6.116   5.336  0.6612  4.1098 -1.3862
12252TIP3   OH258246   0.087   1.309  14.996  0.7047  0.4658  0.0313
12252TIP3    H158247  -0.001   1.275  15.012  1.3359 -1.6103 -0.7727
12252TIP3    H258248   0.111   1.352  15.078 -0.3698 -0.4851  0.8587
12253TIP3   OH258249   3.440   6.659   0.215  0.1630  0.4181  0.0749
12253TIP3    H158250   3.405   6.578   0.179  0.4826  0.5558 -0.5757
12253TIP3    H258251   3.399   6.668   0.301  0.7720 -0.8639  0.5111
12254TIP3   OH258252   1.126   0.705   5.196 -0.0195  0.5632  0.3006
12254TIP3    H158253   1.151   0.656   5.118  1.2914 -1.1856  1.7801
12254TIP3    H258254   1.182   0.782   5.195  0.4108  0.2427 -0.1651
12255TIP3   OH258255   2.000   2.738   2.656 -0.1596 -0.3513 -0.3970
12255TIP3    H158256   2.070   2.800   2.637  0.3124 -0.4274  0.9845
12255TIP3    H258257   1.919   2.788   2.648  0.1839  0.2756  0.0810
12256TIP3   OH258258   3.192   4.723  14.444 -0.0341 -0.2410 -0.8556
12256TIP3    H158259   3.112   4.671  14.441 -0.4119  0.1370  1.5446
12256TIP3    H258260   3.167   4.807  14.406 -0.1248 -0.9116 -2.3117
12257TIP3   OH258261   4.705   0.277   2.694  0.0516  0.1964 -0.5041
12257TIP3    H158262   4.704   0.198   2.749  0.5377  0.3751 -0.2360
12257TIP3    H258263   4.628   0.268   2.638 -1.0680  0.5397  0.9483
12258TIP3   OH258264   1.893   3.945   4.611  0.5444 -0.0819 -0.0112
12258TIP3    H158265   1.866   4.006   4.680 -1.1756  0.0007 -0.7372
12258TIP3    H258266   1.926   3.869   4.658  1.5477  0.8880  0.9035
12259TIP3   OH258267   5.544   1.144  16.867  0.2299  0.0423  0.2394
12259TIP3    H158268   5.463   1.148  16.918 -0.7288 -1.7328 -1.1066
12259TIP3    H258269   5.606   1.100  16.925 -0.4719 -0.7417  0.4110
12260TIP3   OH258270   1.707   3.215   1.215  0.5069  0.0717 -0.2404
12260TIP3    H158271   1.744   3.263   1.288 -0.0012  0.8265 -0.4733
12260TIP3    H258272   1.613   3.232   1.220  0.5996  1.1356 -1.7885
12261TIP3   OH258273   5.882   5.492   4.629  0.1798  0.0543  0.2960
12261TIP3    H158274   5.814   5.447   4.579 -1.9504  3.1183  0.3150
12261TIP3    H258275   5.842   5.509   4.714  1.8460 -0.2721  1.1604
12262TIP3   OH258276   1.884   0.430  15.324 -0.0118  0.3811 -0.1206
12262TIP3    H158277   1.853   0.341  15.338  0.8399  0.4848  2.7546
12262TIP3    H258278   1.808   0.485  15.345  0.1660  0.4130  0.4383
12263TIP3   OH258279   5.196   6.783  11.857  0.0432  0.2520 -0.4515
12263TIP3    H158280   5.192   6.865  11.907 -2.0093  0.2684 -0.6201
12263TIP3    H258281   5.217   6.716  11.922 -1.8666  0.3858  0.3326
12264TIP3   OH258282   5.966   3.291  14.737 -0.7620  0.7128  0.0103
12264TIP3    H158283   5.934   3.216  14.686 -1.9794  1.1462  0.1074
12264TIP3    H258284   5.989   3.357  14.672 -0.8843  0.7136 -0.0314
12265TIP3   OH258285   1.382   4.396   3.439 -0.0591 -0.2228 -0.7040
12265TIP3    H158286   1.315   4.338   3.475  0.6774  0.2084  1.4547
12265TIP3    H258287   1.348   4.484   3.452 -0.0226 -0.0786 -1.5750
12266TIP3   OH258288   0.889   2.005   3.785 -0.1795  0.6387  0.2423
12266TIP3    H158289   0.832   2.063   3.734 -0.3271  1.5537  1.4277
12266TIP3    H258290   0.889   1.923   3.736 -0.5534  1.4028 -1.0703
12267TIP3   OH258291   3.755   1.799  13.313 -0.6733 -0.0334  0.0682
12267TIP3    H158292   3.704   1.725  13.281 -1.0517  1.0558 -1.9215
12267TIP3    H258293   3.846   1.769  13.309 -0.9216 -0.9064  0.7268
12268TIP3   OH258294   2.200   4.810   2.015 -0.7403 -0.0394 -0.2071
12268TIP3    H158295   2.204   4.887   1.958 -1.8582  0.2437  0.0927
12268TIP3    H258296   2.223   4.843   2.102 -0.3468 -0.2211 -0.2383
12269TIP3   OH258297   3.857   0.520  11.990 -0.3703 -0.1347 -0.7682
12269TIP3    H158298   3.792   0.463  11.950 -2.3605  1.9205 -0.5252
12269TIP3    H258299   3.810   0.565  12.060  1.4610  0.9600 -0.2147
12270TIP3   OH258300   1.179   0.274   4.905  0.2278  0.2477 -0.1976
12270TIP3    H158301   1.153   0.204   4.845  0.1104  0.2424 -0.1411
12270TIP3    H258302   1.274   0.273   4.903  0.2503 -0.7626  0.7669
12271TIP3   OH258303   3.290   3.193  10.579  0.3250  0.2215 -0.0408
12271TIP3    H158304   3.318   3.272  10.625  3.0666 -0.2048 -0.8697
12271TIP3    H258305   3.260   3.225  10.494  3.8359  0.1707 -1.3439
12272TIP3   OH258306   2.167   6.335  14.303 -0.2638  0.1323 -0.3848
12272TIP3    H158307   2.089   6.279  14.304 -1.7632  2.1563 -1.3227
12272TIP3    H258308   2.133   6.424  14.307  2.1173  1.0023  1.5568
12273TIP3   OH258309   5.120   5.581  11.457 -0.3816 -0.3324 -0.1317
12273TIP3    H158310   5.123   5.540  11.543 -0.8352  0.0919  0.0859
12273TIP3    H258311   5.027   5.588  11.437 -0.3224  1.1843  0.1098
12274TIP3   OH258312   4.310   5.996  15.129  0.2445  0.3327 -0.2923
12274TIP3    H158313   4.403   6.016  15.139  0.8468 -1.2891 -2.3163
12274TIP3    H258314   4.308   5.908  15.091 -2.1602 -0.4109  1.4316
12275TIP3   OH258315   6.271   5.074   5.106  0.0964  0.1174 -0.1379
12275TIP3    H158316   6.335   5.049   5.173 -2.2283 -0.2499  2.0355
12275TIP3    H258317   6.319   5.132   5.047  2.2633  0.3207  1.7606
12276TIP3   OH258318   3.138   1.719   5.845  0.3788 -0.7146  0.2734
12276TIP3    H158319   3.089   1.647   5.806 -0.8745 -0.3547  1.1462
12276TIP3    H258320   3.100   1.730   5.932  0.7872  0.7584  0.2875
12277TIP3   OH258321   4.961   6.474   5.693 -0.0853 -0.5324 -0.1446
12277TIP3    H158322   4.968   6.380   5.676  2.8778  0.2547 -3.7742
12277TIP3    H258323   4.903   6.507   5.623  0.4309  0.6267 -0.0429
12278TIP3   OH258324   1.959   4.023  13.608 -0.3347  0.0035 -0.5875
12278TIP3    H158325   1.912   4.024  13.525  0.8408  3.0495 -1.2953
12278TIP3    H258326   1.891   4.027  13.675 -1.1939  0.4618 -1.4814
12279TIP3   OH258327   3.926   1.947  12.229  0.9869 -0.8236 -0.4531
12279TIP3    H158328   3.845   1.907  12.196  0.4687 -0.4271  0.3265
12279TIP3    H258329   3.897   2.028  12.270  1.6923 -1.0560  0.5175
12280TIP3   OH258330   3.204   6.637  12.221 -0.3971  0.3158 -0.4225
12280TIP3    H158331   3.169   6.566  12.167 -0.6027 -0.1439  0.3046
12280TIP3    H258332   3.143   6.643  12.295 -1.0570  2.0594 -1.0857
12281TIP3   OH258333   2.903   2.531  10.196 -0.6473 -0.3343  0.0003
12281TIP3    H158334   2.858   2.605  10.236 -0.8139 -0.8187  0.7069
12281TIP3    H258335   2.837   2.461  10.193  0.5759 -1.6835  2.8142
12282TIP3   OH258336   0.086   1.933  14.919 -0.2334 -0.0547  0.0641
12282TIP3    H158337   0.149   1.899  14.855 -0.9016 -0.4204 -0.4125
12282TIP3    H258338   0.075   2.025  14.895  0.7683  0.2212  0.6842
12283TIP3   OH258339   6.361   5.906  12.166  0.3649  0.1877  0.1802
12283TIP3    H158340   6.347   5.973  12.233  3.0471 -0.1423  1.1546
12283TIP3    H258341   6.285   5.848  12.173 -0.5761  1.5235  1.2814
12284TIP3   OH258342   2.287   5.815   5.175 -0.5267 -0.0317  0.3766
12284TIP3    H158343   2.229   5.889   5.159 -2.1901 -0.8898  2.1706
12284TIP3    H258344   2.284   5.764   5.095  0.1926  1.5329 -0.6656
12285TIP3   OH258345   2.508   6.362  15.209  0.0890  0.3442 -0.2798
12285TIP3    H158346   2.587   6.392  15.253  0.7173  0.2558 -1.3224
12285TIP3    H258347   2.502   6.269  15.231 -0.1097  0.5052  0.3625
12286TIP3   OH258348   3.091   4.116  11.311 -0.9614 -0.9619  0.0858
12286TIP3    H158349   3.185   4.104  11.299 -0.9115  0.7881 -1.4576
12286TIP3    H258350   3.053   4.099  11.225 -1.4626  3.5913 -0.7090
12287TIP3   OH258351   4.155   5.343   2.189  1.2091 -0.1003  0.5124
12287TIP3    H158352   4.168   5.381   2.103 -2.9864 -0.8811 -0.6055
12287TIP3    H258353   4.150   5.418   2.248  0.4235  0.6751 -0.5208
12288TIP3   OH258354   3.720   4.580  16.183 -0.4967  0.3148 -0.3025
12288TIP3    H158355   3.767   4.547  16.260 -1.0420  0.4370  0.0824
12288TIP3    H258356   3.716   4.675  16.197  0.4078  0.4678 -1.0396
12289TIP3   OH258357   2.593   2.967   6.526 -0.0666 -0.2418  0.2946
12289TIP3    H158358   2.559   3.052   6.498 -2.1954 -0.2022  2.7829
12289TIP3    H258359   2.642   2.985   6.605 -0.2747 -1.2772  0.6702
12290TIP3   OH258360   0.480   6.247  13.319 -0.4394 -0.2802 -0.0973
12290TIP3    H158361   0.570   6.261  13.289 -0.0812 -2.2018  0.0537
12290TIP3    H258362   0.431   6.226  13.239 -0.3060 -1.4147  0.1200
12291TIP3   OH258363   1.359   0.876  15.350 -0.0429  0.5769 -0.1744
12291TIP3    H158364   1.320   0.946  15.298 -1.9962  1.1591  1.9866
12291TIP3    H258365   1.298   0.864  15.423  2.5617 -0.2666  1.9320
12292TIP3   OH258366   6.338   4.439   2.557 -0.4466  0.3086 -0.5030
12292TIP3    H158367   6.425   4.480   2.553 -0.1573  0.1175  2.5428
12292TIP3    H258368   6.290   4.478   2.484  2.3460  0.0172 -2.5815
12293TIP3   OH258369   4.884   6.033  12.639  0.0369  0.5159 -0.1985
12293TIP3    H158370   4.826   6.042  12.715 -0.6447 -2.5550 -0.2930
12293TIP3    H258371   4.966   6.001  12.675  0.3648  0.9640 -0.5410
12294TIP3   OH258372   0.165   0.851  12.371  0.4327 -0.2720  0.6169
12294TIP3    H158373   0.150   0.908  12.295  0.4501 -4.0054 -2.3582
12294TIP3    H258374   0.181   0.911  12.443 -2.9720  3.5328 -1.5508
12295TIP3   OH258375   5.254   3.134  12.644  0.4295 -0.1359  0.3402
12295TIP3    H158376   5.263   3.228  12.662  0.7130 -0.2532  0.8308
12295TIP3    H258377   5.226   3.097  12.728 -0.8205 -0.3350 -0.1421
12296TIP3   OH258378   0.143   2.722   3.512 -0.1345 -0.0223  0.5302
12296TIP3    H158379   0.184   2.808   3.507 -0.1147 -0.0600 -0.0429
12296TIP3    H258380   0.086   2.726   3.589  0.4007  0.2681  0.9130
12297TIP3   OH258381   5.762   5.390   2.098  0.7518 -0.4631  0.4626
12297TIP3    H158382   5.735   5.299   2.111  0.1420 -0.3498 -0.0023
12297TIP3    H258383   5.729   5.436   2.176  1.4516 -0.7175  0.9165
12298TIP3   OH258384   0.713   0.173   1.766  0.1898  0.4466 -0.0352
12298TIP3    H158385   0.660   0.105   1.808 -0.3388  1.8119  1.5450
12298TIP3    H258386   0.773   0.124   1.709 -2.5773 -1.1669 -1.7109
12299TIP3   OH258387   0.972   6.800  11.826 -0.1930 -0.1444 -0.1994
12299TIP3    H158388   0.934   6.752  11.753  0.7619 -0.9526 -0.1780
12299TIP3    H258389   1.041   6.854  11.787  1.5112 -1.8874  0.2933
12300TIP3   OH258390   1.542   4.777   3.082  0.5094 -0.0282  0.1719
12300TIP3    H158391   1.520   4.753   2.992  0.5560  2.1243 -0.4345
12300TIP3    H258392   1.548   4.693   3.128 -0.0203 -1.1284 -1.7018
12301TIP3   OH258393   1.005   6.263  15.833  0.1406  0.2396  0.0804
12301TIP3    H158394   0.967   6.176  15.822  0.3366 -0.0203  1.3960
12301TIP3    H258395   1.089   6.258  15.788  0.3740 -0.4080  0.5758
12302TIP3   OH258396   3.401   3.129   0.440  0.0138 -0.2078 -0.0573
12302TIP3    H158397   3.357   3.190   0.498 -1.0377  0.2370 -1.2907
12302TIP3    H258398   3.423   3.054   0.495  0.0108  0.6744  1.1396
12303TIP3   OH258399   0.208   0.862   0.075 -0.7952  0.1098 -0.3350
12303TIP3    H158400   0.144   0.808   0.123 -0.7284 -0.2637 -0.6615
12303TIP3    H258401   0.156   0.906   0.009 -0.7740  0.0902 -0.3645
12304TIP3   OH258402   0.937   6.498   6.747 -0.9061  0.7629 -0.4961
12304TIP3    H158403   0.941   6.557   6.672 -0.5259  1.3187 -0.0388
12304TIP3    H258404   0.929   6.411   6.708  1.0947  0.8888 -1.2347
12305TIP3   OH258405   2.289   1.382   1.315 -0.3796 -0.4276  0.6324
12305TIP3    H158406   2.331   1.341   1.391 -0.2658  0.2647  0.9486
12305TIP3    H258407   2.338   1.350   1.240  0.5325  0.1541  0.9771
12306TIP3   OH258408   3.156   4.915   3.062 -0.7989  0.2203 -0.3681
12306TIP3    H158409   3.119   4.965   3.134  1.3988 -0.8141  1.5173
12306TIP3    H258410   3.241   4.885   3.094 -0.6186 -1.8936 -2.6781
12307TIP3   OH258411   2.827   6.532  12.043  0.3549 -0.2035  0.0488
12307TIP3    H158412   2.871   6.573  11.969  1.0624  0.3629  0.7765
12307TIP3    H258413   2.747   6.584  12.055 -2.0992 -3.0090 -3.1402
12308TIP3   OH258414   6.438   4.867   2.664  0.5481  0.2381 -0.2856
12308TIP3    H158415   6.473   4.955   2.653 -1.8354  1.0628 -1.5615
12308TIP3    H258416   6.499   4.811   2.616  0.9232  1.4661 -1.2691
12309TIP3   OH258417   0.082   0.582   1.492 -0.3646 -0.0007  0.1539
12309TIP3    H158418  -0.006   0.608   1.465 -0.2226  1.2051  0.8016
12309TIP3    H258419   0.137   0.656   1.469  0.2505 -0.1818  0.9931
12310TIP3   OH258420   3.680   3.196  17.278 -0.1168 -0.1938 -0.0484
12310TIP3    H158421   3.641   3.282  17.263 -1.8297 -0.8777  0.4172
12310TIP3    H258422   3.762   3.215  17.324 -0.9413  1.1295  0.8935
12311TIP3   OH258423   4.885   1.900  15.911  0.1970  0.4157 -0.1942
12311TIP3    H158424   4.811   1.953  15.884  0.0184  0.7422  0.8955
12311TIP3    H258425   4.862   1.870  15.999  2.0806  1.9485  0.8611
12312TIP3   OH258426   1.984   5.740  15.987  0.4126  0.3218 -0.2066
12312TIP3    H158427   2.038   5.684  15.931  1.5342  0.6910  0.4877
12312TIP3    H258428   1.920   5.779  15.928 -1.0914 -2.5265 -0.5244
12313TIP3   OH258429   0.738   4.326   3.888 -0.3087 -0.4228 -0.5758
12313TIP3    H158430   0.654   4.337   3.933  0.1187 -0.5295  0.2535
12313TIP3    H258431   0.779   4.251   3.930  0.2568 -0.3006 -0.8978
12314TIP3   OH258432   1.893   4.565  13.459 -0.6433 -0.0954 -0.5748
12314TIP3    H158433   1.901   4.574  13.554 -0.4835  0.4668 -0.6369
12314TIP3    H258434   1.799   4.566  13.443 -0.6709 -0.2064 -0.4173
12315TIP3   OH258435   3.638   1.212   4.678  0.5614 -0.1474  0.6193
12315TIP3    H158436   3.582   1.217   4.600  0.9090 -0.1880  0.3653
12315TIP3    H258437   3.589   1.256   4.746 -0.0311 -0.6717  0.5377
12316TIP3   OH258438   3.171   2.424   4.053  0.4417 -0.3405 -0.5696
12316TIP3    H158439   3.169   2.353   3.988  1.8249  0.8758 -1.9713
12316TIP3    H258440   3.152   2.503   4.002 -0.4878  0.3935  0.8812
12317TIP3   OH258441   4.137   2.104  13.126  0.0434  0.3529  0.1410
12317TIP3    H158442   4.155   2.072  13.215  0.6379  1.3228  0.3791
12317TIP3    H258443   4.199   2.176  13.114 -1.8001  1.9482 -0.0691
12318TIP3   OH258444   0.887   2.271  15.264 -0.1675  0.5424 -0.2458
12318TIP3    H158445   0.891   2.330  15.339  0.5356  0.0004  0.1532
12318TIP3    H258446   0.951   2.203  15.284  0.3932  0.6550 -1.5597
12319TIP3   OH258447   2.795   2.919  15.033 -0.3480 -0.3727 -0.3277
12319TIP3    H158448   2.747   3.000  15.048  0.6805  0.0788  0.6046
12319TIP3    H258449   2.856   2.939  14.962 -0.7663 -0.6261 -0.7643
12320TIP3   OH258450   4.086   2.568  12.188 -0.9087 -0.8581  0.2152
12320TIP3    H158451   4.018   2.501  12.198 -1.6493 -0.1061  0.2536
12320TIP3    H258452   4.081   2.594  12.096  0.5611 -2.0932 -0.2440
12321TIP3   OH258453   4.367   2.065  10.342  0.2753  0.1683 -0.1190
12321TIP3    H158454   4.461   2.048  10.346  0.2497 -0.6154 -2.0572
12321TIP3    H258455   4.358   2.133  10.275 -0.4827  0.8162  0.6246
12322TIP3   OH258456   1.823   5.463   6.013 -0.2251  0.5601 -0.1991
12322TIP3    H158457   1.895   5.447   5.951 -1.6442  0.3280 -1.8075
12322TIP3    H258458   1.845   5.408   6.089  0.7787 -0.2973 -1.0865
12323TIP3   OH258459   3.090   2.949   2.935 -0.2712  0.0036 -0.1299
12323TIP3    H158460   3.104   3.043   2.924 -0.7975 -0.0052 -0.9673
12323TIP3    H258461   3.051   2.921   2.852 -3.4147 -0.3091  1.3911
12324TIP3   OH258462   4.176   2.431   0.853 -0.0182  0.2458 -0.2729
12324TIP3    H158463   4.208   2.341   0.857  1.6314  0.8835  3.9508
12324TIP3    H258464   4.180   2.454   0.760  1.7764 -3.2489 -1.1595
12325TIP3   OH258465   1.158   2.716  14.157 -0.4742 -0.1586 -0.1646
12325TIP3    H158466   1.131   2.703  14.066 -0.7432  0.9197 -0.2462
12325TIP3    H258467   1.179   2.628  14.188 -0.8084 -0.5931 -1.1340
12326TIP3   OH258468   3.260   0.405   3.106  0.8219 -0.1879  0.1498
12326TIP3    H158469   3.333   0.384   3.048  1.7119 -1.1761  1.5930
12326TIP3    H258470   3.235   0.494   3.081  2.4948  0.1563 -0.3982
12327TIP3   OH258471   0.841   5.696  12.439  0.0908  0.6503  0.3545
12327TIP3    H158472   0.775   5.766  12.439  0.4887  1.0333 -0.3221
12327TIP3    H258473   0.916   5.734  12.392  0.2383 -0.2936 -0.1882
12328TIP3   OH258474   2.558   6.087   1.573 -0.2229 -0.0986 -0.3460
12328TIP3    H158475   2.569   6.012   1.632  0.2764  0.3887  0.1834
12328TIP3    H258476   2.602   6.061   1.492 -0.7522 -0.6967 -0.4437
12329TIP3   OH258477   4.090   2.712  15.582 -0.2609 -0.0691 -0.3529
12329TIP3    H158478   4.084   2.756  15.666  1.7479  1.9213 -1.2075
12329TIP3    H258479   4.020   2.749  15.529 -0.6821 -0.3544  0.0045
12330TIP3   OH258480   4.038   3.746   4.592  0.1979 -0.2108 -0.8371
12330TIP3    H158481   4.109   3.798   4.554  2.7839 -0.5924  3.1539
12330TIP3    H258482   4.022   3.676   4.529  0.4496  2.2359 -3.7338
12331TIP3   OH258483   0.457   6.602  11.693  0.2219 -0.2068 -0.1118
12331TIP3    H158484   0.384   6.638  11.742  0.1265 -1.9398  1.0619
12331TIP3    H258485   0.503   6.546  11.755  1.6713 -0.3457 -1.2604
12332TIP3   OH258486   0.931   4.816  15.299 -0.1412  0.2142 -0.1249
12332TIP3    H158487   0.996   4.762  15.344 -1.2408  0.0060  1.2772
12332TIP3    H258488   0.971   4.902  15.293  0.2391  0.1147  0.8129
12333TIP3   OH258489   1.482   5.029  12.407 -0.1244  0.7634  0.4858
12333TIP3    H158490   1.475   5.080  12.327 -1.2920 -0.5837 -0.2902
12333TIP3    H258491   1.431   5.078  12.472 -0.1721  1.2408  0.0844
12334TIP3   OH258492   0.612   0.674  12.061  0.1879  0.0469 -0.7543
12334TIP3    H158493   0.533   0.719  12.091  0.4758  0.7486 -1.0366
12334TIP3    H258494   0.679   0.743  12.056  0.7012 -0.4562 -0.9460
12335TIP3   OH258495   5.876   2.051   2.263  0.1201 -0.2138  0.0472
12335TIP3    H158496   5.835   2.125   2.220  0.5629 -0.0390 -0.0830
12335TIP3    H258497   5.803   1.997   2.294 -0.2541  1.7525  2.7644
12336TIP3   OH258498   2.601   4.966  15.496 -0.0690  0.2408  0.1713
12336TIP3    H158499   2.507   4.948  15.494  0.0096 -0.4540  1.8848
12336TIP3    H258500   2.642   4.888  15.460 -0.1377  0.5484 -0.5874
12337TIP3   OH258501   1.191   0.782  14.455  0.0193 -0.3367 -0.4772
12337TIP3    H158502   1.106   0.762  14.417 -0.8471  1.7749  0.2461
12337TIP3    H258503   1.221   0.860  14.408 -0.4042  1.4515  2.0669
12338TIP3   OH258504   1.916   4.751  16.936  0.2193 -0.3187 -0.3330
12338TIP3    H158505   1.940   4.718  16.850 -0.7724 -1.7214 -0.0807
12338TIP3    H258506   1.835   4.802  16.920  0.1611 -0.3891 -0.2624
12339TIP3   OH258507   5.518   4.199  11.123 -0.4813  0.1620  0.0274
12339TIP3    H158508   5.538   4.129  11.061  0.3307 -2.8251  3.5101
12339TIP3    H258509   5.580   4.187  11.195 -2.6657  2.2507  2.3848
12340TIP3   OH258510   3.497   0.026  13.927 -0.2272  0.1271  0.5360
12340TIP3    H158511   3.574   0.036  13.983 -1.3001 -0.3585  2.1130
12340TIP3    H258512   3.515  -0.054  13.877  1.6487  1.6601 -1.3453
12341TIP3   OH258513   1.010   1.635   5.243 -0.0767  0.0439  0.1553
12341TIP3    H158514   1.105   1.628   5.237 -0.0921 -0.5282  0.5356
12341TIP3    H258515   0.980   1.546   5.260 -0.4237  0.6641  3.1278
12342TIP3   OH258516   2.450   6.152   4.262 -0.0943  0.0110 -0.0859
12342TIP3    H158517   2.444   6.247   4.254 -0.9146 -0.0474 -0.1842
12342TIP3    H258518   2.530   6.129   4.214  0.8371  0.7839  1.0542
12343TIP3   OH258519   0.578   4.122   3.352  0.0011 -0.6295 -0.0024
12343TIP3    H158520   0.649   4.104   3.290  1.2153 -0.1355  1.2054
12343TIP3    H258521   0.622   4.129   3.437 -1.5858 -0.9605  0.8702
12344TIP3   OH258522   0.111   2.494  14.322  0.0022  0.5237 -0.0616
12344TIP3    H158523   0.121   2.567  14.260  2.6056 -1.4367 -2.0683
12344TIP3    H258524   0.071   2.424  14.270  0.7765 -0.6426  0.8996
12345TIP3   OH258525   2.612   6.717  12.040  0.1044  0.5658 -0.0424
12345TIP3    H158526   2.519   6.696  12.035 -0.4116  2.8167 -0.4712
12345TIP3    H258527   2.633   6.750  11.953  1.9792 -2.3810 -0.8034
12346TIP3   OH258528   5.587   6.689  16.014 -0.0062 -0.4072  0.3148
12346TIP3    H158529   5.631   6.614  15.974  0.0152  0.1704 -0.7640
12346TIP3    H258530   5.503   6.655  16.045 -0.0496 -0.8439 -0.2815
12347TIP3   OH258531   4.409   1.171  14.309 -0.3895 -0.1684  0.0167
12347TIP3    H158532   4.328   1.168  14.257  0.7794 -0.8744 -1.8084
12347TIP3    H258533   4.458   1.094  14.282  0.7292  0.0216  1.4207
12348TIP3   OH258534   3.698   5.961   4.512  0.2054 -0.2564 -0.2478
12348TIP3    H158535   3.770   5.988   4.569  0.3148 -0.0130 -0.5037
12348TIP3    H258536   3.634   5.923   4.572  0.4604 -0.2939  0.0024
12349TIP3   OH258537   2.183   2.762  14.589 -0.1331  0.2377  0.1076
12349TIP3    H158538   2.270   2.730  14.567  0.7851 -0.4147  4.2651
12349TIP3    H258539   2.127   2.685  14.584 -0.1573  0.3188 -0.9294
12350TIP3   OH258540   3.015   5.841   5.113 -0.3924 -0.5334 -0.1872
12350TIP3    H158541   3.086   5.847   5.177 -2.6578 -0.5339  2.3791
12350TIP3    H258542   2.968   5.762   5.137 -2.5549  0.6361 -0.5098
12351TIP3   OH258543   5.987   2.884   4.501 -0.3794 -0.0569  0.3596
12351TIP3    H158544   6.026   2.912   4.584  0.5920  0.8296 -0.3784
12351TIP3    H258545   5.933   2.809   4.524  2.7008 -2.1208  1.2671
12352TIP3   OH258546   2.909   2.791   0.315  0.3857 -0.0574  0.5489
12352TIP3    H158547   2.932   2.705   0.349 -0.1344 -0.4886 -0.1532
12352TIP3    H258548   2.864   2.834   0.387  3.7770  0.9990  2.1070
12353TIP3   OH258549   5.374   3.559   4.466 -0.2078 -0.1235  0.1240
12353TIP3    H158550   5.445   3.559   4.530 -0.4379 -0.2253  0.3841
12353TIP3    H258551   5.392   3.483   4.411 -0.3414 -0.3906  0.4464
12354TIP3   OH258552   1.419   2.249  13.511  0.4523 -0.3908 -0.2653
12354TIP3    H158553   1.463   2.309  13.449 -1.6354  0.1838 -1.2371
12354TIP3    H258554   1.360   2.198  13.456  1.0255 -2.2317  0.8100
12355TIP3   OH258555   2.818   5.574  14.007 -0.3822 -0.4678 -0.4076
12355TIP3    H158556   2.819   5.503  13.943 -1.1207 -1.4099  0.6010
12355TIP3    H258557   2.841   5.533  14.090 -1.2729  0.3646  0.2764
12356TIP3   OH258558   6.630   6.143  15.940  0.3515 -0.2671 -0.4330
12356TIP3    H158559   6.635   6.086  15.863 -0.8190  0.9037 -1.4005
12356TIP3    H258560   6.549   6.193  15.928 -0.3887 -0.8014  2.0949
12357TIP3   OH258561   6.610   3.426  16.382  0.0672  0.3472  0.4016
12357TIP3    H158562   6.554   3.416  16.305  1.5906  2.6016 -1.0274
12357TIP3    H258563   6.690   3.377  16.361 -1.0633 -2.4592  2.2497
12358TIP3   OH258564   4.488   0.765   2.094  0.1359  0.5697  0.4843
12358TIP3    H158565   4.428   0.734   2.026  2.2840 -1.7120 -0.4552
12358TIP3    H258566   4.533   0.839   2.054 -0.0538  0.5191  0.1741
12359TIP3   OH258567   4.703   3.290   5.506 -0.1909 -0.2192  0.5357
12359TIP3    H158568   4.685   3.286   5.600 -0.2056  1.9351  0.6505
12359TIP3    H258569   4.620   3.320   5.468 -0.0456 -0.6470 -0.1268
12360TIP3   OH258570   5.259   2.656   4.458  0.0993  0.0328  0.9933
12360TIP3    H158571   5.319   2.619   4.393 -0.2696  2.5926 -0.8729
12360TIP3    H258572   5.248   2.586   4.523  0.6769 -2.5127 -1.5495
12361TIP3   OH258573   2.920   4.047   2.986 -0.2822 -0.1769 -0.4728
12361TIP3    H158574   2.979   4.113   2.950  0.0977 -0.2584 -0.0074
12361TIP3    H258575   2.976   3.990   3.038 -0.5757 -1.0209 -1.0793
12362TIP3   OH258576   6.358   4.375  12.870 -0.4245 -0.0383  0.6601
12362TIP3    H158577   6.286   4.314  12.852  0.1442  0.0053 -1.8712
12362TIP3    H258578   6.395   4.394  12.785  1.9866  0.7155  1.8476
12363TIP3   OH258579   3.002   0.187  11.286  0.5863  0.3974  0.2382
12363TIP3    H158580   2.928   0.219  11.234  0.6381 -0.6116 -0.4774
12363TIP3    H258581   3.075   0.243  11.261  1.0055 -1.1032 -2.0090
12364TIP3   OH258582   1.262   2.602   4.425  0.7894 -0.5338  0.3946
12364TIP3    H158583   1.178   2.618   4.381  1.4639 -0.0539 -0.7222
12364TIP3    H258584   1.326   2.595   4.355  1.4481 -2.5612  1.1484
12365TIP3   OH258585   6.063   2.913  10.326  0.4252 -0.0282  0.0001
12365TIP3    H158586   6.071   2.879  10.415  1.9500 -1.3498 -0.6195
12365TIP3    H258587   6.099   2.844  10.271  1.7017  1.7637 -1.4591
12366TIP3   OH258588   4.380   3.181  13.898 -0.5938  0.2834  0.0007
12366TIP3    H158589   4.457   3.139  13.859 -0.0545 -0.5057  1.8601
12366TIP3    H258590   4.374   3.143  13.986 -0.5139  3.5923  1.4973
12367TIP3   OH258591   3.545   0.763  12.984 -0.3150 -0.0867  0.1885
12367TIP3    H158592   3.513   0.697  13.046  0.8080  0.3774  1.2677
12367TIP3    H258593   3.608   0.715  12.929 -2.6806 -0.9790 -1.8764
12368TIP3   OH258594   5.817   6.331  13.574 -0.2695 -0.1863 -0.0105
12368TIP3    H158595   5.852   6.374  13.652 -1.7482  2.0948 -0.5548
12368TIP3    H258596   5.740   6.284  13.605  1.4629 -2.7064  0.6229
12369TIP3   OH258597   5.143   0.415   6.252  0.2092 -0.6860  0.8140
12369TIP3    H158598   5.089   0.388   6.178  0.1289 -1.0469  1.0024
12369TIP3    H258599   5.083   0.417   6.326  0.1479  0.3073  0.7498
12370TIP3   OH258600   5.441   4.609   2.462 -0.2922 -0.5781  0.0888
12370TIP3    H158601   5.376   4.642   2.525 -0.1109  0.7735 -0.4070
12370TIP3    H258602   5.444   4.677   2.394 -0.1895 -1.8341 -1.1790
12371TIP3   OH258603   2.407   3.744   2.134  0.1067  0.3362  0.5520
12371TIP3    H158604   2.353   3.739   2.056 -0.9658 -1.0364  1.3625
12371TIP3    H258605   2.495   3.765   2.102 -0.6389  1.3219 -0.8700
12372TIP3   OH258606   2.006   1.668  17.171  0.0290 -0.0803 -0.1015
12372TIP3    H158607   2.037   1.578  17.172 -1.9068 -0.7677  1.5402
12372TIP3    H258608   2.067   1.715  17.229 -0.6091 -0.9452  1.3053
12373TIP3   OH258609   1.400   5.858   0.811 -0.1329 -0.1284 -0.4694
12373TIP3    H158610   1.474   5.798   0.805  0.7152  0.8778 -0.3294
12373TIP3    H258611   1.323   5.802   0.813  0.7411 -1.3243  2.1257
12374TIP3   OH258612   3.863   4.091  15.808 -0.2452  0.2012  0.6255
12374TIP3    H158613   3.945   4.132  15.781  0.0128 -0.1816  0.8203
12374TIP3    H258614   3.857   4.011  15.756 -0.1537 -0.1180  1.1002
12375TIP3   OH258615   3.947   1.260   0.257  0.0867  0.1455 -0.1699
12375TIP3    H158616   3.953   1.243   0.163  1.3669  1.4162 -0.3306
12375TIP3    H258617   4.016   1.324   0.275  0.2108 -0.4705  1.7304
12376TIP3   OH258618   3.442   0.133   2.956  0.9032 -0.5780 -0.7065
12376TIP3    H158619   3.474   0.047   2.928 -0.7432 -2.1512  2.0094
12376TIP3    H258620   3.358   0.144   2.911  1.5089  0.0055 -1.7077
12377TIP3   OH258621   2.791   5.983   5.316  0.1856  0.5522 -0.1954
12377TIP3    H158622   2.716   5.978   5.257  0.9951 -0.0191 -1.1862
12377TIP3    H258623   2.852   6.043   5.273  0.7101  0.2637  0.1338
12378TIP3   OH258624   4.835   4.979  16.130 -0.5420 -0.0901 -0.1184
12378TIP3    H158625   4.773   4.961  16.060  2.0875 -0.1510 -2.5138
12378TIP3    H258626   4.893   5.046  16.095  1.9761 -1.4496  1.2660
12379TIP3   OH258627   4.151   6.656   0.462 -0.4055  0.3153 -0.0168
12379TIP3    H158628   4.116   6.708   0.389  0.7347  0.6801 -0.3149
12379TIP3    H258629   4.167   6.719   0.532 -1.2157  0.0098  0.4448
12380TIP3   OH258630   0.666   2.665   2.481  0.1888 -0.2782 -0.3086
12380TIP3    H158631   0.751   2.635   2.451  0.1518 -0.2019 -0.4912
12380TIP3    H258632   0.680   2.695   2.571  0.2733 -0.6278 -0.2066
12381TIP3   OH258633   5.397   5.401  13.416  0.3576 -0.3114  0.2173
12381TIP3    H158634   5.304   5.399  13.436  0.0683  0.7631 -0.9403
12381TIP3    H258635   5.402   5.395  13.321  1.5014 -0.9579  0.3037
12382TIP3   OH258636   5.690   2.939  10.751  0.1301  0.0494 -0.4220
12382TIP3    H158637   5.633   2.945  10.828  0.5941 -3.6319  0.2742
12382TIP3    H258638   5.777   2.921  10.787  0.3800 -1.5315 -1.7804
12383TIP3   OH258639   1.669   3.606  16.379  0.3668 -0.1284 -0.0219
12383TIP3    H158640   1.718   3.553  16.317  2.0406  0.9669  0.3384
12383TIP3    H258641   1.730   3.622  16.451 -1.6095 -1.5720  2.0506
12384TIP3   OH258642   5.166   4.306   6.126  0.3098  0.0545 -0.6294
12384TIP3    H158643   5.158   4.227   6.073  0.4089 -0.4684  0.1278
12384TIP3    H258644   5.201   4.372   6.067  2.3898 -1.0780 -0.6798
12385TIP3   OH258645   0.692   1.200   0.453 -0.2702 -0.6787 -0.3840
12385TIP3    H158646   0.627   1.213   0.384 -1.9628  1.8494  1.5978
12385TIP3    H258647   0.681   1.109   0.480 -1.5213 -0.8703 -1.5212
12386TIP3   OH258648   5.795   4.758  17.271  0.1288  0.0735  0.6799
12386TIP3    H158649   5.770   4.850  17.275  0.7162  0.2352  0.6043
12386TIP3    H258650   5.847   4.750  17.191 -0.3560 -0.4308  0.4133
12387TIP3   OH258651   3.283   2.073  14.949  0.4971 -0.0205 -0.0997
12387TIP3    H158652   3.203   2.041  14.908  1.1386  1.2860 -2.4134
12387TIP3    H258653   3.259   2.158  14.986  0.2128 -0.6994  1.3153
12388TIP3   OH258654   3.247   5.797  16.630 -0.3548 -0.0189  0.0891
12388TIP3    H158655   3.194   5.807  16.551  0.2011  0.4496 -0.2346
12388TIP3    H258656   3.308   5.871  16.627  0.0420 -0.3217  0.6621
12389TIP3   OH258657   0.038   4.163   3.989 -0.1362 -0.0769  0.1705
12389TIP3    H158658   0.047   4.251   3.952 -1.0219  0.2463  0.7134
12389TIP3    H258659   0.016   4.178   4.081 -0.1790 -0.8735  0.2949
12390TIP3   OH258660   1.879   1.747  15.883  0.0033  0.2803 -0.3898
12390TIP3    H158661   1.796   1.740  15.836 -0.3135  2.2913 -0.2088
12390TIP3    H258662   1.855   1.746  15.976 -0.0072  2.2256 -0.3345
12391TIP3   OH258663   3.185   3.936   1.178  0.5839  0.2220  0.1569
12391TIP3    H158664   3.131   3.943   1.257 -0.7627  1.8003 -0.8814
12391TIP3    H258665   3.216   3.845   1.178 -2.7529 -0.9833  0.3555
12392TIP3   OH258666   2.665   6.707  15.345 -0.1362 -0.5139  0.0385
12392TIP3    H158667   2.585   6.667  15.379  0.2941 -1.3975  0.0286
12392TIP3    H258668   2.673   6.790  15.392 -0.8432 -0.6096  0.3251
12393TIP3   OH258669   4.883   6.752   1.328 -0.7866 -0.4557  0.0912
12393TIP3    H158670   4.875   6.664   1.291 -0.0769 -0.1792 -0.7162
12393TIP3    H258671   4.966   6.785   1.295 -2.0154  1.3285 -1.2746
12394TIP3   OH258672   0.329   1.392   2.350  0.3073 -0.3312 -0.0704
12394TIP3    H158673   0.298   1.313   2.306 -2.7621  1.3720 -1.1259
12394TIP3    H258674   0.343   1.455   2.280  2.8420  0.0558  0.7496
12395TIP3   OH258675   1.258   2.230   1.080 -0.2659 -0.3892  0.4142
12395TIP3    H158676   1.343   2.227   1.036  0.9116  0.4180  2.5421
12395TIP3    H258677   1.213   2.304   1.039 -0.0808 -0.9941 -0.9167
12396TIP3   OH258678   5.304   5.573   5.754  0.8381 -0.0736  0.3012
12396TIP3    H158679   5.303   5.652   5.808 -1.0815  1.2641 -1.6066
12396TIP3    H258680   5.305   5.501   5.817  0.5419  1.4521  2.1064
12397TIP3   OH258681   0.076   6.670  11.919 -0.4097  0.5063 -0.1728
12397TIP3    H158682   0.160   6.692  11.959  0.6189 -1.3726 -1.2239
12397TIP3    H258683   0.027   6.627  11.990 -0.1502  0.8412  0.2134
12398TIP3   OH258684   2.919   0.267  15.774  0.0261 -0.1119  0.5956
12398TIP3    H158685   2.961   0.186  15.744  0.9900 -0.0308  1.7112
12398TIP3    H258686   2.988   0.333  15.770 -0.8741  0.7676 -0.7299
12399TIP3   OH258687   3.354   4.050  16.294 -0.2553 -0.8398 -0.3950
12399TIP3    H158688   3.285   3.987  16.271  0.0289 -1.4948  0.4800
12399TIP3    H258689   3.309   4.134  16.301 -1.1519 -1.4022  1.0138
12400TIP3   OH258690   5.139   5.348  15.710  0.6684  0.3151 -0.2298
12400TIP3    H158691   5.162   5.256  15.704 -0.9476 -0.0893 -0.2996
12400TIP3    H258692   5.132   5.377  15.619 -1.0290 -0.0578 -0.2258
12401TIP3   OH258693   0.250   4.311  11.850  0.4922 -0.4667  0.1431
12401TIP3    H158694   0.196   4.349  11.920 -2.0162 -2.7710 -0.4490
12401TIP3    H258695   0.292   4.387  11.809 -2.4198  1.4803  0.5776
12402TIP3   OH258696   4.394   1.613   4.877 -0.1647 -0.0866  0.8539
12402TIP3    H158697   4.299   1.621   4.882 -0.4723 -2.1949 -1.0279
12402TIP3    H258698   4.409   1.525   4.842  2.4298  0.8660 -0.5576
12403TIP3   OH258699   0.580   3.180  14.595 -0.2330  0.1043 -0.1238
12403TIP3    H158700   0.620   3.231  14.666 -0.5151  1.4370 -0.9057
12403TIP3    H258701   0.632   3.099  14.591  0.3276  0.3970  1.0201
12404TIP3   OH258702   5.888   4.544  11.051  0.3832 -0.6065  0.3523
12404TIP3    H158703   5.911   4.534  10.958 -1.3141  0.4845 -0.2036
12404TIP3    H258704   5.919   4.632  11.074  2.0299 -1.3804  1.2251
12405TIP3   OH258705   4.964   1.841   3.806 -0.0951  1.2773  0.1209
12405TIP3    H158706   4.994   1.829   3.716  1.4180 -0.5143  0.8203
12405TIP3    H258707   4.962   1.936   3.818 -0.0865  1.5272 -1.7177
12406TIP3   OH258708   0.565   0.042   0.051 -0.1204  0.0351  0.2892
12406TIP3    H158709   0.514  -0.017  -0.004  0.4524  0.9865 -1.3077
12406TIP3    H258710   0.535   0.130   0.026  0.8934  0.5189  0.7437
12407TIP3   OH258711   3.900   6.703  16.855  0.2636  0.3622 -0.5475
12407TIP3    H158712   3.992   6.729  16.855  0.7093 -1.1814  0.5545
12407TIP3    H258713   3.892   6.643  16.781  0.6422 -1.1844  0.6471
12408TIP3   OH258714   6.486   1.083   0.031  0.2245  0.1185 -0.1221
12408TIP3    H158715   6.416   1.075  -0.034 -0.7243 -0.6982  0.9881
12408TIP3    H258716   6.564   1.101  -0.021 -0.7213  0.6168 -1.4087
12409TIP3   OH258717   0.294   4.262   4.992  0.0782  0.2411 -0.0005
12409TIP3    H158718   0.381   4.257   4.953  0.2008  0.5024  0.2416
12409TIP3    H258719   0.256   4.341   4.954  0.2460  0.5685  0.5086
12410TIP3   OH258720   3.325   1.604  15.315 -0.1620 -0.3227  0.1460
12410TIP3    H158721   3.356   1.571  15.231  0.4788  0.8723 -0.0832
12410TIP3    H258722   3.231   1.585  15.315 -0.9284  3.0033 -2.4199
12411TIP3   OH258723   4.291   3.794   5.758 -0.3039  0.5547  0.2938
12411TIP3    H158724   4.376   3.823   5.723  0.3362 -0.6437  0.8483
12411TIP3    H258725   4.272   3.854   5.830  0.6019  0.1460  0.8751
12412TIP3   OH258726   3.663   4.045  10.356  0.0486  0.0191  0.0010
12412TIP3    H158727   3.688   4.098  10.432  1.3247 -1.9508  1.0051
12412TIP3    H258728   3.654   3.957  10.391 -0.8766 -0.6449 -1.8640
12413TIP3   OH258729   1.460   6.089   1.947  0.1263 -0.4675 -0.2741
12413TIP3    H158730   1.485   6.011   1.998  0.1914 -0.0247  0.3807
12413TIP3    H258731   1.381   6.121   1.990  0.8968  0.6447  0.3582
12414TIP3   OH258732   0.495   2.709  11.009 -0.1104  0.1163  0.0005
12414TIP3    H158733   0.533   2.776  11.066  0.7990 -0.1994 -0.2149
12414TIP3    H258734   0.571   2.661  10.975 -0.7624 -1.2633  0.4387
12415TIP3   OH258735   5.837   5.235   0.713 -0.7033 -0.1097 -0.3704
12415TIP3    H158736   5.907   5.300   0.723  0.2539 -1.0304 -1.0717
12415TIP3    H258737   5.831   5.193   0.799  0.2951 -0.7173 -0.5904
12416TIP3   OH258738   4.016   6.438   3.093 -0.1734  0.2015  0.2276
12416TIP3    H158739   4.044   6.380   3.022  0.7416  0.4746  0.3653
12416TIP3    H258740   3.968   6.508   3.049 -1.5036 -0.7813  0.0792
12417TIP3   OH258741   1.311   2.830   4.711  0.7449 -0.1255  0.0197
12417TIP3    H158742   1.308   2.919   4.746  0.9264 -0.4865  0.9585
12417TIP3    H258743   1.278   2.838   4.621  0.9755  0.9230  0.0286
12418TIP3   OH258744   3.424   6.254   0.399  0.2628  0.0845 -0.1736
12418TIP3    H158745   3.511   6.288   0.423 -0.7136  0.4117  3.0967
12418TIP3    H258746   3.424   6.164   0.431 -0.5891  0.0990 -0.1194
12419TIP3   OH258747   6.574   2.291   2.825 -0.2152 -0.3507 -0.2945
12419TIP3    H158748   6.593   2.257   2.913 -1.0934 -0.0057  0.0390
12419TIP3    H258749   6.660   2.308   2.787  0.1486  1.3961  1.2521
12420TIP3   OH258750   0.477   2.041  15.595 -0.5340  0.0231 -0.3506
12420TIP3    H158751   0.522   1.968  15.638  2.1408  1.3293 -0.7921
12420TIP3    H258752   0.466   2.012  15.505 -0.1434 -0.1520 -0.3458
12421TIP3   OH258753   1.201   6.057  14.150 -0.2680  0.1755  0.1252
12421TIP3    H158754   1.151   6.010  14.217 -0.2341  0.8888  0.6520
12421TIP3    H258755   1.181   6.149  14.165  0.6501  0.4198 -0.1022
12422TIP3   OH258756   6.587   2.779  13.821  1.0019 -0.2810 -0.4301
12422TIP3    H158757   6.550   2.832  13.892  2.9205 -0.2092  0.5396
12422TIP3    H258758   6.519   2.778  13.754 -0.8293 -0.2904  1.3880
12423TIP3   OH258759   5.584   4.945   2.795  0.4246 -0.8363 -0.1148
12423TIP3    H158760   5.612   4.930   2.705 -0.1708 -0.7737 -0.3181
12423TIP3    H258761   5.574   5.040   2.801 -0.9951 -0.9480 -0.4428
12424TIP3   OH258762   1.629   5.087  14.772  0.1524 -0.1686 -0.1506
12424TIP3    H158763   1.592   5.065  14.857 -0.7432 -1.8127 -0.9333
12424TIP3    H258764   1.700   5.149  14.792 -0.9545  0.5599  1.6346
12425TIP3   OH258765   1.183   2.967   2.089 -0.2917 -0.5036  0.2884
12425TIP3    H158766   1.250   3.004   2.032 -1.4049  1.6245  0.3057
12425TIP3    H258767   1.226   2.892   2.131  2.2289  1.0655  0.6466
12426TIP3   OH258768   5.939   4.329   2.267 -0.1935  0.3966  0.1427
12426TIP3    H158769   5.847   4.354   2.277 -0.6548 -0.5119 -1.6710
12426TIP3    H258770   5.967   4.369   2.185  1.7847  2.7240  1.8710
12427TIP3   OH258771   4.704   0.314  16.575  0.1633  0.1073  0.4554
12427TIP3    H158772   4.680   0.356  16.658  0.5877 -0.5675  0.9318
12427TIP3    H258773   4.730   0.386  16.518  0.1878  0.5534  1.0203
12428TIP3   OH258774   3.960   5.194   4.114  0.3267  0.2222  0.1765
12428TIP3    H158775   4.054   5.171   4.113  0.0189 -1.1714 -3.2154
12428TIP3    H258776   3.959   5.289   4.120  2.0322  0.3783 -1.3565
12429TIP3   OH258777   4.946   2.768   2.819  0.1172 -0.0352  0.2168
12429TIP3    H158778   4.919   2.797   2.906  0.3123 -2.5423  1.1532
12429TIP3    H258779   5.007   2.697   2.835 -2.5689 -2.9776 -1.9556
12430TIP3   OH258780   0.726   2.273   3.346  0.5366 -0.0853  0.2864
12430TIP3    H158781   0.725   2.349   3.287  0.4443 -0.4369 -0.1693
12430TIP3    H258782   0.793   2.215   3.309  1.1091  0.0898  1.0390
12431TIP3   OH258783   4.479   4.083   0.186  0.3018 -0.0076 -0.1503
12431TIP3    H158784   4.507   4.165   0.145 -0.3525  1.0150  1.3884
12431TIP3    H258785   4.489   4.098   0.280 -0.2860 -1.5236  0.1753
12432TIP3   OH258786   6.490   6.669   2.731  0.2724 -0.0042 -0.1372
12432TIP3    H158787   6.493   6.573   2.722 -2.5734 -0.2029  0.5842
12432TIP3    H258788   6.502   6.684   2.825  1.7884  0.4162 -0.3975
12433TIP3   OH258789   2.605   1.974  11.319 -0.3357  0.1334  0.4378
12433TIP3    H158790   2.647   1.892  11.345  0.5329 -0.5907 -2.9396
12433TIP3    H258791   2.524   1.946  11.276  0.4012  0.9601 -1.5356
12434TIP3   OH258792   1.578   5.539   1.913 -0.2542  0.7687 -0.0800
12434TIP3    H158793   1.619   5.520   1.997  0.8728  0.6430 -0.6508
12434TIP3    H258794   1.634   5.605   1.872 -2.2219  2.7857  0.3647
12435TIP3   OH258795   6.546   5.711   2.882 -0.5504  0.0630  0.2776
12435TIP3    H158796   6.467   5.744   2.838 -1.2754 -1.9243  0.0284
12435TIP3    H258797   6.528   5.723   2.975  0.2603  2.6687  0.1338
12436TIP3   OH258798   0.561   2.141  13.407 -0.4190  0.4308 -0.0289
12436TIP3    H158799   0.468   2.141  13.387 -0.4374  1.8673  0.0096
12436TIP3    H258800   0.599   2.205  13.346  0.3245  0.8795  0.8785
12437TIP3   OH258801   2.017   1.094  16.396  0.4127 -0.3737  0.3392
12437TIP3    H158802   2.051   1.040  16.325 -0.5589 -1.4029  0.6344
12437TIP3    H258803   1.945   1.143  16.356  1.0373  0.3976  0.1674
12438TIP3   OH258804   0.476   3.699   5.580 -0.4999 -0.2046 -0.0783
12438TIP3    H158805   0.563   3.662   5.593 -0.5937 -0.6444 -0.6763
12438TIP3    H258806   0.483   3.788   5.614 -0.1314 -0.6007  0.8885
12439TIP3   OH258807   1.567   4.034   4.484  0.5198  0.3861  0.1666
12439TIP3    H158808   1.630   4.100   4.512  1.3043  0.0074 -0.6788
12439TIP3    H258809   1.559   4.047   4.390 -0.3729  0.1749  0.2109
12440TIP3   OH258810   4.930   5.659  15.361 -0.2962 -0.2997  0.2978
12440TIP3    H158811   5.003   5.622  15.410 -0.0998 -0.0115  0.2207
12440TIP3    H258812   4.880   5.583  15.331  0.8529 -0.5514 -1.0032
12441TIP3   OH258813   0.795   1.035  14.695  0.0292  0.0377  0.1389
12441TIP3    H158814   0.772   1.077  14.777 -1.3145 -1.6513  0.6661
12441TIP3    H258815   0.862   1.092  14.656  1.2587  0.4536  2.7598
12442TIP3   OH258816   2.566   2.688   3.420  0.4476 -0.3977 -0.1273
12442TIP3    H158817   2.511   2.762   3.396  0.4688 -0.2864  0.1663
12442TIP3    H258818   2.635   2.688   3.353 -0.6010 -1.3098 -1.2422
12443TIP3   OH258819   1.324   4.001   2.495  0.2796  0.2091 -0.0953
12443TIP3    H158820   1.307   4.089   2.462 -0.6541 -0.1347 -0.5524
12443TIP3    H258821   1.247   3.951   2.469  1.6871 -1.2326 -1.5937
12444TIP3   OH258822   4.857   5.763  13.507 -0.3721  0.5312 -0.0967
12444TIP3    H158823   4.826   5.685  13.553  0.6434 -0.9090 -1.7717
12444TIP3    H258824   4.953   5.760  13.517 -0.1453  0.2863 -2.0743
12445TIP3   OH258825   3.355   3.656   0.468  0.2732 -0.5775 -0.5411
12445TIP3    H158826   3.427   3.692   0.519 -1.2240  0.5405  0.8285
12445TIP3    H258827   3.291   3.628   0.533 -1.7272  0.9918 -1.7561
12446TIP3   OH258828   3.290   1.048  12.024  0.0904  0.2124  0.0738
12446TIP3    H158829   3.316   1.005  12.105 -0.2051  0.3763  0.2592
12446TIP3    H258830   3.200   1.019  12.010  0.1458  0.1732 -0.2031
12447TIP3   OH258831   4.538   6.718  11.660  0.0634  0.0921  0.4225
12447TIP3    H158832   4.596   6.763  11.599  0.6906  0.8251  1.5714
12447TIP3    H258833   4.450   6.735  11.626  0.4811 -1.0741 -1.3568
12448TIP3   OH258834   0.203   2.448   4.099  0.5825 -0.3541 -0.2147
12448TIP3    H158835   0.119   2.479   4.066 -0.6099 -0.5039  2.5636
12448TIP3    H258836   0.237   2.392   4.030 -1.7333 -0.5144 -1.2617
12449TIP3   OH258837   1.119   4.618  15.135  0.1917 -0.4203  0.4680
12449TIP3    H158838   1.136   4.660  15.219  2.3311  0.7741 -0.5275
12449TIP3    H258839   1.186   4.550  15.128  0.0483 -0.4857 -0.2957
12450TIP3   OH258840   2.288   4.490   0.249  0.2477  0.1337  0.7587
12450TIP3    H158841   2.301   4.489   0.343  2.3765  1.6564  0.5143
12450TIP3    H258842   2.233   4.566   0.232 -0.1821 -0.1723  0.7538
12451TIP3   OH258843   0.424   4.025  11.717  0.9133 -0.4016  0.5970
12451TIP3    H158844   0.515   4.053  11.703  0.6522  0.0903 -0.1406
12451TIP3    H258845   0.393   4.000  11.631  0.0868  0.2340  0.7044
12452TIP3   OH258846   0.860   0.348   4.825  0.0784  0.7003 -0.3990
12452TIP3    H158847   0.797   0.344   4.753 -0.9203  0.7784  0.4589
12452TIP3    H258848   0.918   0.420   4.801 -0.2454  0.7241 -1.1314
12453TIP3   OH258849   5.875   2.488  12.324 -0.6604 -0.0810  0.0079
12453TIP3    H158850   5.859   2.411  12.379 -2.7247  0.5349  0.3010
12453TIP3    H258851   5.894   2.559  12.385 -1.2452  0.2105 -0.1424
12454TIP3   OH258852   4.268   4.370  12.085 -0.0531 -0.4014  0.3329
12454TIP3    H158853   4.227   4.444  12.041 -0.3426 -1.6198 -1.5074
12454TIP3    H258854   4.361   4.389  12.085 -0.1810  0.2089  0.3149
12455TIP3   OH258855   0.865   3.517  11.767  0.1726  0.7937  0.6020
12455TIP3    H158856   0.811   3.496  11.843  0.7333  0.9047  1.0355
12455TIP3    H258857   0.817   3.587  11.722  0.2637  1.3273  1.3257
12456TIP3   OH258858   0.147   0.598   1.183  0.5429 -0.1914 -0.4062
12456TIP3    H158859   0.149   0.502   1.186  0.2388 -0.1465  1.8998
12456TIP3    H258860   0.055   0.618   1.163  0.2509 -0.3598  0.7423
12457TIP3   OH258861   0.554   3.923  16.010  0.1455 -0.1657 -0.0405
12457TIP3    H158862   0.625   3.873  15.971  0.6558  1.3187 -1.0934
12457TIP3    H258863   0.594   4.007  16.035 -0.8450  0.0258  0.9673
12458TIP3   OH258864   0.408   0.903  15.403 -0.5905  0.4704  0.2210
12458TIP3    H158865   0.478   0.838  15.412 -0.4445  0.4239 -1.2374
12458TIP3    H258866   0.452   0.988  15.415 -0.6225  0.3572  1.1940
12459TIP3   OH258867   0.912   5.053   3.260 -0.3969 -0.0363  0.2850
12459TIP3    H158868   0.896   5.101   3.341  0.3217  1.6052 -0.5260
12459TIP3    H258869   0.826   5.050   3.217 -0.0882  2.1884 -0.5388
12460TIP3   OH258870   4.718   0.358  14.355 -0.3857  0.0283  0.0585
12460TIP3    H158871   4.772   0.437  14.362  0.0764 -0.3461  0.7739
12460TIP3    H258872   4.652   0.381  14.290  1.1257  0.1920 -1.4514
12461TIP3   OH258873   0.204   5.608  16.825 -0.3004  0.0042  0.2674
12461TIP3    H158874   0.116   5.609  16.789  0.3117  0.1357 -1.2533
12461TIP3    H258875   0.194   5.570  16.913 -1.8482 -0.0295  0.0850
12462TIP3   OH258876   5.039   1.171  13.015 -0.0509  0.1758 -0.1493
12462TIP3    H158877   5.007   1.083  13.032 -0.5661  0.4569  0.3779
12462TIP3    H258878   5.047   1.176  12.919 -1.3927  0.0189 -0.2798
12463TIP3   OH258879   1.143   2.524  16.503 -0.3371  0.3404  0.3924
12463TIP3    H158880   1.061   2.542  16.548 -0.3954  0.5896  0.1804
12463TIP3    H258881   1.207   2.582  16.544 -0.3456  0.4194  0.2924
12464TIP3   OH258882   3.215   1.191   2.215 -0.0215  0.1455  0.1440
12464TIP3    H158883   3.258   1.135   2.280 -0.2860 -0.1618  0.0593
12464TIP3    H258884   3.264   1.177   2.134 -0.3970 -0.3571 -0.0015
12465TIP3   OH258885   4.690   3.242   5.069  0.2521 -0.4769  0.1782
12465TIP3    H158886   4.767   3.216   5.119 -0.6770 -0.7106  1.5333
12465TIP3    H258887   4.683   3.337   5.082  1.3254 -0.1652 -1.4265
12466TIP3   OH258888   1.048   6.295  14.090  0.0387 -0.2259  0.7044
12466TIP3    H158889   0.998   6.337  14.160 -1.1569  1.8524 -1.3125
12466TIP3    H258890   1.135   6.334  14.096  0.1421 -0.5594  1.4357
12467TIP3   OH258891   4.886   5.294  17.081 -0.2668  0.4923  0.2536
12467TIP3    H158892   4.964   5.348  17.070  1.9560 -2.2510  1.9701
12467TIP3    H258893   4.869   5.259  16.994 -0.2235  1.8930 -0.3396
12468TIP3   OH258894   5.058   2.259  12.283  0.2623  0.0629 -0.3069
12468TIP3    H158895   5.138   2.310  12.282  0.4768 -0.2398 -2.3484
12468TIP3    H258896   5.086   2.170  12.264 -0.4510 -0.2066 -0.1012
12469TIP3   OH258897   4.487   2.365   3.561 -0.1172  0.1426 -0.2013
12469TIP3    H158898   4.451   2.295   3.506 -0.6284  0.0606  0.2339
12469TIP3    H258899   4.422   2.435   3.557 -0.0698  0.2085  0.1502
12470TIP3   OH258900   3.169   0.498  10.857  0.6176 -0.2494 -0.1440
12470TIP3    H158901   3.096   0.533  10.806  0.3939 -2.4992 -1.4319
12470TIP3    H258902   3.147   0.518  10.948 -0.9360  0.2574 -0.6207
12471TIP3   OH258903   0.147   6.046  15.144  0.6419 -0.0855  0.0097
12471TIP3    H158904   0.153   6.127  15.093  0.2768  0.4529  0.8147
12471TIP3    H258905   0.053   6.031  15.155  0.6612 -1.4233 -1.3802
12472TIP3   OH258906   3.123   4.827   2.470 -0.4108 -0.2343 -0.0356
12472TIP3    H158907   3.201   4.822   2.525 -0.3074 -0.8589 -0.2327
12472TIP3    H258908   3.145   4.892   2.402 -0.1556 -0.2336  0.0490
12473TIP3   OH258909   5.900   5.573   0.471  0.2301 -0.4720 -0.2631
12473TIP3    H158910   5.952   5.653   0.479 -2.0674  1.1597 -1.1627
12473TIP3    H258911   5.947   5.520   0.406  1.8794  0.0127  0.5012
12474TIP3   OH258912   3.566   3.751   0.609 -0.1178 -0.1720  0.7383
12474TIP3    H158913   3.627   3.744   0.683 -0.0749 -0.5191  0.6673
12474TIP3    H258914   3.621   3.744   0.531 -0.2864 -0.7710  0.6754
12475TIP3   OH258915   5.975   4.640  12.675 -0.0671 -0.3105 -0.3212
12475TIP3    H158916   5.938   4.689  12.749 -0.5901 -0.4161 -0.5113
12475TIP3    H258917   5.992   4.553  12.711 -1.5354 -0.7540 -0.6647
12476TIP3   OH258918   2.999   1.062  15.028  0.4389 -0.6360 -0.4968
12476TIP3    H158919   3.080   1.112  15.035  0.2793 -0.3939 -0.3496
12476TIP3    H258920   2.974   1.043  15.119  2.0897 -3.5973 -0.6179
12477TIP3   OH258921   3.473   2.089  14.775 -0.0761 -0.2964  0.0899
12477TIP3    H158922   3.447   2.152  14.708 -1.7266 -0.4835  0.5282
12477TIP3    H258923   3.406   2.098  14.844  1.3942 -0.3613  1.5505
12478TIP3   OH258924   1.089   4.713  16.804  0.4746 -0.4422  0.3900
12478TIP3    H158925   1.029   4.756  16.744  0.5236 -1.8726 -0.7264
12478TIP3    H258926   1.121   4.782  16.861  0.2298  0.8918 -1.0789
12479TIP3   OH258927   4.841   2.661  13.028  0.2224  0.1449  0.2223
12479TIP3    H158928   4.801   2.706  13.102  1.8857  0.7324  0.7704
12479TIP3    H258929   4.871   2.577  13.063 -0.7808 -0.4461 -0.2715
12480TIP3   OH258930   2.663   6.042   0.511  0.2207  0.0179  0.0455
12480TIP3    H158931   2.723   6.044   0.586  0.4861 -0.9249 -0.1299
12480TIP3    H258932   2.708   6.092   0.443  0.7585 -0.5754 -0.0411
12481TIP3   OH258933   2.862   1.303   5.180  0.6471 -0.3432 -0.1350
12481TIP3    H158934   2.774   1.324   5.212  1.5997  1.0770  1.6644
12481TIP3    H258935   2.875   1.212   5.205  0.1264 -0.2064  0.6658
12482TIP3   OH258936   4.065   4.721  17.022 -0.5241 -0.0283  0.1990
12482TIP3    H158937   3.990   4.774  17.052 -1.6766 -0.3422 -2.0349
12482TIP3    H258938   4.122   4.783  16.977 -0.5598 -0.2161 -0.1013
12483TIP3   OH258939   2.245   1.305  13.558 -0.2199  0.3191 -0.2309
12483TIP3    H158940   2.228   1.397  13.537  1.0111  1.0029  1.6104
12483TIP3    H258941   2.288   1.270  13.480  0.4536  1.6491 -0.4647
12484TIP3   OH258942   2.482   1.776   1.728 -0.6989 -0.1673 -0.0621
12484TIP3    H158943   2.529   1.768   1.811  1.1015 -1.4824 -1.1618
12484TIP3    H258944   2.497   1.866   1.700  2.5065 -0.9458 -1.1095
12485TIP3   OH258945   0.308   1.316  13.476 -0.3434 -0.1323  0.5756
12485TIP3    H158946   0.392   1.348  13.508  0.8342  0.8456 -3.3041
12485TIP3    H258947   0.250   1.392  13.484 -0.3511 -0.2009  1.2755
12486TIP3   OH258948   4.891   3.551   3.514  0.0178 -0.2508  0.1440
12486TIP3    H158949   4.957   3.613   3.546  0.8578 -0.6038 -0.8678
12486TIP3    H258950   4.854   3.513   3.593  1.5713 -0.6013  0.7243
12487TIP3   OH258951   3.675   6.264   3.777 -0.3947  0.6989 -0.2970
12487TIP3    H158952   3.673   6.197   3.844 -1.4854  0.9319 -0.0821
12487TIP3    H258953   3.644   6.219   3.698  3.2628 -0.2264 -1.2821
12488TIP3   OH258954   4.016   5.842   2.090  0.2821  0.3119 -0.0730
12488TIP3    H158955   3.955   5.787   2.140  1.7636  0.5319  2.0651
12488TIP3    H258956   4.045   5.908   2.153  4.3912 -1.1196 -0.3328
12489TIP3   OH258957   6.227   5.579  11.563 -0.5139  0.2286  0.0165
12489TIP3    H158958   6.140   5.616  11.547  0.1331  1.7190 -0.1032
12489TIP3    H258959   6.214   5.518  11.635 -1.8833 -0.4345 -0.7611
12490TIP3   OH258960   3.920   1.744   4.565  0.6319 -0.3203 -0.6885
12490TIP3    H158961   3.938   1.818   4.623 -0.1095  0.0977 -0.9749
12490TIP3    H258962   3.851   1.695   4.610  0.4654 -0.3157 -0.9355
12491TIP3   OH258963   0.371   2.263  11.436  0.4308 -0.0840 -0.1107
12491TIP3    H158964   0.462   2.240  11.453  0.6710  2.2127  1.8846
12491TIP3    H258965   0.347   2.210  11.359  3.3361 -0.8950 -0.5151
12492TIP3   OH258966   3.300   5.547   5.949 -0.3610  0.7722  0.1108
12492TIP3    H158967   3.357   5.591   5.886  0.3249  1.1273  0.9607
12492TIP3    H258968   3.222   5.602   5.953 -1.1608 -0.2102 -1.7400
12493TIP3   OH258969   2.242   2.132  13.485 -0.4378  0.3970  0.5663
12493TIP3    H158970   2.279   2.136  13.397 -1.2522  1.2529  0.2680
12493TIP3    H258971   2.258   2.218  13.522 -3.3481  1.2333 -0.0518
12494TIP3   OH258972   5.000   3.128  16.503  0.2484 -0.3375 -0.1946
12494TIP3    H158973   4.946   3.178  16.565  0.6742 -1.8222  1.3848
12494TIP3    H258974   5.036   3.195  16.444  0.2590  1.1655  1.4678
12495TIP3   OH258975   5.087   3.489   4.510 -0.0565  0.2307 -0.4250
12495TIP3    H158976   5.170   3.514   4.469  0.8369 -0.1007  1.1231
12495TIP3    H258977   5.108   3.482   4.603 -2.1903  1.7143  0.2107
12496TIP3   OH258978   1.240   4.698   1.649  0.7046 -0.0887 -0.6682
12496TIP3    H158979   1.286   4.757   1.590  0.5932  0.0004 -0.6667
12496TIP3    H258980   1.165   4.667   1.598  0.9761 -0.5350 -0.8039
12497TIP3   OH258981   3.178   3.537  12.030 -0.4779  1.1594 -0.0001
12497TIP3    H158982   3.219   3.604  11.976 -0.4818 -0.3721 -1.9525
12497TIP3    H258983   3.110   3.498  11.974 -1.0965  0.1483  1.3982
12498TIP3   OH258984   6.110   4.847  15.526  0.4952  0.1683 -0.2092
12498TIP3    H158985   6.056   4.770  15.506 -0.9647  1.4946 -1.4984
12498TIP3    H258986   6.176   4.847  15.456 -1.2139  1.6336 -1.8870
12499TIP3   OH258987   2.031   1.811   1.953  0.5449  1.0057 -0.0268
12499TIP3    H158988   1.976   1.843   2.025  1.2745  1.2976  0.3984
12499TIP3    H258989   2.121   1.830   1.980  0.9473 -0.8016 -0.0753
12500TIP3   OH258990   5.168   4.608   3.147  0.3670 -0.1476  0.3660
12500TIP3    H158991   5.155   4.691   3.101  0.2409  0.1450  0.9360
12500TIP3    H258992   5.083   4.587   3.184  0.2704 -0.7866 -0.1914
12501TIP3   OH258993   0.138   0.848  10.836 -0.4595 -0.7382  0.2866
12501TIP3    H158994   0.206   0.899  10.793 -0.3898  0.0865  1.3658
12501TIP3    H258995   0.120   0.776  10.775  2.2743 -1.7027  0.5300
12502TIP3   OH258996   0.420   3.926  12.684 -0.5365 -0.2650 -0.6023
12502TIP3    H158997   0.480   3.874  12.738 -0.2133  0.2917 -0.4191
12502TIP3    H258998   0.477   3.977  12.628 -0.7898  1.2669  0.5006
12503TIP3   OH258999   3.727   6.139   4.298  0.2909  0.2228 -0.1153
12503TIP3    H159000   3.696   6.082   4.229  0.0798 -0.8955  0.8834
12503TIP3    H259001   3.707   6.092   4.379 -0.4224  1.9800  0.7506
12504TIP3   OH259002   6.421   4.463   0.661  0.0787  0.5564 -0.0326
12504TIP3    H159003   6.356   4.436   0.726  0.9005 -0.7950  0.2473
12504TIP3    H259004   6.504   4.429   0.695  0.6373  0.5440 -1.3941
12505TIP3   OH259005   4.271   4.615   2.796 -0.2868  0.1116 -0.4234
12505TIP3    H159006   4.220   4.552   2.744 -0.5894  0.3113 -0.3682
12505TIP3    H259007   4.252   4.592   2.887 -0.5793  0.4309 -0.4042
12506TIP3   OH259008   0.154   6.420  15.552 -0.3590 -0.2102 -0.4106
12506TIP3    H159009   0.172   6.403  15.459  0.2063 -1.7391 -0.0266
12506TIP3    H259010   0.211   6.360  15.599 -1.3035 -0.0773  0.9269
12507TIP3   OH259011   0.851   1.126   6.629  0.3157 -0.0342 -0.5183
12507TIP3    H159012   0.867   1.161   6.716 -0.0741 -0.4288 -0.2845
12507TIP3    H259013   0.919   1.060   6.616  0.5127  0.1873 -0.6033
12508TIP3   OH259014   1.281   1.182   2.632  0.5057 -0.1808 -0.3433
12508TIP3    H159015   1.294   1.169   2.726 -0.3306 -0.6901 -0.2836
12508TIP3    H259016   1.280   1.277   2.620 -0.1252 -0.1053  0.2774
12509TIP3   OH259017   1.425   0.657  12.299 -0.2953 -0.2957 -0.0759
12509TIP3    H159018   1.340   0.702  12.298 -0.0014  0.2789  0.5134
12509TIP3    H259019   1.454   0.662  12.390  1.5240  1.6720 -0.7329
12510TIP3   OH259020   3.563   0.656  16.974 -0.4801  0.2884  0.5807
12510TIP3    H159021   3.550   0.734  16.920  1.2235  0.4691  0.4130
12510TIP3    H259022   3.613   0.597  16.918  0.6415  0.1749  1.7082
12511TIP3   OH259023   6.023   6.282  16.887 -0.2069 -0.2282 -0.3101
12511TIP3    H159024   5.944   6.291  16.940 -0.2568 -0.0095 -0.4229
12511TIP3    H259025   6.037   6.369  16.850  1.6384  0.4548  1.9023
12512TIP3   OH259026   6.273   2.894  15.747  0.6987 -0.0791 -0.0853
12512TIP3    H159027   6.363   2.865  15.737  0.4707 -1.4612  1.5515
12512TIP3    H259028   6.220   2.815  15.732 -0.2734  0.8466 -1.6453
12513TIP3   OH259029   3.717   2.220   0.940 -0.3498 -0.2122  0.3637
12513TIP3    H159030   3.716   2.214   1.036  0.1432  1.2151  0.4654
12513TIP3    H259031   3.777   2.292   0.921  0.4518 -1.2449 -1.0679
12514TIP3   OH259032   0.768   4.342  17.010 -0.3506 -0.1120  0.3047
12514TIP3    H159033   0.748   4.295  17.091 -0.8180  0.6000  0.6007
12514TIP3    H259034   0.801   4.274  16.951 -0.7593 -0.7706  0.8183
12515TIP3   OH259035   4.249   1.408  14.275  0.1386  0.1095  0.0795
12515TIP3    H159036   4.239   1.453  14.359  0.7154  4.4667 -2.0928
12515TIP3    H259037   4.343   1.387  14.270  0.0457 -0.4624  0.6210
12516TIP3   OH259038   2.803   5.942  14.619 -0.0332 -0.2783 -1.1833
12516TIP3    H159039   2.898   5.934  14.613  0.2406  2.1757 -0.6599
12516TIP3    H259040   2.785   5.944  14.713 -0.1914  2.8739 -1.2140
12517TIP3   OH259041   3.214   0.877   4.883  0.3317 -0.2089 -0.2154
12517TIP3    H159042   3.250   0.872   4.795  1.0265 -1.4721  0.1280
12517TIP3    H259043   3.133   0.927   4.873  0.7892  0.3046 -1.4378
12518TIP3   OH259044   2.181   5.008  12.994  0.0839 -0.1907 -0.3880
12518TIP3    H159045   2.224   4.938  13.043 -0.2094  0.4966  0.8622
12518TIP3    H259046   2.163   4.970  12.908  0.6316 -1.3931  0.0253
12519TIP3   OH259047   1.145   3.932  12.736 -0.0355 -0.3562 -0.4793
12519TIP3    H159048   1.184   3.845  12.731  0.2371 -0.3292  1.0111
12519TIP3    H259049   1.216   3.989  12.765 -0.4977  0.1809 -0.3800
12520TIP3   OH259050   0.129   3.672   2.215 -0.3892 -0.1293  0.1666
12520TIP3    H159051   0.061   3.605   2.218  0.1909 -0.7017  1.1096
12520TIP3    H259052   0.086   3.753   2.243 -0.9479 -0.2385 -0.3769
12521TIP3   OH259053   6.022   5.800   0.882  0.8531  0.6051  0.6100
12521TIP3    H159054   5.934   5.830   0.859  0.5304 -0.4127  0.4912
12521TIP3    H259055   6.081   5.855   0.830  0.2512  0.6889  0.0229
12522TIP3   OH259056   1.097   1.071   4.075 -0.0822 -0.4492  0.3160
12522TIP3    H159057   1.171   1.028   4.119 -0.0376 -1.6743 -0.9294
12522TIP3    H259058   1.134   1.106   3.994 -1.1829 -2.5498 -1.1422
12523TIP3   OH259059   5.070   5.984   4.539 -0.0392  0.2460  0.2294
12523TIP3    H159060   5.120   5.963   4.460 -0.5365  0.5617 -0.1743
12523TIP3    H259061   5.029   5.901   4.564 -0.2434  0.2457 -0.1039
12524TIP3   OH259062   2.145   0.217  16.548  0.4334 -0.3732  0.9416
12524TIP3    H159063   2.151   0.153  16.477  0.0761  0.3360  0.2579
12524TIP3    H259064   2.122   0.299  16.504  0.9136  0.2349  1.7940
12525TIP3   OH259065   3.043   6.781  11.450  0.1137  1.1474  0.3642
12525TIP3    H159066   2.988   6.787  11.528  1.0850 -0.3551  1.1956
12525TIP3    H259067   3.035   6.867  11.408 -2.2544  1.1985  0.8607
12526TIP3   OH259068   3.813   5.969   1.399 -0.2140 -0.1552 -0.0112
12526TIP3    H159069   3.858   6.015   1.328  1.1785  1.9608  2.1396
12526TIP3    H259070   3.735   6.022   1.416 -0.1825 -0.2624  0.4855
12527TIP3   OH259071   1.721   6.460   3.199 -0.0086  0.2697  0.3185
12527TIP3    H159072   1.710   6.508   3.117  1.5078  0.8619  0.4425
12527TIP3    H259073   1.654   6.496   3.257 -0.2196  0.7888 -0.2428
12528TIP3   OH259074   4.956   2.093  13.329  0.3190  0.1493  0.2622
12528TIP3    H159075   5.010   2.064  13.255  2.2041  1.8004  0.9589
12528TIP3    H259076   4.906   2.167  13.294 -1.6794 -1.4526 -0.4195
12529TIP3   OH259077   5.905   3.449  12.423 -0.5423  0.4943 -0.3701
12529TIP3    H159078   5.955   3.509  12.368 -0.6705 -0.8200 -1.9614
12529TIP3    H259079   5.903   3.491  12.509  1.2133  1.7209 -0.9012
12530TIP3   OH259080   3.476   4.785   1.913 -0.4012  0.0196  0.0760
12530TIP3    H159081   3.560   4.740   1.920  1.3444  3.0613 -0.5605
12530TIP3    H259082   3.438   4.752   1.831 -0.1996 -1.8782  0.7152
12531TIP3   OH259083   6.501   3.262   1.306  0.0217 -0.1985  0.4730
12531TIP3    H159084   6.449   3.252   1.226 -0.0449  1.4503  0.2962
12531TIP3    H259085   6.476   3.187   1.360 -0.4842 -0.9233 -0.7496
12532TIP3   OH259086   1.258   4.361  15.160  1.2276 -0.0461 -0.1508
12532TIP3    H159087   1.331   4.365  15.099  0.9366  0.4938 -0.4648
12532TIP3    H259088   1.209   4.284  15.133  0.6076  0.6846 -1.1673
12533TIP3   OH259089   6.471   6.053   1.167 -0.2126 -0.0090 -0.2526
12533TIP3    H159090   6.504   5.978   1.216 -1.0083  0.4376  0.9871
12533TIP3    H259091   6.376   6.040   1.165 -0.4760  1.5463  0.9737
12534TIP3   OH259092   2.647   5.953  15.133 -0.4762 -0.3801  0.6825
12534TIP3    H159093   2.567   5.971  15.084 -0.5310 -0.3903  0.7661
12534TIP3    H259094   2.620   5.893  15.203 -0.2033 -1.1661  0.1230
12535TIP3   OH259095   0.297   5.155  11.471 -0.0821  0.0681  0.3376
12535TIP3    H159096   0.344   5.099  11.532  1.0569  1.6990  1.0026
12535TIP3    H259097   0.205   5.132  11.483  0.2206 -0.4044  1.8858
12536TIP3   OH259098   4.220   0.523   4.440 -0.0196  0.2013 -0.2727
12536TIP3    H159099   4.293   0.529   4.502  0.8586 -1.5594 -1.0956
12536TIP3    H259100   4.143   0.508   4.495  0.4727  0.4326  0.4972
12537TIP3   OH259101   0.998   4.243  16.001  0.8636  0.6613 -0.2278
12537TIP3    H159102   1.008   4.156  16.040  2.6071  0.7520 -0.4376
12537TIP3    H259103   0.998   4.227  15.906  1.1983  0.8913 -0.2675
12538TIP3   OH259104   6.480   3.956   5.313 -0.0647 -0.1846  0.2488
12538TIP3    H159105   6.523   3.931   5.232  0.0849 -0.5117  0.4265
12538TIP3    H259106   6.399   3.999   5.285 -0.8822 -1.8817 -0.0713
12539TIP3   OH259107   4.971   5.269   5.141  0.1833 -0.1284 -0.2002
12539TIP3    H159108   5.036   5.340   5.136 -0.2397  0.1496 -2.0425
12539TIP3    H259109   4.897   5.308   5.188  0.9638 -0.1715  1.1150
12540TIP3   OH259110   4.981   1.957  15.084  0.2060  0.2670  0.4345
12540TIP3    H159111   4.897   1.911  15.082  0.1638  0.3635 -0.0519
12540TIP3    H259112   4.994   1.978  15.176 -0.9684  1.4667  0.3378
12541TIP3   OH259113   0.526   5.049  13.705 -0.4633 -0.2830 -0.0617
12541TIP3    H159114   0.542   5.071  13.797  0.9721 -0.4955 -0.2408
12541TIP3    H259115   0.531   4.954  13.701  1.9399 -0.1783 -0.7460
12542TIP3   OH259116   5.756   0.194  13.678  0.2802  0.2251  0.3660
12542TIP3    H159117   5.687   0.219  13.616 -0.2764  0.0173  0.8952
12542TIP3    H259118   5.756   0.265  13.744 -0.4002 -0.4883  1.1448
12543TIP3   OH259119   5.777   6.294  13.284 -0.5390 -0.2078  0.2754
12543TIP3    H159120   5.786   6.225  13.219 -0.9865  0.3437 -0.3803
12543TIP3    H259121   5.771   6.248  13.367 -0.7071 -0.9580 -0.1431
12544TIP3   OH259122   0.026   3.444   3.305 -0.4735 -0.0155  0.0806
12544TIP3    H159123   0.016   3.534   3.274  0.0251  0.4999  1.3815
12544TIP3    H259124  -0.031   3.439   3.382  1.9580  0.1853  1.9661
12545TIP3   OH259125   6.333   0.806  13.133  0.2002 -0.2681  0.3552
12545TIP3    H159126   6.313   0.899  13.138  0.0650 -0.3252  0.9293
12545TIP3    H259127   6.422   0.802  13.100 -0.4633  0.0116 -1.5215
12546TIP3   OH259128   3.233   0.076  14.922 -0.0537 -0.4953 -0.0649
12546TIP3    H159129   3.182   0.059  14.843 -0.4409  0.2424  0.0169
12546TIP3    H259130   3.308   0.017  14.917  1.5943  1.6989 -2.5356
12547TIP3   OH259131   3.513   3.048  11.566  0.5369  0.3210 -0.4505
12547TIP3    H159132   3.420   3.071  11.562  0.4598 -0.0404 -0.6649
12547TIP3    H259133   3.556   3.114  11.511  0.5973  1.4857  0.9402
12548TIP3   OH259134   2.855   4.616  10.471 -0.5275 -0.4813  0.4833
12548TIP3    H159135   2.890   4.695  10.431 -0.9796 -0.5671 -0.0966
12548TIP3    H259136   2.861   4.632  10.565 -0.1122  0.0164  0.3747
12549TIP3   OH259137   2.130   3.328  16.875 -0.5650 -0.6470  0.7431
12549TIP3    H159138   2.115   3.319  16.969  0.3817 -0.3321  0.9273
12549TIP3    H259139   2.098   3.416  16.853 -1.3115 -0.9368  0.6601
12550TIP3   OH259140   0.543   1.444   2.146 -0.4947  0.2762 -0.0105
12550TIP3    H159141   0.536   1.354   2.178  1.4982  0.4583  1.0090
12550TIP3    H259142   0.542   1.436   2.050  0.5275 -0.9195  0.0653
12551TIP3   OH259143   2.627   5.242  12.710  0.5942 -0.5720 -0.3318
12551TIP3    H159144   2.566   5.190  12.763 -0.3390 -0.2847 -1.1252
12551TIP3    H259145   2.713   5.209  12.735  0.1607 -0.5155  1.2972
12552TIP3   OH259146   0.597   3.388   1.717  0.1606  0.2101  0.0301
12552TIP3    H159147   0.544   3.444   1.661  1.1304 -0.1159 -1.2550
12552TIP3    H259148   0.677   3.373   1.666  0.6460 -0.9026  1.0949
12553TIP3   OH259149   1.761   4.727   2.552  0.1437  0.0874  0.0978
12553TIP3    H159150   1.739   4.812   2.514  0.0235  0.7420  1.6276
12553TIP3    H259151   1.855   4.730   2.566  0.0036  0.3051  0.9900
12554TIP3   OH259152   5.884   5.079  10.722 -0.2605  0.8100 -0.5350
12554TIP3    H159153   5.862   5.151  10.781  2.5327  1.4776 -0.2182
12554TIP3    H259154   5.907   5.122  10.639  0.1405  0.2017 -0.7443
12555TIP3   OH259155   3.846   5.105   2.547 -0.1130 -0.3237 -0.1077
12555TIP3    H159156   3.920   5.164   2.538 -0.9358  0.2145 -5.1634
12555TIP3    H259157   3.886   5.018   2.551  0.8746  0.1455  0.4805
12556TIP3   OH259158   0.052   5.833   0.680 -0.3781  0.5156 -0.1047
12556TIP3    H159159   0.050   5.802   0.770 -1.8740  0.0879 -0.2746
12556TIP3    H259160   0.144   5.822   0.653 -0.1895 -0.5373  0.9388
12557TIP3   OH259161   6.466   1.984   0.555 -0.0128  0.2129 -0.0223
12557TIP3    H159162   6.408   1.919   0.594 -1.3815  0.4941 -1.5568
12557TIP3    H259163   6.487   2.044   0.628  0.0237 -1.0509  1.0195
12558TIP3   OH259164   4.192   6.597  16.366 -0.0106 -0.1172  0.1884
12558TIP3    H159165   4.259   6.549  16.414  0.2803 -0.9570 -1.0562
12558TIP3    H259166   4.236   6.676  16.336  0.0309  0.0204  0.6141
12559TIP3   OH259167   2.927   4.570   5.020  0.1752 -0.3607  0.0839
12559TIP3    H159168   2.866   4.587   4.948 -0.2293  1.2431  0.7750
12559TIP3    H259169   2.995   4.515   4.981  0.0142  0.5583 -1.5584
12560TIP3   OH259170   3.246   3.332  10.353 -0.2724  0.0061 -0.4019
12560TIP3    H159171   3.161   3.368  10.379  0.2615 -0.5867  2.3356
12560TIP3    H259172   3.309   3.400  10.378  0.0684  0.5373 -2.6271
12561TIP3   OH259173   1.437   2.617   4.637 -0.3687  0.2053 -0.0978
12561TIP3    H159174   1.406   2.689   4.691 -1.3414  0.1258 -0.5477
12561TIP3    H259175   1.378   2.615   4.562  0.5462 -0.1208 -0.8330
12562TIP3   OH259176   1.060   2.060   5.437 -0.0449  0.1282 -0.2312
12562TIP3    H159177   1.036   1.976   5.476  0.2946  0.1805  0.0982
12562TIP3    H259178   1.021   2.058   5.350 -2.0070  0.5658  0.6000
12563TIP3   OH259179   0.317   6.675   4.035  0.0639  0.0228  0.1437
12563TIP3    H159180   0.352   6.750   3.987  0.0128  0.8883  1.4314
12563TIP3    H259181   0.311   6.606   3.970  0.2244  1.0992 -1.0407
12564TIP3   OH259182   5.052   1.302  10.475  0.2179 -0.2030  0.4005
12564TIP3    H159183   5.147   1.298  10.489  0.2967 -3.9917 -0.6700
12564TIP3    H259184   5.036   1.392  10.447  3.6234  0.2736 -0.2950
12565TIP3   OH259185   4.697   2.899   5.569 -0.2710  0.0264  0.3377
12565TIP3    H159186   4.625   2.956   5.544 -0.9744 -1.6240 -1.5475
12565TIP3    H259187   4.698   2.831   5.502  1.0860 -1.7032  2.0557
12566TIP3   OH259188   4.418   1.312   3.947 -0.5065  0.0959 -0.5053
12566TIP3    H159189   4.486   1.356   3.896 -1.6226  1.7239 -0.6498
12566TIP3    H259190   4.407   1.227   3.905  1.1035 -0.0038 -0.7544
12567TIP3   OH259191   3.939   3.853  12.548 -0.3396 -0.1886  0.3966
12567TIP3    H159192   3.862   3.911  12.548  0.1849  0.5185  0.2496
12567TIP3    H259193   4.002   3.898  12.604 -0.1365 -0.9061  0.7390
12568TIP3   OH259194   2.275   0.823  17.157 -0.1404 -0.0380 -0.2500
12568TIP3    H159195   2.346   0.860  17.105  0.4091  0.3528  0.7692
12568TIP3    H259196   2.218   0.780  17.093  2.0375 -2.0670 -0.8873
12569TIP3   OH259197   5.149   4.078  16.570  0.3515  0.3813  0.5800
12569TIP3    H159198   5.062   4.119  16.566  0.9030  1.6912  1.5238
12569TIP3    H259199   5.207   4.149  16.600  1.7083 -0.5308  0.1487
12570TIP3   OH259200   4.170   6.708  12.888  0.2478 -0.2843 -0.0292
12570TIP3    H159201   4.180   6.727  12.795  1.3042 -1.5442 -0.1818
12570TIP3    H259202   4.157   6.613  12.892 -1.2181 -0.0592  1.0013
12571TIP3   OH259203   2.845   3.909  16.270  0.5844 -0.3867  0.5514
12571TIP3    H159204   2.788   3.833  16.252  0.8240 -0.6274  0.8035
12571TIP3    H259205   2.799   3.957  16.338  0.6071 -0.4984  0.6476
12572TIP3   OH259206   3.490   1.179  16.248  0.1927  0.5005 -0.0787
12572TIP3    H159207   3.546   1.176  16.325  1.3043  2.2318 -0.7949
12572TIP3    H259208   3.504   1.094  16.205  1.4884  0.5143  0.3036
12573TIP3   OH259209   0.080   6.758   4.356 -0.3835 -0.1632  0.4267
12573TIP3    H159210   0.087   6.811   4.277 -0.2594  0.4301  0.8349
12573TIP3    H259211   0.028   6.682   4.329 -1.5085  0.7031  0.1219
12574TIP3   OH259212   0.762   6.502   5.791 -0.7163  0.1735  0.6460
12574TIP3    H159213   0.850   6.468   5.807 -1.0168 -0.3947  1.1034
12574TIP3    H259214   0.713   6.429   5.753 -0.3050  1.2068 -1.9990
12575TIP3   OH259215   5.323   5.004  11.692  0.0948  1.0824 -0.3957
12575TIP3    H159216   5.275   4.929  11.727 -0.2679  0.0835 -2.9449
12575TIP3    H259217   5.415   4.977  11.696 -0.1059  0.0754 -2.2442
12576TIP3   OH259218   2.170   5.128   2.462  0.0570  0.1212 -0.4487
12576TIP3    H159219   2.109   5.142   2.390  1.0624 -1.9479 -1.7541
12576TIP3    H259220   2.232   5.063   2.429  0.7174 -0.6532  2.1705
12577TIP3   OH259221   4.645   4.987  13.738 -0.9096  0.5479  0.1525
12577TIP3    H159222   4.651   4.936  13.819  0.8259  2.9311  1.5716
12577TIP3    H259223   4.725   4.966  13.690 -0.6281  1.2057  0.3239
12578TIP3   OH259224   5.350   0.275   0.611  0.0014 -0.0482  0.1179
12578TIP3    H159225   5.307   0.331   0.676 -0.0192 -1.0374  0.9840
12578TIP3    H259226   5.444   0.294   0.621 -0.0375  0.1634  0.0873
12579TIP3   OH259227   1.866   3.355  12.467  0.5798  0.3150 -0.2913
12579TIP3    H159228   1.885   3.267  12.498  2.8404  0.3994 -1.3279
12579TIP3    H259229   1.934   3.410  12.506 -0.2071  1.4479 -0.4661
12580TIP3   OH259230   3.675   1.832  15.979  0.1099 -0.6459 -0.1254
12580TIP3    H159231   3.610   1.854  16.046  1.1492 -0.0755  0.6933
12580TIP3    H259232   3.649   1.885  15.903  0.1217  0.2111  0.4711
12581TIP3   OH259233   1.511   2.050  14.021  0.0059  0.1570  0.3594
12581TIP3    H159234   1.549   1.968  13.989 -2.4259 -1.1198  0.6285
12581TIP3    H259235   1.506   2.106  13.944 -0.7867 -0.9289 -0.3942
12582TIP3   OH259236   1.487   4.818   6.576 -0.5668 -0.0838  0.8586
12582TIP3    H159237   1.544   4.751   6.613  1.0975  0.4800 -0.6436
12582TIP3    H259238   1.448   4.777   6.499  0.6310  0.6979 -0.1974
12583TIP3   OH259239   5.674   0.097  16.399  0.0578 -0.4484  0.2350
12583TIP3    H159240   5.745   0.076  16.339 -1.1148  0.8738 -1.6410
12583TIP3    H259241   5.717   0.145  16.471  0.9179  1.4507 -1.4891
12584TIP3   OH259242   2.239   0.478  14.043 -0.2405  0.0896 -0.1684
12584TIP3    H159243   2.145   0.466  14.048 -0.1650 -0.8286 -0.8895
12584TIP3    H259244   2.273   0.439  14.123 -0.1443 -3.0855 -1.6943
12585TIP3   OH259245   1.842   6.126  13.338 -0.0889  0.6801 -0.0144
12585TIP3    H159246   1.816   6.215  13.364  0.4823  0.7475  0.3372
12585TIP3    H259247   1.762   6.088  13.302 -0.4915  1.1353  0.3806
12586TIP3   OH259248   4.356   1.014   3.549 -0.1977  0.0820  0.1336
12586TIP3    H159249   4.330   1.042   3.637 -0.6347 -0.4581  0.1805
12586TIP3    H259250   4.447   0.985   3.559 -0.4288 -0.5096  0.5277
12587TIP3   OH259251   5.202   1.170   6.071  0.5256 -0.2872 -0.3066
12587TIP3    H159252   5.157   1.248   6.039 -0.8461 -1.2615 -0.8295
12587TIP3    H259253   5.255   1.201   6.144 -0.2576  1.0864 -0.3028
12588TIP3   OH259254   3.329   2.118   1.825 -0.0238  0.4378 -0.3821
12588TIP3    H159255   3.261   2.157   1.880 -1.4804  0.7778 -2.3239
12588TIP3    H259256   3.367   2.192   1.778  0.3849  0.0396 -0.6826
12589TIP3   OH259257   2.116   4.610  14.153  0.0890 -0.0817  0.8009
12589TIP3    H159258   2.109   4.640  14.063  0.0365  1.2246  1.2364
12589TIP3    H259259   2.173   4.533  14.148  2.5813  1.7416  0.0264
12590TIP3   OH259260   4.925   0.135  13.294 -0.3100 -0.0525 -0.3961
12590TIP3    H159261   4.979   0.166  13.221  0.9563 -0.3433  0.4056
12590TIP3    H259262   4.963   0.174  13.372 -0.3710 -1.4010  0.3387
12591TIP3   OH259263   2.466   2.802   1.350  0.2881  0.1512 -0.0949
12591TIP3    H159264   2.420   2.769   1.427  1.0432  0.6587  0.5786
12591TIP3    H259265   2.398   2.845   1.298  0.0906  1.2875  1.1122
12592TIP3   OH259266   1.453   0.200   6.456 -0.5377  0.1210 -0.4027
12592TIP3    H159267   1.518   0.209   6.526  0.5968 -1.1318 -1.2889
12592TIP3    H259268   1.480   0.264   6.390 -2.4401  2.3406  0.8974
12593TIP3   OH259269   3.905   0.618  14.040  0.3894  0.5636 -0.2637
12593TIP3    H159270   3.849   0.541  14.030 -0.7371  1.3459  0.0599
12593TIP3    H259271   3.973   0.589  14.102 -1.0162  0.3509  1.2331
12594TIP3   OH259272   6.411   3.379  17.227  0.6903  0.7388 -0.1627
12594TIP3    H159273   6.381   3.359  17.315  1.8410  1.8755  0.4904
12594TIP3    H259274   6.351   3.330  17.170  0.8575 -1.1763  1.2685
12595TIP3   OH259275   4.458   1.818  14.376  0.4902  0.1661  0.0271
12595TIP3    H159276   4.410   1.840  14.455  0.5439  1.0647 -0.1922
12595TIP3    H259277   4.501   1.734  14.396 -1.1798 -0.6656  0.2152
12596TIP3   OH259278   1.382   6.341  14.732 -0.6336  0.2480  0.3102
12596TIP3    H159279   1.350   6.414  14.786 -1.5350  1.0246 -1.2375
12596TIP3    H259280   1.306   6.283  14.722 -0.6041  0.3481 -0.5084
12597TIP3   OH259281   5.567   3.822   6.239 -0.3059  0.0837 -0.2680
12597TIP3    H159282   5.525   3.746   6.278 -0.6152 -0.5619 -1.8089
12597TIP3    H259283   5.517   3.897   6.273 -0.0901 -0.4006  1.1300
12598TIP3   OH259284   3.621   6.396   4.440 -0.3950 -0.5649  0.4923
12598TIP3    H159285   3.709   6.389   4.477  0.6031  2.0756 -1.1808
12598TIP3    H259286   3.614   6.322   4.380  1.0362 -0.3124  0.0018
12599TIP3   OH259287   4.207   1.353  11.113 -0.2716 -0.2322 -0.6245
12599TIP3    H159288   4.237   1.321  11.027 -2.6221 -2.0569 -0.8136
12599TIP3    H259289   4.219   1.278  11.171 -1.6645 -0.0132 -0.0530
12600TIP3   OH259290   2.198   5.659  14.302 -0.0921  0.5198 -0.0068
12600TIP3    H159291   2.202   5.589  14.367  2.6761  1.3595  0.8082
12600TIP3    H259292   2.207   5.614  14.218  1.5715 -0.1535  0.5064
12601TIP3   OH259293   5.840   6.471   4.775  0.1457 -0.4206 -0.5912
12601TIP3    H159294   5.814   6.446   4.686 -0.2915 -1.2470 -0.2420
12601TIP3    H259295   5.851   6.388   4.821 -0.7872  0.0163  0.4469
12602TIP3   OH259296   4.268   3.220   3.412  0.1228 -0.1376  0.3264
12602TIP3    H159297   4.244   3.171   3.334  0.2459  1.1435 -0.5258
12602TIP3    H259298   4.313   3.156   3.468 -0.6823 -1.2542 -0.2966
12603TIP3   OH259299   3.858   2.994   5.654 -0.5505 -0.2990  0.2497
12603TIP3    H159300   3.935   2.946   5.625 -1.2074 -1.0323 -0.3198
12603TIP3    H259301   3.813   2.935   5.714 -1.7804 -0.7234 -1.0628
12604TIP3   OH259302   6.537   3.512  11.845  0.3475 -0.4579 -0.1287
12604TIP3    H159303   6.526   3.418  11.860 -0.6843 -0.1999  0.7948
12604TIP3    H259304   6.559   3.548  11.931 -0.6770  0.3463 -0.1993
12605TIP3   OH259305   1.908   2.194   3.454  0.1889  0.1417  0.3460
12605TIP3    H159306   1.963   2.149   3.519 -1.4432 -0.3924  1.3803
12605TIP3    H259307   1.961   2.194   3.374  2.2703  0.8561  1.6514
12606TIP3   OH259308   3.543   3.014  12.760 -0.0387 -0.0112 -0.4877
12606TIP3    H159309   3.456   2.981  12.782 -0.6429  1.7211 -0.1743
12606TIP3    H259310   3.549   3.098  12.806  1.4792  0.2691 -1.1678
12607TIP3   OH259311   6.357   2.950   5.355  0.1879 -0.4588  0.5544
12607TIP3    H159312   6.414   2.939   5.279 -1.0847  1.4245 -0.7139
12607TIP3    H259313   6.300   2.874   5.354 -2.1018  1.1966 -2.4158
12608TIP3   OH259314   5.912   1.473  15.227 -0.6885  0.8539  0.5575
12608TIP3    H159315   5.827   1.491  15.267 -2.1009  0.8624 -2.2845
12608TIP3    H259316   5.919   1.377  15.226 -0.8090  0.8453  0.5622
12609TIP3   OH259317   2.447   4.667   3.973  0.2436  1.0666 -0.8140
12609TIP3    H159318   2.537   4.681   4.002  0.1464  0.2009 -0.0687
12609TIP3    H259319   2.393   4.702   4.043  0.0079 -0.7831 -0.0340
12610TIP3   OH259320   6.254   2.141  14.147  0.3606 -0.4700 -0.1124
12610TIP3    H159321   6.210   2.190  14.217 -0.5282  0.5488 -1.3649
12610TIP3    H259322   6.200   2.157  14.069  1.0150 -2.0652 -0.9074
12611TIP3   OH259323   3.905   3.658  14.724 -0.4069 -0.1506  0.2950
12611TIP3    H159324   3.840   3.701  14.780 -1.1352  0.2395 -0.8243
12611TIP3    H259325   3.987   3.665  14.773 -1.0188  0.2220  1.2877
12612TIP3   OH259326   4.679   0.835  13.001  0.1740 -0.0912  0.3908
12612TIP3    H159327   4.711   0.890  12.930  0.9619  0.6941  1.3396
12612TIP3    H259328   4.590   0.865  13.016  0.0689 -0.1295 -0.1326
12613TIP3   OH259329   0.550   6.594  16.238  0.7386  0.6544  0.7842
12613TIP3    H159330   0.591   6.518  16.279 -0.0497  0.3114  0.9483
12613TIP3    H259331   0.456   6.580  16.250  0.4775  0.5037 -1.1717
12614TIP3   OH259332   1.568   6.112   2.387 -0.5066 -0.6777 -0.0852
12614TIP3    H159333   1.649   6.103   2.437  0.1935  0.8564 -0.9146
12614TIP3    H259334   1.555   6.026   2.348  1.0366 -0.7760 -0.4133
12615TIP3   OH259335   3.374   6.153  14.763  0.2498  0.0177  0.1435
12615TIP3    H159336   3.464   6.174  14.741  0.1568  0.1198 -0.1411
12615TIP3    H259337   3.321   6.214  14.711  0.0264  0.1592  0.5378
12616TIP3   OH259338   1.349   6.537   2.573  0.1047  0.4284  0.4504
12616TIP3    H159339   1.442   6.525   2.558  0.0394  0.5383 -0.0410
12616TIP3    H259340   1.307   6.505   2.493 -0.2714  0.5098  0.6132
12617TIP3   OH259341   6.816   4.132  16.175 -0.2750 -0.8454  0.4358
12617TIP3    H159342   6.736   4.160  16.130 -0.1468 -2.0863 -0.6060
12617TIP3    H259343   6.816   4.181  16.257 -1.9282 -0.5644  0.2883
12618TIP3   OH259344   6.748   2.016   1.211  0.0686 -0.3349 -0.2673
12618TIP3    H159345   6.758   1.998   1.304 -0.1403 -0.6390 -0.3016
12618TIP3    H259346   6.654   2.032   1.199  0.3392  1.3358 -0.1477
12619TIP3   OH259347   6.045   0.413  14.687  0.0127 -0.7904 -0.6742
12619TIP3    H159348   5.971   0.370  14.645 -0.4003  0.4718 -1.2610
12619TIP3    H259349   6.068   0.356  14.760 -2.0197 -0.7930 -0.0095
12620TIP3   OH259350   3.255   4.650  11.355  0.7728 -0.4495 -0.1531
12620TIP3    H159351   3.262   4.556  11.370 -1.4082 -0.6669 -0.2970
12620TIP3    H259352   3.212   4.658  11.270 -1.2689  0.6426  0.9429
12621TIP3   OH259353   6.370   6.407  13.818 -0.0524  0.1994  0.4859
12621TIP3    H159354   6.341   6.491  13.853  0.5817  0.6705 -0.0929
12621TIP3    H259355   6.396   6.357  13.895 -0.0541  0.6812  0.8059
12622TIP3   OH259356   1.508   1.555  13.118 -0.6562  0.2496 -0.0857
12622TIP3    H159357   1.514   1.481  13.179 -1.8615  0.5957  0.4791
12622TIP3    H259358   1.465   1.519  13.041 -1.0199  0.2950  0.0928
12623TIP3   OH259359   1.381   1.505  12.859 -0.0428 -0.7984  0.0849
12623TIP3    H159360   1.295   1.537  12.887  0.3675 -1.4185  2.1050
12623TIP3    H259361   1.386   1.530  12.767 -2.2014 -0.3490  0.0517
12624TIP3   OH259362   0.288   2.050   1.350  0.1433  0.1360 -0.4577
12624TIP3    H159363   0.325   2.124   1.397 -0.1223  1.1726 -1.8264
12624TIP3    H259364   0.271   2.084   1.262  2.0910 -2.1677 -1.7874
12625TIP3   OH259365   5.700   0.137  15.206  0.2928  0.3232 -0.4694
12625TIP3    H159366   5.659   0.074  15.265  0.8792 -1.1753 -1.6473
12625TIP3    H259367   5.627   0.188  15.171 -0.2465 -0.1783 -0.0828
12626TIP3   OH259368   3.818   6.460  11.386  0.2481  0.0798 -0.1451
12626TIP3    H159369   3.837   6.401  11.313  2.2005  1.1932 -0.5580
12626TIP3    H259370   3.773   6.534  11.346  1.7052  0.8938 -0.3076
12627TIP3   OH259371   2.435   5.178  11.269  0.6717 -0.6657 -0.0566
12627TIP3    H159372   2.417   5.265  11.305  0.6755 -1.2514  1.3773
12627TIP3    H259373   2.443   5.192  11.174 -0.4805  0.7047  0.0423
12628TIP3   OH259374   3.242   5.158  15.400 -0.4249 -0.1668 -0.0997
12628TIP3    H159375   3.274   5.143  15.311 -2.3852 -1.2850 -0.6435
12628TIP3    H259376   3.306   5.218  15.438  0.9422 -0.3931 -1.9505
12629TIP3   OH259377   5.175   0.684   3.529 -0.0346 -0.0156 -0.2659
12629TIP3    H159378   5.259   0.688   3.483  0.1644 -0.1963  0.0815
12629TIP3    H259379   5.128   0.612   3.487  1.2176 -1.9687  1.5987
12630TIP3   OH259380   2.935   3.294  11.500  0.2335 -0.1151 -0.0372
12630TIP3    H159381   2.958   3.218  11.448  2.1223  1.5048 -1.6473
12630TIP3    H259382   3.015   3.348  11.501 -1.0504  1.8501  1.0441
12631TIP3   OH259383   3.692   4.878  15.799  0.1816  0.6755 -0.0028
12631TIP3    H159384   3.601   4.850  15.803  0.0423  1.2314  0.9920
12631TIP3    H259385   3.734   4.816  15.740 -0.4253 -0.7520  1.0372
12632TIP3   OH259386   5.891   6.319  16.402  0.4206  0.2106 -0.0936
12632TIP3    H159387   5.875   6.317  16.308 -0.7700  0.0566  0.1048
12632TIP3    H259388   5.871   6.409  16.428  1.5892  0.4841 -0.1254
12633TIP3   OH259389   4.855   4.812   4.411 -0.4397  0.7071 -0.2933
12633TIP3    H159390   4.841   4.731   4.461  0.1186  0.8959  0.1766
12633TIP3    H259391   4.917   4.787   4.343  1.1577  1.1584  0.9643
12634TIP3   OH259392   5.347   5.412  14.286  0.5278 -0.4288 -0.1816
12634TIP3    H159393   5.336   5.384  14.376 -0.3989 -2.2013 -0.8203
12634TIP3    H259394   5.438   5.392  14.266  0.4204 -1.1104  0.0038
12635TIP3   OH259395   4.175   1.264  16.006  0.0314  0.2332  0.1177
12635TIP3    H159396   4.263   1.293  16.030 -0.1139  0.0344  0.8986
12635TIP3    H259397   4.186   1.222  15.921  0.3590  1.9581 -0.6973
12636TIP3   OH259398   0.833   2.744  16.005 -0.0098 -0.1784 -0.5965
12636TIP3    H159399   0.828   2.839  15.992  0.1519 -0.0010  0.5895
12636TIP3    H259400   0.776   2.726  16.079  1.8233 -0.6670  0.7551
12637TIP3   OH259401   3.140   1.271  16.116  0.3604 -0.1502  0.5271
12637TIP3    H159402   3.067   1.311  16.070 -0.3117  0.1429  1.8479
12637TIP3    H259403   3.111   1.181  16.133  1.8648 -1.2685 -2.4406
12638TIP3   OH259404   5.599   6.027   1.365 -0.3729  0.2040 -0.6016
12638TIP3    H159405   5.639   6.008   1.280 -0.6390 -1.2121 -0.4178
12638TIP3    H259406   5.663   5.995   1.429 -0.2849  1.0364 -0.2649
12639TIP3   OH259407   4.248   4.638   0.968 -0.2614  0.2854 -0.2419
12639TIP3    H159408   4.199   4.626   0.888 -1.7123  0.4616  0.6056
12639TIP3    H259409   4.184   4.626   1.038  0.8231  0.8463  0.8754
12640TIP3   OH259410   2.408   5.620   0.565 -0.9745  0.4332 -0.0480
12640TIP3    H159411   2.344   5.556   0.534 -1.1074  0.8977 -0.7331
12640TIP3    H259412   2.391   5.699   0.514 -0.2882  0.7704  0.2315
12641TIP3   OH259413   0.974   1.056  15.957 -0.0321  0.0950  0.9555
12641TIP3    H159414   0.939   0.969  15.940 -1.4292  0.7232  0.5524
12641TIP3    H259415   1.061   1.055  15.917 -0.7412 -0.5489 -0.5870
12642TIP3   OH259416   5.064   4.916  13.128 -0.0111  0.0663 -0.5470
12642TIP3    H159417   5.132   4.942  13.066 -0.4527 -0.3072 -1.1995
12642TIP3    H259418   5.042   4.996  13.175  1.8661 -0.0973  0.6419
12643TIP3   OH259419   0.977   0.822   5.971 -0.5383  0.2083  0.1724
12643TIP3    H159420   0.903   0.761   5.963  1.3319 -2.4364  1.9009
12643TIP3    H259421   0.950   0.885   6.037 -1.4781 -0.4026  0.3771
12644TIP3   OH259422   1.919   6.634  11.428  0.2071 -0.0204  0.6282
12644TIP3    H159423   1.930   6.715  11.478  1.0934  0.2893 -0.0471
12644TIP3    H259424   1.840   6.594  11.464  1.1261 -0.0874  2.6230
12645TIP3   OH259425   2.660   5.784   2.510 -0.2652  0.5160 -0.2469
12645TIP3    H159426   2.652   5.689   2.510  1.8328  0.3293 -0.6786
12645TIP3    H259427   2.588   5.814   2.455 -0.9143 -0.8104 -0.1449
12646TIP3   OH259428   1.798   6.623   4.000  0.2115  0.0091 -0.0169
12646TIP3    H159429   1.715   6.652   4.037 -0.5254 -0.8594 -0.9938
12646TIP3    H259430   1.832   6.700   3.954  0.5702  0.7419  1.4378
12647TIP3   OH259431   1.329   3.170   4.541  0.2992  0.1356 -0.1151
12647TIP3    H159432   1.307   3.146   4.631  0.2593  1.7211  0.3206
12647TIP3    H259433   1.290   3.102   4.487 -1.2955  0.1859  0.9553
12648TIP3   OH259434   5.030   0.221  15.236 -0.0350 -0.7983  0.1522
12648TIP3    H159435   4.995   0.264  15.314  2.3898 -0.3225  1.0438
12648TIP3    H259436   4.970   0.245  15.166 -0.2872  1.7410  1.1857
12649TIP3   OH259437   2.701   2.481  12.404  0.3278  0.5078 -0.1013
12649TIP3    H159438   2.606   2.482  12.396  0.1005  0.6644  2.2913
12649TIP3    H259439   2.723   2.388  12.411  0.2587  0.5139  0.2188
12650TIP3   OH259440   5.868   3.905  11.300  0.3608 -0.2277  0.2889
12650TIP3    H159441   5.962   3.900  11.319 -0.0236 -0.7263  2.1758
12650TIP3    H259442   5.859   3.867  11.213  1.9865  0.3866 -0.1669
12651TIP3   OH259443   5.928   0.787  12.225  0.5155 -0.5291  0.4857
12651TIP3    H159444   5.882   0.871  12.221  2.1954  0.3594 -0.9241
12651TIP3    H259445   6.002   0.803  12.283  0.5223 -1.2179  0.6743
12652TIP3   OH259446   5.114   4.675  13.985  0.2846  0.1464 -0.1658
12652TIP3    H159447   5.181   4.648  14.047 -0.2610  0.4475  0.5687
12652TIP3    H259448   5.155   4.745  13.934  1.1444 -0.9334 -0.9724
12653TIP3   OH259449   4.298   3.336  11.403  0.4602  0.3710  0.3712
12653TIP3    H159450   4.221   3.323  11.348  1.8308  1.6547 -1.9421
12653TIP3    H259451   4.263   3.345  11.491 -2.1039  1.4893 -0.6988
12654TIP3   OH259452   4.378   3.803   0.972 -0.9069 -0.1180  0.1077
12654TIP3    H159453   4.450   3.864   0.956 -0.0302 -1.1716 -0.0219
12654TIP3    H259454   4.300   3.858   0.977  0.1288  1.2232  2.0268
12655TIP3   OH259455   6.713   6.524   6.273 -0.0474  0.2235  0.5035
12655TIP3    H159456   6.736   6.581   6.200 -0.8639 -1.6004 -1.2242
12655TIP3    H259457   6.697   6.584   6.346  0.7127  2.0833 -0.8219
12656TIP3   OH259458   1.919   1.264   1.831  0.6449  0.3992  0.4695
12656TIP3    H159459   1.986   1.310   1.881  1.1654 -1.4816  1.5477
12656TIP3    H259460   1.863   1.333   1.796 -0.0018  1.7486  4.0442
12657TIP3   OH259461   2.933   1.082  11.694  0.2188 -0.2115  0.1016
12657TIP3    H159462   2.991   1.158  11.687 -0.5235  0.3221 -0.2952
12657TIP3    H259463   2.857   1.105  11.642 -0.0169 -1.2309 -0.0123
12658TIP3   OH259464   3.865   4.917  13.698 -0.5535  0.6200 -0.2868
12658TIP3    H159465   3.900   4.924  13.609 -2.0672  0.6632 -0.8925
12658TIP3    H259466   3.941   4.927  13.755  0.2903  1.6393 -1.5659
12659TIP3   OH259467   6.387   5.578  14.754 -0.0145  0.4652  0.2592
12659TIP3    H159468   6.483   5.579  14.744 -0.1104 -1.2056 -0.9496
12659TIP3    H259469   6.365   5.669  14.775  1.7973  0.9471  0.2188
12660TIP3   OH259470   5.012   1.292  12.428 -0.8638  0.0821 -0.5480
12660TIP3    H159471   4.929   1.340  12.419 -0.6868  0.0323 -2.8741
12660TIP3    H259472   5.070   1.333  12.364  0.1270 -1.4962 -0.6765
12661TIP3   OH259473   4.513   1.110  12.484 -0.0641 -0.0588  0.5794
12661TIP3    H159474   4.575   1.071  12.422 -0.2408  0.8661 -0.1939
12661TIP3    H259475   4.428   1.076  12.457 -0.4284  2.1070 -1.1354
12662TIP3   OH259476   1.822   0.973   5.437  0.1298 -0.2373 -0.4323
12662TIP3    H159477   1.823   1.063   5.470 -0.1742 -0.8387  1.2148
12662TIP3    H259478   1.914   0.953   5.420  0.2421  0.2033 -0.3604
12663TIP3   OH259479   5.294   5.947   4.681  0.0124 -0.4115  0.4062
12663TIP3    H159480   5.203   5.942   4.654 -0.0444 -1.8230  0.7891
12663TIP3    H259481   5.332   5.863   4.654  1.0070 -0.1473  0.9309
12664TIP3   OH259482   5.370   0.143  16.437  0.0090 -0.2467 -0.4195
12664TIP3    H159483   5.460   0.129  16.409 -0.3024 -1.7629 -0.7427
12664TIP3    H259484   5.376   0.155  16.532  0.4253 -1.8690 -0.2202
12665TIP3   OH259485   2.308   3.640  15.299  0.7211 -0.5407 -0.1894
12665TIP3    H159486   2.345   3.727  15.314 -0.8844  0.1109  0.0648
12665TIP3    H259487   2.232   3.655  15.243 -0.0832 -1.6707  0.5735
12666TIP3   OH259488   3.498   2.785  14.079  0.2004  0.0703  0.2312
12666TIP3    H159489   3.530   2.771  14.168 -0.4338 -0.7571  0.3367
12666TIP3    H259490   3.508   2.879  14.064 -0.7272  0.3954  1.5773
12667TIP3   OH259491   6.090   0.568  12.437  0.3683  1.0102 -0.6932
12667TIP3    H159492   6.156   0.585  12.369  1.0765 -0.0316 -0.2747
12667TIP3    H259493   6.061   0.655  12.464  1.8116  1.5053 -0.6685
12668TIP3   OH259494   0.182   6.109  16.536  0.2646 -0.0790 -0.4209
12668TIP3    H159495   0.141   6.076  16.615  0.2555  0.7951 -0.0500
12668TIP3    H259496   0.230   6.187  16.564  2.0655 -1.0138 -0.8800
12669TIP3   OH259497   0.587   4.783  15.567 -0.3095  0.0244  0.2061
12669TIP3    H159498   0.618   4.848  15.505  1.9154 -0.3428  0.9002
12669TIP3    H259499   0.498   4.763  15.538 -0.8991  3.1061 -0.1938
12670TIP3   OH259500   6.256   5.319   3.032  0.1036  0.3530 -0.3084
12670TIP3    H159501   6.183   5.330   2.971  0.9758  4.2284 -0.7487
12670TIP3    H259502   6.329   5.292   2.977 -0.3509 -1.2501 -0.1768
12671TIP3   OH259503   3.727   6.185  13.138 -0.0229  0.1381 -0.0256
12671TIP3    H159504   3.822   6.171  13.143 -0.0662  0.4222  1.9300
12671TIP3    H259505   3.702   6.146  13.054  1.8953  0.5170 -0.8231
12672TIP3   OH259506   6.218   6.072   4.781  0.2307  0.3472 -0.3027
12672TIP3    H159507   6.149   6.102   4.721 -0.0071 -2.2995 -1.4517
12672TIP3    H259508   6.299   6.082   4.731  0.1609 -0.7262 -0.6565
12673TIP3   OH259509   1.214   6.436   6.856  0.1193 -0.4587  0.0122
12673TIP3    H159510   1.195   6.446   6.763  0.6023 -1.4515 -0.2002
12673TIP3    H259511   1.164   6.506   6.899 -0.4346 -0.2622 -0.9491
12674TIP3   OH259512   5.632   0.576   1.923  0.2542 -0.3443  0.5050
12674TIP3    H159513   5.703   0.540   1.976 -0.2877 -0.2819  1.2776
12674TIP3    H259514   5.552   0.536   1.959 -0.1873  0.2770  0.2280
12675TIP3   OH259515   1.865   4.008   1.100  0.3187 -0.0316 -0.0845
12675TIP3    H159516   1.927   4.060   1.150  2.1199 -0.6094 -1.6647
12675TIP3    H259517   1.791   3.995   1.160  1.3171  1.3926  1.5176
12676TIP3   OH259518   3.486   0.945  17.142  0.2155  0.5461  0.1993
12676TIP3    H159519   3.567   0.941  17.193 -0.2813 -0.6382  0.9305
12676TIP3    H259520   3.505   0.896  17.062  0.7054  1.6096 -0.3449
12677TIP3   OH259521   5.033   6.429  12.672 -0.8481 -0.0936  0.1805
12677TIP3    H159522   5.061   6.515  12.640  0.2288 -0.3242  0.4958
12677TIP3    H259523   5.010   6.381  12.592  0.6607 -0.2530 -0.1683
12678TIP3   OH259524   4.289   4.698  12.275 -0.1162 -0.0932 -0.2566
12678TIP3    H159525   4.195   4.695  12.256  0.2774 -0.2547 -2.2902
12678TIP3    H259526   4.297   4.655  12.360 -1.8517 -0.3062 -0.1739
12679TIP3   OH259527   2.095   3.439  11.148  0.6060 -0.3804 -0.5838
12679TIP3    H159528   2.129   3.523  11.178  1.6224 -1.0631  0.1723
12679TIP3    H259529   2.106   3.442  11.053  1.3221  0.0365 -0.4923
12680TIP3   OH259530   0.092   0.883  14.752  0.1899  0.2844 -0.1687
12680TIP3    H159531   0.000   0.856  14.754  0.8261 -1.9964  0.7754
12680TIP3    H259532   0.141   0.801  14.741  2.1446  1.3640  0.1468
12681TIP3   OH259533   5.518   0.763  12.984  0.1242  0.1674  0.0068
12681TIP3    H159534   5.502   0.781  12.891  0.5100 -0.2333 -0.1328
12681TIP3    H259535   5.568   0.839  13.014 -0.2449  0.4361 -0.0390
12682TIP3   OH259536   4.684   4.736   4.056 -0.6520  0.4587  0.5679
12682TIP3    H159537   4.735   4.804   4.100 -0.4819  0.2899  0.6338
12682TIP3    H259538   4.598   4.741   4.097 -0.3727  0.0293  1.2190
12683TIP3   OH259539   4.804   1.737  13.259  0.6859 -0.0660  0.2478
12683TIP3    H159540   4.896   1.736  13.285  0.5350  0.0528  0.8104
12683TIP3    H259541   4.786   1.828  13.238  0.2101  0.2635  1.9814
12684TIP3   OH259542   0.310   3.371   0.832 -0.3084 -0.3424  0.0200
12684TIP3    H159543   0.254   3.314   0.780  0.2572  0.7010 -1.7778
12684TIP3    H259544   0.346   3.313   0.899 -0.7283 -1.8325 -0.9903
12685TIP3   OH259545   2.874   1.594   6.384 -0.6185 -0.3573 -0.1794
12685TIP3    H159546   2.784   1.562   6.385 -0.5415 -0.6680  3.0056
12685TIP3    H259547   2.922   1.531   6.437  1.8097 -1.0242 -3.0881
12686TIP3   OH259548   6.084   0.527  13.241 -0.3633 -0.6835  0.2406
12686TIP3    H159549   6.032   0.575  13.177  0.6543  0.6213  0.3693
12686TIP3    H259550   6.045   0.440  13.243 -2.1229  0.0744 -0.1389
12687TIP3   OH259551   4.965   2.594  14.172 -0.0987  0.0819 -0.1820
12687TIP3    H159552   4.948   2.662  14.108 -1.0201  0.0159 -0.0062
12687TIP3    H259553   4.976   2.640  14.255 -5.3027 -0.2373  0.8550
12688TIP3   OH259554   4.325   4.593  12.529  0.3722  0.1717 -0.3695
12688TIP3    H159555   4.348   4.560  12.616 -0.0795  0.5087 -0.1159
12688TIP3    H259556   4.342   4.520  12.470  2.5232  0.5664 -0.2621
12689TIP3   OH259557   4.927   2.550   3.889 -0.1227  0.0343  0.5697
12689TIP3    H159558   4.896   2.554   3.799 -0.2937 -0.6621  0.5950
12689TIP3    H259559   5.004   2.607   3.891  0.0182 -0.1345 -0.0731
12690TIP3   OH259560   2.470   6.729  13.139  0.2290 -0.3595 -0.5185
12690TIP3    H159561   2.441   6.707  13.227  1.0473  1.3914  0.2064
12690TIP3    H259562   2.390   6.754  13.093 -0.1456 -0.9010 -0.1640
12691TIP3   OH259563   1.825   5.865   1.766 -0.2922 -0.0662 -0.4993
12691TIP3    H159564   1.837   5.872   1.861 -0.3377 -0.7231 -0.4412
12691TIP3    H259565   1.778   5.945   1.741  1.1064  0.8560 -0.2047
12692TIP3   OH259566   4.265   3.211   5.695  0.9942 -0.0411  0.2897
12692TIP3    H159567   4.215   3.263   5.632 -0.0094 -1.1591  0.1353
12692TIP3    H259568   4.300   3.274   5.757 -0.7928  0.7535  0.5117
12693TIP3   OH259569   5.418   2.309   2.883 -0.0015  0.2818  0.5366
12693TIP3    H159570   5.494   2.319   2.940 -0.6849 -0.5731  1.6294
12693TIP3    H259571   5.344   2.334   2.938 -0.5449  0.7981 -0.4147
12694TIP3   OH259572   0.173   2.982   4.183  0.1547  0.4105  0.3703
12694TIP3    H159573   0.151   2.948   4.270  0.2412 -1.6543 -0.3889
12694TIP3    H259574   0.204   3.071   4.200 -1.5966  0.7078  2.2460
12695TIP3   OH259575   6.493   3.232   2.494 -0.4941 -0.1873  0.1822
12695TIP3    H159576   6.438   3.160   2.462 -1.1441 -0.0550  0.9568
12695TIP3    H259577   6.578   3.218   2.453 -1.3643  0.1582 -1.8196
12696TIP3   OH259578   0.239   1.610  12.600  0.4668  0.5041 -0.2664
12696TIP3    H159579   0.291   1.617  12.680  0.9446 -0.1719 -0.5116
12696TIP3    H259580   0.281   1.668  12.538  1.2703 -0.4543 -0.6388
12697TIP3   OH259581   1.309   5.578  12.729 -1.0687  0.2663  0.1717
12697TIP3    H159582   1.290   5.666  12.762  1.7429  0.1285  2.3804
12697TIP3    H259583   1.393   5.586  12.684  0.4654 -1.6962  2.5363
12698TIP3   OH259584   6.301   3.022   2.436 -0.0688 -0.1247 -0.1021
12698TIP3    H159585   6.260   3.000   2.520  0.8346 -1.4788 -0.0030
12698TIP3    H259586   6.227   3.043   2.378 -0.6287  2.4342  1.4649
12699TIP3   OH259587   2.209   1.731   0.081  0.3615 -0.3911 -0.0607
12699TIP3    H159588   2.294   1.774   0.073 -0.6186  1.9336  1.3715
12699TIP3    H259589   2.207   1.698   0.171 -0.6740  0.5921  0.2940
12700TIP3   OH259590   1.617   2.297  17.219  0.3316  0.0110 -0.2410
12700TIP3    H159591   1.679   2.296  17.147  0.1268 -1.5197 -0.4084
12700TIP3    H259592   1.550   2.361  17.193  0.5479 -0.1292 -1.1534
12701TIP3   OH259593   1.680   3.960  16.783 -0.0452 -0.0233  0.1256
12701TIP3    H159594   1.616   3.923  16.844 -0.8907  0.7694 -0.2806
12701TIP3    H259595   1.739   3.887  16.764 -0.8876 -0.7913  0.4096
12702TIP3   OH259596   6.441   1.067  12.560 -0.1102  0.1907  0.2937
12702TIP3    H159597   6.473   0.985  12.521 -0.0524 -0.7992  2.3626
12702TIP3    H259598   6.520   1.121  12.569  0.4043 -0.7944  1.9070
12703TIP3   OH259599   3.208   1.117  16.507  0.9256  0.2197  0.0731
12703TIP3    H159600   3.231   1.192  16.453  2.0619  0.2405  0.5834
12703TIP3    H259601   3.227   1.145  16.597 -0.7118  0.1012  0.4759
12704TIP3   OH259602   4.250   3.722   3.085 -0.0764  0.2938  0.3159
12704TIP3    H159603   4.165   3.720   3.041 -0.0278  1.6312  0.1538
12704TIP3    H259604   4.248   3.803   3.137  1.3920  0.7285 -0.2815
12705TIP3   OH259605   1.422   3.115   0.362 -0.1174 -0.4747  0.1418
12705TIP3    H159606   1.362   3.063   0.415 -0.5408  0.3191  0.4523
12705TIP3    H259607   1.376   3.198   0.348 -0.0336 -0.6784 -1.5012
12706TIP3   OH259608   0.815   1.340  17.256 -0.0526  0.5058 -0.5912
12706TIP3    H159609   0.724   1.337  17.228 -0.0011 -0.5366 -0.6621
12706TIP3    H259610   0.865   1.318  17.177  0.2292  0.3516 -0.3704
12707TIP3   OH259611   4.995   0.313  16.960 -0.1941  0.5319 -0.2847
12707TIP3    H159612   4.988   0.223  16.992 -0.5795  0.8973  0.6866
12707TIP3    H259613   5.025   0.304  16.870 -2.2297 -0.6528 -0.8641
12708TIP3   OH259614   5.261   2.964   1.212  0.0281 -0.8470  0.2275
12708TIP3    H159615   5.342   2.982   1.261 -0.3705  0.8666  0.3026
12708TIP3    H259616   5.229   2.882   1.248  1.7118 -1.5210  0.2385
12709TIP3   OH259617   4.762   2.328  11.666 -0.7486 -0.1843  0.8880
12709TIP3    H159618   4.818   2.402  11.689 -2.0735  1.1838 -0.1926
12709TIP3    H259619   4.682   2.341  11.718 -0.4559 -1.6024  1.7184
12710TIP3   OH259620   0.294   2.407  12.466 -0.1760 -0.0318 -0.1760
12710TIP3    H159621   0.331   2.348  12.399 -1.8120 -0.2221 -0.9426
12710TIP3    H259622   0.338   2.490  12.451  0.2535 -0.3639 -0.8092
12711TIP3   OH259623   5.204   0.114  15.042  0.1475  0.5838 -0.1428
12711TIP3    H159624   5.160   0.109  14.957  0.2468  1.1359 -0.2292
12711TIP3    H259625   5.135   0.140  15.103  0.4024  1.7278 -0.3262
12712TIP3   OH259626   6.055   0.260  15.781  1.0640 -0.1497  0.1317
12712TIP3    H159627   6.068   0.166  15.784 -0.6562 -0.4685 -2.1767
12712TIP3    H259628   6.138   0.295  15.747  0.7507 -1.0632 -1.6047
12713TIP3   OH259629   5.648   6.234   2.364  0.0503 -0.0515 -0.1515
12713TIP3    H159630   5.700   6.314   2.358 -0.2952  0.2598  0.8764
12713TIP3    H259631   5.710   6.164   2.345  0.8406  0.3176  1.0544
12714TIP3   OH259632   2.619   1.688   3.472 -0.3332 -0.6043  0.0149
12714TIP3    H159633   2.637   1.664   3.563  0.9623 -0.0284 -0.0659
12714TIP3    H259634   2.553   1.757   3.478  0.7352  0.3824  0.6080
12715TIP3   OH259635   6.589   2.327   1.054 -0.2846 -0.3315 -0.6662
12715TIP3    H159636   6.633   2.263   1.110  1.5560  0.7425 -0.8663
12715TIP3    H259637   6.647   2.337   0.978 -0.6070  1.4887 -0.6973
12716TIP3   OH259638   1.078   0.177  11.625  0.0557 -0.2102 -0.0644
12716TIP3    H159639   1.004   0.233  11.603 -1.0374  0.2575  4.2765
12716TIP3    H259640   1.151   0.238  11.641  0.0646 -0.3408  0.3901
12717TIP3   OH259641   4.881   5.477  12.835 -0.1876 -0.2088  0.3295
12717TIP3    H159642   4.920   5.556  12.797 -0.5841 -0.0418  0.2684
12717TIP3    H259643   4.953   5.435  12.883  0.2894 -0.3721 -0.5320
12718TIP3   OH259644   6.392   1.268   4.765 -0.4273 -0.2431  1.1447
12718TIP3    H159645   6.312   1.304   4.728 -0.1110  0.6845  1.3474
12718TIP3    H259646   6.369   1.178   4.789 -0.6129 -0.8933 -1.3289
12719TIP3   OH259647   3.530   0.831  15.147  0.1533  0.0271  0.2795
12719TIP3    H159648   3.437   0.849  15.144  0.3357  0.9577 -0.0293
12719TIP3    H259649   3.540   0.744  15.107 -0.6060 -0.2249  0.6306
12720TIP3   OH259650   2.195   0.893   4.139 -0.2785  0.4326  0.0945
12720TIP3    H159651   2.141   0.962   4.100  1.2292  0.8962 -1.2163
12720TIP3    H259652   2.209   0.923   4.229  1.2577  2.4145 -0.7635
12721TIP3   OH259653   6.121   4.690   4.573  0.4979 -0.2735 -0.3618
12721TIP3    H159654   6.127   4.645   4.488  1.1416 -0.3266 -0.2942
12721TIP3    H259655   6.159   4.627   4.635 -0.0451 -0.2670 -0.0243
12722TIP3   OH259656   1.141   6.014   0.537  0.0324 -0.3684  0.2187
12722TIP3    H159657   1.180   5.968   0.463  0.5775  0.5996 -0.0929
12722TIP3    H259658   1.215   6.036   0.593 -0.0252  1.6589 -0.4739
12723TIP3   OH259659   3.038   3.549  11.272  0.3607  0.0771  0.6422
12723TIP3    H159660   3.057   3.604  11.348 -0.5217  0.1540  0.8144
12723TIP3    H259661   2.943   3.546  11.268  0.4038 -0.3730 -0.1444
12724TIP3   OH259662   1.808   6.015   1.348 -0.9883 -0.6495 -0.1730
12724TIP3    H159663   1.744   6.048   1.284  1.0666  2.0745 -0.9263
12724TIP3    H259664   1.760   6.011   1.430 -2.4409  0.2003 -0.9576
12725TIP3   OH259665   1.152   2.455  13.215  0.2677  0.1181  0.0021
12725TIP3    H159666   1.241   2.458  13.181  0.6910 -0.9226  1.0043
12725TIP3    H259667   1.142   2.537  13.264 -0.0690  1.2370 -1.9004
12726TIP3   OH259668   5.476   5.597   6.022  0.3857  0.6491 -0.1462
12726TIP3    H159669   5.470   5.503   6.005  2.6710  0.4716 -0.0666
12726TIP3    H259670   5.465   5.605   6.117  0.1528  0.4653 -0.1576
12727TIP3   OH259671   6.460   3.363   6.723 -1.0416 -0.0990 -0.5331
12727TIP3    H159672   6.399   3.326   6.659 -2.9666  1.4192  0.3769
12727TIP3    H259673   6.405   3.415   6.781  0.6672 -1.3326  2.3212
12728TIP3   OH259674   0.365   4.363  12.991  0.0158  0.1618  0.2590
12728TIP3    H159675   0.272   4.364  13.014  0.2143  0.5147  1.0838
12728TIP3    H259676   0.410   4.372  13.075  0.7857  0.8896 -0.2222
12729TIP3   OH259677   3.130   4.955  11.971  0.1805  0.2931 -0.6847
12729TIP3    H159678   3.144   4.923  12.061  1.5766  0.4612 -0.8208
12729TIP3    H259679   3.074   5.032  11.982 -1.0434 -0.6762 -0.1139
12730TIP3   OH259680   0.196   0.081  16.841 -0.2770 -0.2296  0.2777
12730TIP3    H159681   0.246   0.162  16.830 -0.6300 -0.1619 -0.8554
12730TIP3    H259682   0.107   0.110  16.860 -0.5670 -0.3432 -0.8760
12731TIP3   OH259683   3.337   1.719   2.801 -0.2958  0.4226  0.6875
12731TIP3    H159684   3.248   1.753   2.790  0.2433  2.2138  1.6172
12731TIP3    H259685   3.370   1.709   2.712 -1.1864  0.4528  0.3540
12732TIP3   OH259686   2.041   1.928  16.262 -0.5227  0.2418  0.0087
12732TIP3    H159687   2.136   1.927  16.274 -0.6098 -1.3027  0.7618
12732TIP3    H259688   2.028   1.891  16.175 -0.4726 -0.7626  0.4157
12733TIP3   OH259689   4.103   1.504  11.343  0.0928  0.1760 -0.3457
12733TIP3    H159690   4.132   1.442  11.275 -2.0830 -0.3892 -0.8055
12733TIP3    H259691   4.163   1.578  11.335 -0.2648  0.2370 -3.0825
12734TIP3   OH259692   4.209   3.347  14.248  0.4294  0.0987 -0.1728
12734TIP3    H159693   4.205   3.423  14.307  1.3411  0.5037 -0.6219
12734TIP3    H259694   4.186   3.382  14.162 -0.1820 -0.3492 -0.1940
12735TIP3   OH259695   1.788   2.228  16.735  0.0131  0.4451  0.4984
12735TIP3    H159696   1.750   2.182  16.660 -1.8298 -0.0249  1.6948
12735TIP3    H259697   1.752   2.183  16.812  2.2044  0.6408  1.6870
12736TIP3   OH259698   3.521   2.341  14.954 -0.0526  0.3086  0.5044
12736TIP3    H159699   3.501   2.403  14.883  2.0445  0.8067  0.3031
12736TIP3    H259700   3.582   2.278  14.914 -0.5167 -0.6446  1.2910
12737TIP3   OH259701   5.414   4.807   0.766  0.0339  0.2003 -0.2933
12737TIP3    H159702   5.436   4.721   0.802 -0.3335  1.1308  2.3115
12737TIP3    H259703   5.499   4.850   0.755  0.0811  0.5824  1.3427
12738TIP3   OH259704   6.120   6.050  15.211  0.4013 -0.3239 -0.5322
12738TIP3    H159705   6.144   6.135  15.246  3.2503 -0.2485 -2.4266
12738TIP3    H259706   6.188   5.991  15.243  0.7142 -1.0577 -2.4849
12739TIP3   OH259707   5.857   1.142   4.351  0.5931  0.5701  0.7651
12739TIP3    H159708   5.857   1.123   4.445 -0.9120  0.2851  0.7114
12739TIP3    H259709   5.879   1.235   4.346 -1.5453  1.1376  1.5258
12740TIP3   OH259710   6.594   4.788   4.018 -0.0542  0.0372  0.2909
12740TIP3    H159711   6.682   4.823   4.034  0.1833  0.2224 -1.2860
12740TIP3    H259712   6.560   4.840   3.945 -1.6324  0.2145  1.1442
12741TIP3   OH259713   4.134   1.886   4.039 -0.4392  0.0719 -0.0804
12741TIP3    H159714   4.148   1.858   3.949 -2.2894 -1.7575  0.1660
12741TIP3    H259715   4.163   1.811   4.092  0.1268  0.9257  0.8331
12742TIP3   OH259716   1.211   1.008  14.301 -0.7977  0.3037 -0.4127
12742TIP3    H159717   1.144   1.063  14.342 -0.1124 -0.4155  1.7200
12742TIP3    H259718   1.281   1.069  14.278 -0.8783  0.6066  0.1344
12743TIP3   OH259719   3.787   5.538  12.729 -0.5810  0.2043  0.1019
12743TIP3    H159720   3.693   5.542  12.707 -0.2629 -0.8580 -1.5955
12743TIP3    H259721   3.828   5.600  12.668  0.0188 -0.7050 -0.4266
12744TIP3   OH259722   2.990   1.898  15.489 -0.2202  0.6654 -0.6930
12744TIP3    H159723   3.082   1.894  15.513 -0.3653 -0.7365 -0.3145
12744TIP3    H259724   2.989   1.917  15.395  0.4468  0.9827 -0.6315
12745TIP3   OH259725   0.016   2.236   0.595  0.1837 -0.3465  0.3239
12745TIP3    H159726  -0.060   2.280   0.557 -0.5364 -0.3092  1.7949
12745TIP3    H259727   0.034   2.164   0.534  0.5874  1.1889 -1.4091
12746TIP3   OH259728   1.359   1.806   4.338 -0.1330  0.5123  0.1240
12746TIP3    H159729   1.290   1.846   4.285  0.4170  1.8245  0.3709
12746TIP3    H259730   1.434   1.800   4.279  0.4296  1.8213  0.6866
12747TIP3   OH259731   5.107   3.815  17.240  0.4611 -0.2358  0.1050
12747TIP3    H159732   5.040   3.866  17.285  0.5623  0.4867 -0.5500
12747TIP3    H259733   5.058   3.759  17.180  0.3166 -1.3054  1.1899
12748TIP3   OH259734   4.728   5.847  16.975  0.4290  0.9136 -0.6090
12748TIP3    H159735   4.730   5.937  16.943  0.3548  1.6515  1.3941
12748TIP3    H259736   4.661   5.803  16.922  0.4340  2.0377 -1.5572
12749TIP3   OH259737   3.482   1.538   3.590 -0.3108 -0.2313 -0.1962
12749TIP3    H159738   3.474   1.624   3.630  1.8929  0.9838 -2.2145
12749TIP3    H259739   3.397   1.497   3.602 -1.2831  2.1149  1.0743
12750TIP3   OH259740   1.467   4.484  14.261 -0.4690 -0.0062 -0.3420
12750TIP3    H159741   1.443   4.395  14.237  0.3425 -0.4598  0.4843
12750TIP3    H259742   1.527   4.513  14.192 -1.3516  0.1974 -1.0322
12751TIP3   OH259743   1.577   5.901   1.082  0.4842  0.1187 -0.1636
12751TIP3    H159744   1.570   5.845   1.004 -0.6166  0.2760 -0.1754
12751TIP3    H259745   1.507   5.870   1.140  1.1211  0.1938  0.6530
12752TIP3   OH259746   1.042   2.614  14.996  0.6108  0.2089 -0.0908
12752TIP3    H159747   1.054   2.695  14.948  0.1577 -0.9780 -2.2855
12752TIP3    H259748   1.038   2.641  15.088  0.3731  2.6527 -0.7794
12753TIP3   OH259749   3.516   6.074   3.624  0.1008 -0.2010  0.0765
12753TIP3    H159750   3.596   6.021   3.619  0.5050  0.3238  0.9235
12753TIP3    H259751   3.451   6.016   3.663  0.6914  0.0835  1.5130
12754TIP3   OH259752   4.227   4.358  11.724  0.4575  0.4173  0.5404
12754TIP3    H159753   4.163   4.325  11.662  1.6675  0.4213 -0.7405
12754TIP3    H259754   4.189   4.439  11.757 -0.4348  0.1376  0.2070
12755TIP3   OH259755   0.690   3.796   1.710 -0.2532  0.5469  0.2565
12755TIP3    H159756   0.622   3.768   1.650  0.3518  0.8188 -0.5714
12755TIP3    H259757   0.646   3.807   1.794 -0.4167 -3.4809  0.7925
12756TIP3   OH259758   1.968   1.067   1.455  0.8384  0.5393  0.4836
12756TIP3    H159759   2.048   1.047   1.406  0.1699 -0.8681 -0.0637
12756TIP3    H259760   1.897   1.044   1.395  0.0220  0.8911  1.3042
12757TIP3   OH259761   1.454   3.114  11.807  0.2648  0.1157  0.0293
12757TIP3    H159762   1.462   3.128  11.713  0.8531  0.2372  0.0947
12757TIP3    H259763   1.544   3.112  11.839  0.0480  1.6334  0.8224
12758TIP3   OH259764   2.915   2.413  13.982 -0.2133  0.1998  0.9590
12758TIP3    H159765   2.993   2.358  13.986  0.4315  1.0795  0.6583
12758TIP3    H259766   2.893   2.430  14.074  0.1396  0.2160  1.0421
12759TIP3   OH259767   6.143   1.297  13.084  0.0813  0.2270 -0.0193
12759TIP3    H159768   6.102   1.216  13.054 -0.4082  0.0695  1.0590
12759TIP3    H259769   6.071   1.360  13.090  0.7095  1.2365 -2.4689
12760TIP3   OH259770   5.953   1.597   1.855 -0.2207  0.3595  0.2996
12760TIP3    H159771   5.880   1.538   1.876  0.1889 -0.1490  0.2897
12760TIP3    H259772   6.031   1.550   1.882  0.3572 -0.4423 -2.5930
12761TIP3   OH259773   4.600   5.026  16.983 -0.5806 -0.2733  0.4816
12761TIP3    H159774   4.687   5.007  17.019 -1.6613 -0.4579  3.1296
12761TIP3    H259775   4.553   4.942  16.989 -1.0301 -0.1113 -0.6929
12762TIP3   OH259776   3.718   0.185   3.898  0.5737  0.1995 -0.6385
12762TIP3    H159777   3.750   0.236   3.972  2.6462 -0.4281 -1.0703
12762TIP3    H259778   3.784   0.198   3.830  0.8170 -2.4878 -0.9664
12763TIP3   OH259779   0.105   1.839  10.900 -0.3146 -0.3639 -0.5551
12763TIP3    H159780   0.139   1.752  10.921 -0.9189 -0.6956 -0.9443
12763TIP3    H259781   0.094   1.882  10.985  0.1298 -0.6092 -0.3729
12764TIP3   OH259782   5.183   1.744   5.591  0.4590 -0.2253 -0.0214
12764TIP3    H159783   5.191   1.776   5.501 -2.4111  0.6611 -0.0181
12764TIP3    H259784   5.270   1.760   5.629  1.5533 -0.0845 -2.4412
12765TIP3   OH259785   2.423   1.901  17.270 -0.9058 -0.4357 -0.5741
12765TIP3    H159786   2.400   1.922  17.179 -0.6438  1.3621 -0.2479
12765TIP3    H259787   2.519   1.909  17.272 -1.0618  1.6119  0.3244
12766TIP3   OH259788   4.790   5.356   5.357 -0.2408 -0.2200  0.1088
12766TIP3    H159789   4.695   5.368   5.352 -0.2437 -0.5961 -0.8479
12766TIP3    H259790   4.807   5.344   5.451 -1.0593  0.4284  0.3528
12767TIP3   OH259791   5.130   2.274   1.449  0.3347  0.0490  0.3360
12767TIP3    H159792   5.109   2.309   1.536 -1.2754 -1.6075  0.6441
12767TIP3    H259793   5.097   2.184   1.451  0.1849  0.0206 -2.0247
12768TIP3   OH259794   5.589   4.906  16.941  0.1436 -0.3960 -0.3435
12768TIP3    H159795   5.504   4.949  16.943 -0.3779 -1.3980 -0.3110
12768TIP3    H259796   5.651   4.971  16.974 -0.4500  0.6875 -1.3591
12769TIP3   OH259797   4.001   6.547  15.432 -0.3353  0.4945  0.2812
12769TIP3    H159798   3.946   6.618  15.465 -0.6032  0.4042  0.0386
12769TIP3    H259799   4.089   6.569  15.461 -0.3571  1.1191 -0.1113
12770TIP3   OH259800   4.273   1.064   1.378 -0.1220  0.8079  0.7228
12770TIP3    H159801   4.304   1.131   1.438  1.3845  1.2297 -0.4817
12770TIP3    H259802   4.243   1.113   1.301  0.9751  0.1311 -0.1576
12771TIP3   OH259803   1.370   4.946   4.067 -0.1246 -0.6676  0.1240
12771TIP3    H159804   1.395   4.861   4.103  2.8412  0.2364  0.3511
12771TIP3    H259805   1.402   4.944   3.977 -1.0775 -0.2159 -0.2309
12772TIP3   OH259806   6.571   0.818   0.675 -0.5151  0.7969 -0.0310
12772TIP3    H159807   6.475   0.809   0.679 -0.4555  0.0160 -0.2704
12772TIP3    H259808   6.585   0.908   0.645 -1.1930  0.7307 -0.5756
12773TIP3   OH259809   6.412   4.688  12.426 -0.0490 -0.3856 -0.0417
12773TIP3    H159810   6.410   4.685  12.331 -0.2845 -0.2218 -0.0422
12773TIP3    H259811   6.320   4.693  12.452 -0.0360 -1.4966  0.2320
12774TIP3   OH259812   3.621   4.312   0.137  0.2730  0.1653  0.2076
12774TIP3    H159813   3.570   4.241   0.176 -1.6299  1.6972  0.5920
12774TIP3    H259814   3.641   4.281   0.048  1.0703 -1.5923  0.9634
12775TIP3   OH259815   0.328   6.817  11.524  0.0272 -0.2705 -0.4543
12775TIP3    H159816   0.407   6.803  11.471  0.4149  1.9519 -0.5139
12775TIP3    H259817   0.334   6.752  11.593  2.5786  0.6646  0.2799
12776TIP3   OH259818   0.082   5.076  15.500 -0.2852 -0.0237 -0.1139
12776TIP3    H159819   0.165   5.102  15.460 -1.1196  0.0700 -1.8082
12776TIP3    H259820   0.096   5.090  15.594  1.9616 -1.0173 -0.2729
12777TIP3   OH259821   4.707   1.781  12.982  0.2700  0.1976  0.3091
12777TIP3    H159822   4.701   1.732  13.064  0.1803 -2.2966 -1.1684
12777TIP3    H259823   4.616   1.788  12.952  0.3700  0.5128  0.0765
12778TIP3   OH259824   3.931   0.274   5.239  0.1514  0.5544  0.4375
12778TIP3    H159825   3.846   0.238   5.265  0.4693 -0.4022  0.1701
12778TIP3    H259826   3.914   0.367   5.225 -0.6380  0.5564  1.3421
12779TIP3   OH259827   2.702   3.046  12.582  0.4376  0.5164 -0.2516
12779TIP3    H159828   2.656   3.130  12.583 -0.4455  0.1770 -3.8593
12779TIP3    H259829   2.639   2.985  12.545  1.7544 -1.2942  0.4521
12780TIP3   OH259830   6.480   3.143   3.629  0.2140  0.3013 -0.2687
12780TIP3    H159831   6.454   3.053   3.610 -0.5523  0.2749  0.8503
12780TIP3    H259832   6.431   3.166   3.708  2.5705  0.7092  1.1280
12781TIP3   OH259833   6.131   2.523  11.124  0.2408 -0.0008  0.4904
12781TIP3    H159834   6.129   2.447  11.067  0.2279 -0.0617  0.5709
12781TIP3    H259835   6.093   2.593  11.072  1.3141  0.2369 -0.0034
12782TIP3   OH259836   0.519   0.234  15.781 -0.0259 -0.2097  0.5086
12782TIP3    H159837   0.481   0.287  15.851 -0.9176 -0.6491  0.3639
12782TIP3    H259838   0.474   0.150  15.788  0.2898 -0.4408 -0.2276
12783TIP3   OH259839   4.464   2.354   4.765 -0.0317 -0.0546 -0.4979
12783TIP3    H159840   4.394   2.316   4.818  0.9786  0.8030  1.4789
12783TIP3    H259841   4.531   2.286   4.763 -0.5257 -0.5267 -1.6509
12784TIP3   OH259842   5.545   1.269  11.364 -0.0036  0.0672 -0.3775
12784TIP3    H159843   5.541   1.181  11.329  2.1216  0.2962 -1.2966
12784TIP3    H259844   5.504   1.263  11.450  0.5425 -1.9151 -0.2415
12785TIP3   OH259845   4.967   6.110  10.669 -0.2806 -0.2560 -0.2903
12785TIP3    H159846   5.048   6.060  10.677 -0.0501 -0.1243 -1.6004
12785TIP3    H259847   4.911   6.057  10.613 -0.6335  0.2277 -0.3983
12786TIP3   OH259848   5.115   1.489   3.621  0.3953 -0.2268 -0.2183
12786TIP3    H159849   5.195   1.541   3.624 -0.1316  0.6124 -0.3288
12786TIP3    H259850   5.136   1.415   3.565  0.8814  0.3708 -0.8405
12787TIP3   OH259851   2.677   1.213   4.149  0.0392  0.2684 -1.1243
12787TIP3    H159852   2.595   1.166   4.164 -0.2019  1.9898  3.8137
12787TIP3    H259853   2.744   1.145   4.145 -0.9418 -0.8582  0.7948
12788TIP3   OH259854   0.144   0.881  13.685 -0.4380 -0.3531  0.2732
12788TIP3    H159855   0.174   0.972  13.685 -0.2380 -0.4175  0.6980
12788TIP3    H259856   0.207   0.835  13.742 -0.8788 -0.6424  0.5278
12789TIP3   OH259857   4.862   1.963   1.528 -0.2346  0.1068 -0.2455
12789TIP3    H159858   4.956   1.973   1.544 -0.3885 -1.6337  1.8463
12789TIP3    H259859   4.831   2.052   1.514  1.6159  0.7590 -0.3490
12790TIP3   OH259860   2.806   3.455  16.241 -0.1635 -0.0432 -0.2103
12790TIP3    H159861   2.747   3.399  16.290 -0.8035 -0.2269 -1.1760
12790TIP3    H259862   2.894   3.423  16.262 -0.3638  0.6674  1.7636
12791TIP3   OH259863   4.339   6.684   5.013  0.2578  0.0461 -0.2708
12791TIP3    H159864   4.367   6.593   5.008 -0.8091 -0.3920  1.1585
12791TIP3    H259865   4.244   6.680   5.000 -0.0344  0.7469  1.5344
12792TIP3   OH259866   0.812   5.412  14.674 -0.6696  0.0437  0.0566
12792TIP3    H159867   0.836   5.332  14.627  0.5101  0.0491  0.6315
12792TIP3    H259868   0.887   5.430  14.730 -2.6558 -0.8416  3.1445
12793TIP3   OH259869   3.135   1.104  12.301  0.3947  0.2651  0.2337
12793TIP3    H159870   3.103   1.194  12.311 -0.3986  0.0374 -0.2380
12793TIP3    H259871   3.191   1.090  12.377 -0.6474  0.6648  1.0848
12794TIP3   OH259872   2.148   2.212  16.479  0.7285  0.2449  0.3564
12794TIP3    H159873   2.142   2.116  16.474  1.2198  0.1341  1.7292
12794TIP3    H259874   2.232   2.233  16.439  0.1788  0.1967 -0.8523
12795TIP3   OH259875   4.453   2.814  12.109  0.2097 -0.1287  0.1791
12795TIP3    H159876   4.449   2.821  12.204  1.0206  0.6623  0.1593
12795TIP3    H259877   4.397   2.886  12.078 -0.2512 -0.5358  0.0496
12796TIP3   OH259878   6.047   6.477  14.981  1.1482 -0.3812  0.2917
12796TIP3    H159879   6.014   6.390  15.003 -0.3917 -0.1691 -1.1031
12796TIP3    H259880   6.014   6.493  14.893 -0.7523  2.6724  1.4953
12797TIP3   OH259881   0.077   1.336  16.270 -0.0159 -0.3978 -0.2933
12797TIP3    H159882   0.042   1.248  16.258  0.5258 -0.2738 -3.3846
12797TIP3    H259883   0.172   1.325  16.263 -0.0245  0.6061 -2.3019
12798TIP3   OH259884   4.395   6.708  15.031 -0.2450  0.1066 -0.2815
12798TIP3    H159885   4.415   6.625  14.987  2.2142  0.8138 -0.5783
12798TIP3    H259886   4.404   6.687  15.124  2.2804  0.4664 -0.4151
12799TIP3   OH259887   0.347   3.124  16.114 -0.0756  0.2319 -0.2894
12799TIP3    H159888   0.388   3.202  16.077  0.9047 -0.3977 -0.5418
12799TIP3    H259889   0.253   3.141  16.108  0.1337  2.1939  1.3549
12800TIP3   OH259890   0.667   0.674  16.605 -0.0281  0.1003  0.0606
12800TIP3    H159891   0.661   0.602  16.542  0.9376  0.3238 -0.2941
12800TIP3    H259892   0.694   0.632  16.687 -1.3506 -0.2007  0.3521
12801TIP3   OH259893   4.599   0.481  15.602  0.4141 -0.3252  0.2801
12801TIP3    H159894   4.654   0.405  15.622 -0.2472 -1.0314 -0.5360
12801TIP3    H259895   4.621   0.545  15.669  0.6477 -1.4108  1.2572
12802TIP3   OH259896   6.768   1.543  17.144 -0.1601 -0.2501 -0.6411
12802TIP3    H159897   6.777   1.638  17.150 -0.6239 -0.2757  0.5036
12802TIP3    H259898   6.712   1.529  17.067 -3.5368  0.6176  1.5434
12803TIP3   OH259899   4.813   5.672  10.886 -0.3769 -0.0872 -0.6591
12803TIP3    H159900   4.779   5.690  10.799 -0.2438 -1.7122 -1.0506
12803TIP3    H259901   4.864   5.750  10.908 -3.4179  1.9804 -0.4843
12804TIP3   OH259902   1.051   3.448  15.330  0.4918  0.2109 -0.7309
12804TIP3    H159903   1.123   3.443  15.393 -1.1693 -0.2075  1.2040
12804TIP3    H259904   1.007   3.530  15.351 -1.2540 -0.8828 -0.0161
12805TIP3   OH259905   0.807   1.993  16.670  0.3639 -0.1490  0.2320
12805TIP3    H159906   0.787   1.922  16.609 -3.2975  2.8785 -2.2393
12805TIP3    H259907   0.736   1.990  16.734  1.0476  0.3200  1.0189
12806TIP3   OH259908   3.862   3.566  15.111  0.5098  0.2437 -0.2595
12806TIP3    H159909   3.869   3.651  15.154 -1.7772  1.8253 -2.8477
12806TIP3    H259910   3.934   3.564  15.049  0.8031  0.0872  0.0791
12807TIP3   OH259911   4.254   2.282   4.301 -0.0559 -0.0986  0.5186
12807TIP3    H159912   4.266   2.299   4.394 -0.0533  0.7030  0.3746
12807TIP3    H259913   4.339   2.248   4.272 -0.0711 -0.3904  0.8200
12808TIP3   OH259914   4.979   3.000  12.335  0.0470 -0.0122  0.0143
12808TIP3    H159915   5.027   3.039  12.262 -1.2516 -0.2236 -0.9723
12808TIP3    H259916   5.012   2.910  12.340  2.7856  1.0137  2.0648
12809TIP3   OH259917   3.088   0.354   6.012 -0.0422  0.4962 -0.1953
12809TIP3    H159918   3.163   0.335   6.067 -0.0141  0.2124 -0.3276
12809TIP3    H259919   3.097   0.446   5.988  0.8255  0.1899 -1.0688
12810TIP3   OH259920   0.602   5.273  14.836 -0.1290  0.0715  0.2102
12810TIP3    H159921   0.635   5.349  14.789 -1.4998 -0.6203 -1.9214
12810TIP3    H259922   0.518   5.302  14.872 -0.8574 -0.5325 -0.9653
12811TIP3   OH259923   6.352   5.928   5.681  0.1326  0.1550 -0.1508
12811TIP3    H159924   6.378   5.983   5.755 -1.0162 -0.2038  0.5233
12811TIP3    H259925   6.283   5.872   5.715 -1.0548  0.6163 -1.7460
12812TIP3   OH259926   0.386   1.408  11.107 -0.1501  0.4095  0.0288
12812TIP3    H159927   0.300   1.367  11.114 -0.2174  0.5678  0.1317
12812TIP3    H259928   0.407   1.434  11.197 -0.4307  1.2706 -0.1519
12813TIP3   OH259929   1.203   0.974   3.351  0.8166 -0.3515  0.3137
12813TIP3    H159930   1.229   0.882   3.344  1.2501 -0.0677 -1.9801
12813TIP3    H259931   1.246   1.017   3.277  0.9780  1.7916  1.6218
12814TIP3   OH259932   5.095   0.761   4.585 -0.0715 -0.2932 -0.4451
12814TIP3    H159933   5.103   0.844   4.633 -3.0327  0.6532 -1.4254
12814TIP3    H259934   5.113   0.785   4.494 -0.2074 -0.8721 -0.6240
12815TIP3   OH259935   5.882   0.487   5.239 -0.1759  0.2184 -0.1100
12815TIP3    H159936   5.911   0.521   5.324 -1.5796 -0.5290  0.6996
12815TIP3    H259937   5.867   0.394   5.254 -1.7181  0.3299 -0.8023
12816TIP3   OH259938   5.040   5.670  14.947 -0.2983  0.1229  0.3883
12816TIP3    H159939   5.134   5.662  14.965  0.1136  2.2546 -0.7032
12816TIP3    H259940   5.005   5.717  15.023 -0.4187 -0.1888  0.5309
12817TIP3   OH259941   6.667   0.925   1.990 -0.5226  0.1769 -0.2846
12817TIP3    H159942   6.751   0.927   2.035 -0.7530  0.4643  0.1440
12817TIP3    H259943   6.613   0.988   2.038 -0.7276  0.6117 -1.0570
12818TIP3   OH259944   5.329   3.712  15.229 -0.1159  0.0313  0.6363
12818TIP3    H159945   5.276   3.635  15.209 -0.8645  0.4798  0.8673
12818TIP3    H259946   5.265   3.783  15.239  0.3730  0.2365  2.5537
12819TIP3   OH259947   1.875   2.400  10.967  0.3726 -0.1003  0.7093
12819TIP3    H159948   1.851   2.446  11.048  3.0910 -0.6369  1.8546
12819TIP3    H259949   1.893   2.471  10.904  0.0909  0.3377  1.1170
12820TIP3   OH259950   4.527   4.062  14.905  0.5114 -0.0410 -0.4390
12820TIP3    H159951   4.455   4.099  14.855  0.1841  0.3796  0.3349
12820TIP3    H259952   4.598   4.125  14.896  0.6403 -0.2386 -0.8287
12821TIP3   OH259953   0.165   3.319   0.021 -0.0997 -0.1873  0.1735
12821TIP3    H159954   0.208   3.248   0.070  0.2326 -1.3617 -1.7418
12821TIP3    H259955   0.077   3.323   0.057 -0.3137 -2.0114 -0.1026
12822TIP3   OH259956   4.774   4.473   1.677  0.1796  0.3003  0.3684
12822TIP3    H159957   4.700   4.416   1.655  0.8236 -0.3645 -0.0851
12822TIP3    H259958   4.851   4.421   1.656  0.7779  1.0675  0.6606
12823TIP3   OH259959   1.093   4.084   3.023 -0.0049 -0.3480 -0.1402
12823TIP3    H159960   1.080   3.993   2.997 -0.3478  0.0098 -1.2398
12823TIP3    H259961   1.140   4.079   3.106 -0.0611 -1.5280 -0.1792
12824TIP3   OH259962   3.240   4.290   4.393 -0.6748  0.5127 -0.3706
12824TIP3    H159963   3.303   4.359   4.409 -0.4163  0.5933 -1.6391
12824TIP3    H259964   3.158   4.322   4.431 -0.2125  0.8810  0.3109
12825TIP3   OH259965   1.005   1.316  15.248 -0.2380  0.7292  0.6695
12825TIP3    H159966   1.032   1.241  15.195  2.1755  2.1712 -0.1912
12825TIP3    H259967   0.960   1.277  15.323  0.0573 -1.5186 -0.2824
12826TIP3   OH259968   1.782   1.785   0.260 -0.5977 -0.3303  0.2744
12826TIP3    H159969   1.721   1.839   0.310 -0.6608 -0.2009  0.0592
12826TIP3    H259970   1.818   1.845   0.194 -0.1530 -0.3734  0.4702
12827TIP3   OH259971   5.099   6.092   0.561  0.2636 -0.0156 -0.2569
12827TIP3    H159972   5.006   6.076   0.576  0.2385  0.2502 -0.1286
12827TIP3    H259973   5.133   6.120   0.646 -0.0693  2.3703 -0.8836
12828TIP3   OH259974   1.644   2.532  13.699  0.2356  0.9593 -0.2399
12828TIP3    H159975   1.738   2.532  13.678  0.0351 -0.0725 -1.2077
12828TIP3    H259976   1.636   2.592  13.772  1.4543  2.1268 -1.0384
12829TIP3   OH259977   5.355   6.556  16.073 -0.0959  0.2063  0.1317
12829TIP3    H159978   5.264   6.547  16.043 -0.4949 -2.3156  1.9232
12829TIP3    H259979   5.400   6.480  16.036  1.1073  0.9759 -0.0164
12830TIP3   OH259980   3.778   0.985  14.447 -0.0564 -0.6064  0.2161
12830TIP3    H159981   3.761   0.896  14.477 -0.1721 -0.8340 -0.5118
12830TIP3    H259982   3.743   1.041  14.516  1.0696 -1.1317  1.2243
12831TIP3   OH259983   1.698   5.102  17.008  0.0418 -0.2159  0.4853
12831TIP3    H159984   1.764   5.118  16.940  0.1128  1.1966  0.8830
12831TIP3    H259985   1.618   5.141  16.973 -0.0946 -0.1289  0.9018
12832TIP3   OH259986   5.982   0.975  15.634 -0.2460 -0.1489  0.0374
12832TIP3    H159987   6.047   1.009  15.694 -0.1316 -0.0362 -0.1489
12832TIP3    H259988   6.021   0.985  15.547  0.0423 -1.3081  0.0233
12833TIP3   OH259989   1.478   1.176  16.247  0.7050 -0.3919 -0.2088
12833TIP3    H159990   1.526   1.098  16.219  0.6506  0.1805 -1.9977
12833TIP3    H259991   1.386   1.155  16.229  0.5605 -0.4393  0.5932
12834TIP3   OH259992   1.413   0.678  13.779 -0.8631  0.3349  0.3109
12834TIP3    H159993   1.390   0.634  13.697  1.0525 -0.6074  0.2557
12834TIP3    H259994   1.335   0.668  13.834 -1.4048 -0.8806 -0.6492
12835TIP3   OH259995   3.530   3.786  15.262 -0.4730 -0.2168  0.2791
12835TIP3    H159996   3.437   3.765  15.259 -0.8910  1.5303  0.3806
12835TIP3    H259997   3.561   3.747  15.344 -1.2398 -0.3440  0.5083
12836TIP3   OH259998   6.200   3.314  12.314 -0.1203  0.6751  0.0373
12836TIP3    H159999   6.209   3.342  12.406 -0.8965  0.2317  0.2480
12836TIP3    H260000   6.199   3.219  12.318 -1.0802  0.6628 -0.3425
12837TIP3   OH260001   3.769   6.814  16.505 -0.6041  0.1484 -0.0009
12837TIP3    H160002   3.826   6.739  16.521 -0.1165 -0.2298 -3.1986
12837TIP3    H260003   3.680   6.777  16.505 -0.4399 -0.2494 -0.5093
12838TIP3   OH260004   3.609   2.968  15.148 -0.1347 -0.0899  0.1564
12838TIP3    H160005   3.678   3.024  15.184 -0.3807  0.7137 -0.6019
12838TIP3    H260006   3.598   2.899  15.213  1.4670 -0.2924  0.2443
12839TIP3   OH260007   4.451   3.021   5.705 -0.0791 -0.4720 -0.2977
12839TIP3    H160008   4.492   3.049   5.787  0.6498  0.9744 -1.1392
12839TIP3    H260009   4.375   3.078   5.695 -1.0573 -1.6675  0.1237
12840TIP3   OH260010   3.310   5.885  10.963 -0.1467 -0.0713  0.0357
12840TIP3    H160011   3.218   5.908  10.976 -0.1434  0.9757 -1.7555
12840TIP3    H260012   3.358   5.953  11.010 -0.2578  0.3474 -0.4519
12841TIP3   OH260013   3.452   5.174   0.285 -0.2469  0.1585  0.0279
12841TIP3    H160014   3.413   5.152   0.201 -0.3403 -1.8134  0.5784
12841TIP3    H260015   3.544   5.193   0.265  0.0604 -1.6545 -0.3370
12842TIP3   OH260016   6.023   2.913  11.781  0.2709 -0.6954 -0.4858
12842TIP3    H160017   5.957   2.949  11.841  1.4148  0.5947  0.0359
12842TIP3    H260018   5.974   2.855  11.723 -1.0175 -1.2123  1.0906
12843TIP3   OH260019   1.750   4.915  16.808  0.0927 -0.0035  0.0343
12843TIP3    H160020   1.662   4.952  16.804  0.3370  0.4588 -1.2549
12843TIP3    H260021   1.781   4.914  16.717  0.1018 -3.4438  0.0266
12844TIP3   OH260022   5.740   5.144  13.224 -0.1501  0.2156  0.2827
12844TIP3    H160023   5.756   5.085  13.151  1.2450  0.6353  0.2287
12844TIP3    H260024   5.707   5.088  13.294 -2.0935 -0.0927 -0.8446
12845TIP3   OH260025   6.489   5.947   3.142 -0.3943 -0.1877  0.3606
12845TIP3    H160026   6.537   6.024   3.171 -0.4106 -0.7123  1.7991
12845TIP3    H260027   6.418   5.982   3.088 -0.6268  0.8260  1.3034
12846TIP3   OH260028   2.143   0.285  11.928 -0.3688  0.6730  0.4041
12846TIP3    H160029   2.182   0.297  12.014 -0.4633  2.6609  0.1910
12846TIP3    H260030   2.112   0.195  11.928  1.2174  0.0999  1.7957
12847TIP3   OH260031   6.359   5.403   0.756 -0.3218  0.2980  0.1961
12847TIP3    H160032   6.278   5.353   0.748  0.2172 -0.2097 -2.5176
12847TIP3    H260033   6.428   5.337   0.758  0.0819  0.7414  2.2087
12848TIP3   OH260034   1.308   0.438  11.623  0.0540 -0.3139 -0.0389
12848TIP3    H160035   1.329   0.496  11.696 -2.5068  0.1178  0.3837
12848TIP3    H260036   1.261   0.494  11.561 -0.6100 -1.4573 -0.5706
12849TIP3   OH260037   3.670   2.301  16.758  0.2381 -0.4197  0.3436
12849TIP3    H160038   3.731   2.361  16.715 -0.6592  0.6910  0.6275
12849TIP3    H260039   3.584   2.327  16.727 -0.2641 -0.7727  1.4173
12850TIP3   OH260040   0.852   3.918  13.035  0.9112 -0.0816 -0.7073
12850TIP3    H160041   0.860   3.823  13.047  0.2703 -0.1154 -0.5233
12850TIP3    H260042   0.881   3.934  12.945  0.6079 -0.5079 -0.8794
12851TIP3   OH260043   5.638   5.512  14.812  0.5619 -0.7182  0.1552
12851TIP3    H160044   5.682   5.458  14.747  0.2061 -1.3942  0.4679
12851TIP3    H260045   5.682   5.492  14.894 -0.6498 -1.7946  0.5639
12852TIP3   OH260046   3.682   0.123   2.804  0.4698 -0.4607  0.1179
12852TIP3    H160047   3.624   0.102   2.878  3.4461  0.6476  2.8984
12852TIP3    H260048   3.669   0.216   2.789  0.9685 -0.3745  0.2275
12853TIP3   OH260049   2.421   1.068  17.139 -0.4933 -0.1580 -0.5981
12853TIP3    H160050   2.466   1.030  17.214  0.2888  0.2713 -0.8417
12853TIP3    H260051   2.373   1.143  17.175 -0.4492 -0.2008 -0.4510
12854TIP3   OH260052   1.027   4.316  13.044  0.5744  0.2768  0.5283
12854TIP3    H160053   1.105   4.278  13.003  0.6367 -1.2127  1.9728
12854TIP3    H260054   1.009   4.259  13.119 -2.1543  0.3432 -0.0233
12855TIP3   OH260055   3.084   3.029  14.807  0.2809 -0.1405  0.0398
12855TIP3    H160056   3.164   2.978  14.793  0.8338  0.0962  2.2025
12855TIP3    H260057   3.112   3.120  14.798  0.3895 -0.0354  1.3939
12856TIP3   OH260058   1.095   1.310  13.230 -0.1723  0.3210  0.1480
12856TIP3    H160059   1.090   1.373  13.302 -1.3308  1.5204 -0.9753
12856TIP3    H260060   1.004   1.300  13.200  0.2954 -0.2134 -1.1236
12857TIP3   OH260061   1.780   0.155  16.275 -0.1111 -0.2983 -0.0404
12857TIP3    H160062   1.849   0.200  16.226 -0.5967  0.1217 -0.3545
12857TIP3    H260063   1.726   0.114  16.207  0.2559 -1.2479  0.2363
12858TIP3   OH260064   2.940   4.629   0.204  0.2971 -0.2064  0.0622
12858TIP3    H160065   2.882   4.559   0.173  0.0376 -0.5584  1.3019
12858TIP3    H260066   2.881   4.701   0.225  0.1972 -0.8074  1.9957
12859TIP3   OH260067   4.221   1.856  13.821 -0.2067  0.1233 -0.5617
12859TIP3    H160068   4.311   1.828  13.841 -0.8702 -1.9766 -0.3795
12859TIP3    H260069   4.221   1.950  13.837  2.0526  0.2016 -0.8843
12860TIP3   OH260070   4.396   0.311  15.646  0.2635 -0.0333  0.1613
12860TIP3    H160071   4.356   0.358  15.720 -0.3815  2.5023 -1.7334
12860TIP3    H260072   4.457   0.374  15.609  0.7657 -1.3775 -1.3137
12861TIP3   OH260073   2.627   6.083  13.239  0.2081 -0.0981 -0.7488
12861TIP3    H160074   2.544   6.109  13.278  0.3377 -0.1343 -0.4400
12861TIP3    H260075   2.605   6.053  13.151  0.0048  0.6786 -0.9636
12862TIP3   OH260076   2.702   5.207   6.470  0.5325  0.2249  0.0109
12862TIP3    H160077   2.617   5.249   6.472  0.2093 -0.4528  3.3456
12862TIP3    H260078   2.765   5.279   6.479  0.2790  0.5851 -1.0281
12863TIP3   OH260079   4.187   0.690  10.971 -0.2310  0.2417  0.0640
12863TIP3    H160080   4.211   0.762  10.913 -1.1665  0.2426 -0.3320
12863TIP3    H260081   4.212   0.611  10.923  0.3707  0.2840  0.3025
12864TIP3   OH260082   3.311   1.728  16.294  0.1065  0.0756 -0.0302
12864TIP3    H160083   3.308   1.660  16.226 -1.2778 -0.7050  0.7679
12864TIP3    H260084   3.219   1.754  16.306  0.3538  0.3638  1.3639
12865TIP3   OH260085   1.772   1.604   4.808  0.3317 -1.0115  0.2745
12865TIP3    H160086   1.867   1.617   4.812  0.0661  0.7601  0.9570
12865TIP3    H260087   1.736   1.692   4.797 -1.1462 -1.8361 -1.9008
12866TIP3   OH260088   6.738   4.242  15.453 -0.1914  0.0016 -0.0168
12866TIP3    H160089   6.781   4.312  15.502  1.0747 -0.9723  0.3193
12866TIP3    H260090   6.649   4.238  15.489 -0.1003  1.0605  0.3383
12867TIP3   OH260091   1.145   4.768   0.044  0.0439  0.0375  0.2779
12867TIP3    H160092   1.152   4.852  -0.001 -0.1965  0.0857  0.3317
12867TIP3    H260093   1.129   4.791   0.135 -0.1804 -0.0649  0.2643
12868TIP3   OH260094   6.217   1.745   4.119 -0.0804 -0.0085  0.1339
12868TIP3    H160095   6.293   1.790   4.082 -1.0018  1.4755  0.0296
12868TIP3    H260096   6.143   1.777   4.069 -0.6054 -2.8548 -1.0326
12869TIP3   OH260097   1.508   2.412   1.108  0.4451  0.5716  0.1863
12869TIP3    H160098   1.531   2.332   1.061  1.1197  0.7316  0.2350
12869TIP3    H260099   1.566   2.479   1.071  0.7923  0.7557  1.0694
12870TIP3   OH260100   3.212   2.316  13.946  0.3448  0.1676 -0.0011
12870TIP3    H160101   3.298   2.352  13.965  0.9906 -0.5915 -1.4130
12870TIP3    H260102   3.220   2.222  13.964  0.2720 -0.1587 -1.5625
12871TIP3   OH260103   3.787   6.048  13.561  0.4499 -0.1378  0.2232
12871TIP3    H160104   3.730   5.971  13.568  0.6885 -0.4522 -1.1286
12871TIP3    H260105   3.871   6.013  13.530  0.8969  0.5178  0.6889
12872TIP3   OH260106   3.922   1.710  14.879  0.3325  0.3382  0.2094
12872TIP3    H160107   3.948   1.802  14.873 -3.0094  1.3332 -0.1809
12872TIP3    H260108   3.879   1.692  14.795 -0.8401 -0.9484  1.0672
12873TIP3   OH260109   4.301   5.645  16.950 -0.3273  0.0763 -0.6266
12873TIP3    H160110   4.343   5.726  16.920  1.9020 -1.3189 -1.3799
12873TIP3    H260111   4.257   5.670  17.031  0.1922  2.0902 -0.9281
12874TIP3   OH260112   4.617   5.438   4.453  0.0359 -0.0281  0.2109
12874TIP3    H160113   4.524   5.461   4.458  0.3583  1.1971  0.7426
12874TIP3    H260114   4.618   5.350   4.414 -1.2300  0.9644 -2.1782
12875TIP3   OH260115   4.291   0.687   2.480 -0.4102 -0.2589  0.8461
12875TIP3    H160116   4.271   0.754   2.546  0.5326  0.8826  0.0010
12875TIP3    H260117   4.378   0.656   2.503 -1.0144 -1.5178  1.4824
12876TIP3   OH260118   1.657   0.284   5.795 -0.1542 -0.1990  0.1367
12876TIP3    H160119   1.597   0.352   5.765 -1.2747  0.3947  3.4328
12876TIP3    H260120   1.604   0.232   5.857  1.8762 -1.4939  0.8364
12877TIP3   OH260121   0.938   6.688  12.717  0.4779  0.0076 -0.7267
12877TIP3    H160122   0.935   6.774  12.760  0.0046 -0.5150  0.3117
12877TIP3    H260123   0.969   6.629  12.786 -1.7207 -1.1114 -0.6552
12878TIP3   OH260124   0.451   5.595  14.425 -0.0505 -0.3300  0.2440
12878TIP3    H160125   0.390   5.537  14.379 -1.9823  2.0663 -0.2870
12878TIP3    H260126   0.488   5.650  14.356 -1.1842  1.6807  1.1895
12879TIP3   OH260127   6.740   0.581  12.405 -0.0496 -0.5137 -0.2976
12879TIP3    H160128   6.704   0.623  12.326 -0.8545  1.7391  1.2384
12879TIP3    H260129   6.666   0.534  12.443 -0.0982 -0.1361  0.0753
12880TIP3   OH260130   1.647   6.091  11.693 -0.5001  0.1256  0.6461
12880TIP3    H160131   1.594   6.169  11.707  0.6642  0.9609  0.5110
12880TIP3    H260132   1.737   6.122  11.702  0.0353 -0.8217 -1.2633
12881TIP3   OH260133   4.663   0.872   1.436 -0.6200 -0.1624 -0.0901
12881TIP3    H160134   4.658   0.788   1.389 -0.5090 -1.1460  1.6040
12881TIP3    H260135   4.588   0.870   1.495  2.0108 -1.2084  3.3581
12882TIP3   OH260136   0.473   3.535   5.186 -0.0124 -0.3393 -0.2387
12882TIP3    H160137   0.425   3.601   5.237 -0.5407 -1.0019  0.1292
12882TIP3    H260138   0.565   3.548   5.210 -0.1169  0.2413 -0.1443
12883TIP3   OH260139   5.142   2.811  15.873  0.5048  0.3881  0.0132
12883TIP3    H160140   5.065   2.868  15.867  0.2580  0.0085 -0.4840
12883TIP3    H260141   5.190   2.843  15.949  0.2465  1.1099 -0.1270
12884TIP3   OH260142   0.705   2.059   4.799  0.0141  0.2168  0.5770
12884TIP3    H160143   0.731   2.000   4.728  1.9698  1.4305  0.2300
12884TIP3    H260144   0.699   2.002   4.876  0.7660 -0.6348  0.0233
12885TIP3   OH260145   4.029   0.830   1.966  0.3041  0.7317 -0.5924
12885TIP3    H160146   3.997   0.891   1.899  0.3260 -0.0238 -1.3121
12885TIP3    H260147   4.081   0.766   1.916  0.8300  0.5100  0.2365
12886TIP3   OH260148   2.532   4.137  14.994 -0.3462  0.1469  0.3422
12886TIP3    H160149   2.559   4.216  15.040 -1.4532  0.2719  0.7851
12886TIP3    H260150   2.565   4.065  15.048  1.0151  0.2928 -0.2713
12887TIP3   OH260151   4.286   0.702   1.125 -0.0009 -0.2252  0.1443
12887TIP3    H160152   4.229   0.628   1.146 -0.2180  0.1368  0.8484
12887TIP3    H260153   4.302   0.745   1.209 -0.2183  0.7685 -0.3166
12888TIP3   OH260154   6.127   2.429   2.740 -0.1412 -0.4872  0.2017
12888TIP3    H160155   6.082   2.432   2.655  0.4127 -0.6143 -0.0994
12888TIP3    H260156   6.064   2.467   2.801  0.8460  3.1738 -0.8998
12889TIP3   OH260157   3.296   0.463   6.149 -0.0712  1.3847  0.6208
12889TIP3    H160158   3.322   0.521   6.078  2.2164  0.6612  0.8239
12889TIP3    H260159   3.358   0.482   6.219  2.3421 -2.9206 -0.1397
12890TIP3   OH260160   6.140   4.982   3.802 -0.5089  0.1661  0.2124
12890TIP3    H160161   6.182   4.963   3.718 -1.2141  1.9326 -0.5538
12890TIP3    H260162   6.089   5.061   3.786 -1.8984 -0.3707  1.8975
12891TIP3   OH260163   1.263   4.885  13.553  0.6947  0.2671 -0.4010
12891TIP3    H160164   1.283   4.934  13.474 -0.3310 -1.8780 -2.0427
12891TIP3    H260165   1.178   4.844  13.535  0.1465  0.2389  2.0502
12892TIP3   OH260166   5.664   5.742  13.582 -0.1136 -0.1585 -0.1130
12892TIP3    H160167   5.590   5.721  13.526 -0.2969  2.2749 -0.8530
12892TIP3    H260168   5.720   5.664  13.579 -1.9382 -1.4688 -0.6609
12893TIP3   OH260169   5.360   2.507   3.993 -0.0036  0.3799 -0.1615
12893TIP3    H160170   5.448   2.530   4.023 -0.1827  2.3038 -1.0555
12893TIP3    H260171   5.305   2.518   4.071  0.6908 -1.9693  0.7100
12894TIP3   OH260172   6.068   3.876   3.849 -0.1245  0.3572  0.4588
12894TIP3    H160173   6.127   3.814   3.892  1.0892  0.4971 -0.9510
12894TIP3    H260174   6.080   3.958   3.897 -0.4153 -0.0533  1.2264
12895TIP3   OH260175   3.463   1.124   2.824  0.4636  0.0521 -0.0358
12895TIP3    H160176   3.399   1.167   2.767 -0.6581 -2.2970 -0.6134
12895TIP3    H260177   3.438   1.150   2.913  0.6601  1.6895 -0.4523
12896TIP3   OH260178   1.159   0.555   3.800  0.5299 -0.1556  0.3516
12896TIP3    H160179   1.101   0.486   3.766 -0.6993  0.6360  0.8004
12896TIP3    H260180   1.109   0.636   3.787  1.1445  0.4336  1.6532
12897TIP3   OH260181   2.247   5.839   4.222 -0.1729  0.4044 -0.0199
12897TIP3    H160182   2.170   5.861   4.169  1.4278  0.9814 -2.2072
12897TIP3    H260183   2.250   5.906   4.290 -1.1109  0.8995 -0.4675
12898TIP3   OH260184   5.803   5.680  15.467 -0.0673 -0.8187 -0.2223
12898TIP3    H160185   5.862   5.745  15.428  0.0565 -0.0935  1.1674
12898TIP3    H260186   5.747   5.653  15.394 -0.9561  1.7639 -0.5789
12899TIP3   OH260187   4.386   5.109   3.282  0.2437  1.1820 -0.1500
12899TIP3    H160188   4.353   5.030   3.239 -2.2894  2.1171  0.0165
12899TIP3    H260189   4.433   5.077   3.359  0.7034 -0.2367 -0.9991
12900TIP3   OH260190   0.659   3.509  15.655 -0.0628 -0.4203  0.0181
12900TIP3    H160191   0.584   3.489  15.711 -0.1301  0.3241  0.2015
12900TIP3    H260192   0.621   3.550  15.577  0.2785  1.6586  0.9177
12901TIP3   OH260193   4.052   2.099   3.097  0.3383 -0.1754  0.1750
12901TIP3    H160194   4.025   2.067   3.183  0.9791  0.6563  0.6912
12901TIP3    H260195   4.147   2.109   3.103  0.6328 -1.8914 -1.2294
12902TIP3   OH260196   1.474   1.254  14.004  0.0740 -0.1657 -0.1195
12902TIP3    H160197   1.448   1.232  14.093  0.3809  0.2428  0.0748
12902TIP3    H260198   1.527   1.180  13.975 -0.1003 -0.3378  0.0065
12903TIP3   OH260199   2.791   0.177   3.743 -0.4406 -0.4939  0.5618
12903TIP3    H160200   2.795   0.209   3.833  1.0729  2.7412 -0.5518
12903TIP3    H260201   2.724   0.232   3.701  1.7342  0.8739 -1.2475
12904TIP3   OH260202   0.781   2.342   0.967 -0.2200  0.3200  0.7364
12904TIP3    H160203   0.808   2.301   1.049  0.9209 -1.2682 -0.4017
12904TIP3    H260204   0.724   2.278   0.925  2.7059 -0.8226 -1.7127
12905TIP3   OH260205   6.479   5.227  14.681 -0.1649  0.0163 -0.0350
12905TIP3    H160206   6.496   5.139  14.716  1.1028  0.1624 -0.2845
12905TIP3    H260207   6.543   5.283  14.725 -0.0637  0.5864 -0.8984
12906TIP3   OH260208   5.482   5.814   4.319  0.1668  0.1639  0.1689
12906TIP3    H160209   5.391   5.788   4.307  0.6735 -1.0784 -1.0695
12906TIP3    H260210   5.481   5.909   4.307 -0.7005 -0.0463 -1.6567
12907TIP3   OH260211   4.260   5.240   5.642  0.2623 -0.0038  0.0713
12907TIP3    H160212   4.315   5.167   5.670 -1.1816 -0.0404  3.0241
12907TIP3    H260213   4.175   5.200   5.624  0.1692  0.5811 -0.8231
12908TIP3   OH260214   4.302   0.780   1.399  0.1035  0.0359  0.2434
12908TIP3    H160215   4.373   0.773   1.463  0.1802  2.5165  0.4770
12908TIP3    H260216   4.282   0.873   1.395 -0.2328 -0.1185 -3.0184
12909TIP3   OH260217   0.319   2.441  15.444  0.0010 -0.2452  0.0436
12909TIP3    H160218   0.225   2.456  15.441  0.0393 -0.1076 -0.4984
12909TIP3    H260219   0.356   2.514  15.394  0.4302  0.0514  0.7970
12910TIP3   OH260220   2.064   3.034   3.382 -0.3632 -1.2207  0.8336
12910TIP3    H160221   2.084   3.102   3.447  0.3279  0.5902 -1.2238
12910TIP3    H260222   2.138   2.973   3.388 -0.5048 -1.2890  2.0202
12911TIP3   OH260223   3.226   1.285  12.910  0.0111 -0.3172  0.1624
12911TIP3    H160224   3.174   1.226  12.965 -0.8053 -0.2537 -0.5341
12911TIP3    H260225   3.260   1.350  12.972  0.3912 -1.1360  0.8304
12912TIP3   OH260226   2.200   0.899  15.672  0.0177  0.0456 -0.2087
12912TIP3    H160227   2.285   0.860  15.652 -0.7617 -1.0991 -1.3842
12912TIP3    H260228   2.153   0.895  15.589 -1.0827  0.9411  0.3681
12913TIP3   OH260229   3.916   2.361   1.662 -0.2080  0.4436  0.5095
12913TIP3    H160230   3.863   2.369   1.741  1.2771  0.8205  1.4834
12913TIP3    H260231   3.880   2.284   1.617 -0.1393 -0.6423  2.2595
12914TIP3   OH260232   4.618   6.434   4.650  0.7481  0.3410  0.3784
12914TIP3    H160233   4.690   6.435   4.587  1.8434  0.9681  1.6078
12914TIP3    H260234   4.577   6.348   4.638  0.9192  0.4699 -1.2042
12915TIP3   OH260235   1.799   0.641  12.978 -1.0022 -0.4189 -0.0223
12915TIP3    H160236   1.880   0.685  12.952 -1.3078 -0.1004 -0.4312
12915TIP3    H260237   1.777   0.679  13.063 -0.9776 -0.1661 -0.1284
12916TIP3   OH260238   0.254   4.680  11.440  0.0593  0.0317 -0.4973
12916TIP3    H160239   0.159   4.672  11.427  0.1094 -1.7917  0.1009
12916TIP3    H260240   0.264   4.690  11.535  0.4507  0.6321 -0.5995
12917TIP3   OH260241   6.805   2.714   1.429  0.5535 -0.2867  0.4874
12917TIP3    H160242   6.890   2.753   1.411  0.4032  0.1335  0.6698
12917TIP3    H260243   6.795   2.645   1.364  0.9964 -0.2840  0.4156
12918TIP3   OH260244   6.780   2.558   4.908  0.6482 -0.0440 -0.3481
12918TIP3    H160245   6.840   2.487   4.928  1.1986  0.4283 -0.3115
12918TIP3    H260246   6.762   2.599   4.993 -0.4005 -0.7114 -0.2372
12919TIP3   OH260247   3.628   6.077  11.837 -0.3404 -0.1362  0.3338
12919TIP3    H160248   3.552   6.026  11.863  0.2261 -1.5869 -0.8058
12919TIP3    H260249   3.611   6.100  11.745 -0.5073  1.5876  0.7737
12920TIP3   OH260250   5.109   3.660  14.194  0.1543  0.3734  0.2158
12920TIP3    H160251   5.057   3.598  14.143  0.5886  1.0989 -1.1423
12920TIP3    H260252   5.045   3.725  14.223 -0.2388 -0.5061  1.3278
12921TIP3   OH260253   1.874   6.318  14.340 -0.2887  0.8237  0.1754
12921TIP3    H160254   1.797   6.348  14.387 -1.9162 -0.9107 -1.3000
12921TIP3    H260255   1.880   6.225  14.359  0.9023  0.7489 -0.4674
12922TIP3   OH260256   1.798   5.002   3.932  0.5200  0.2532  0.3932
12922TIP3    H160257   1.874   5.049   3.964  0.3457  1.1752 -0.5245
12922TIP3    H260258   1.822   4.974   3.843  0.4828 -1.0626  0.7912
12923TIP3   OH260259   1.052   6.544   3.889 -0.7830  0.5906 -0.0734
12923TIP3    H160260   0.990   6.560   3.818  0.7902  1.9429 -1.1898
12923TIP3    H260261   1.065   6.631   3.929  0.0803  0.2508  0.4013
12924TIP3   OH260262   3.906   5.300   1.037 -0.3227 -0.5319 -0.5262
12924TIP3    H160263   3.927   5.326   1.127  0.2920  2.4774 -1.5092
12924TIP3    H260264   3.988   5.266   1.002 -0.3705 -0.9800 -0.2090
12925TIP3   OH260265   5.650   0.904   5.429  0.4341 -0.2186  0.4253
12925TIP3    H160266   5.616   0.906   5.519  0.0344  1.4711  0.2521
12925TIP3    H260267   5.734   0.949   5.435  1.0538 -1.3026  0.1819
12926TIP3   OH260268   2.203   5.254  12.151  0.0202 -0.2576  0.1299
12926TIP3    H160269   2.277   5.306  12.118  0.3085 -0.8562 -0.1743
12926TIP3    H260270   2.134   5.267  12.087  0.2075 -0.5220 -0.1271
12927TIP3   OH260271   2.654   5.249   3.064 -0.4592  0.0026 -0.0341
12927TIP3    H160272   2.727   5.187   3.071 -0.9152 -0.6150 -0.7495
12927TIP3    H260273   2.576   5.194   3.061 -0.9581  0.6568  0.6031
12928TIP3   OH260274   5.837   3.207   4.109 -0.5662 -0.0456  0.3750
12928TIP3    H160275   5.792   3.262   4.045  0.4086  0.0003 -0.2872
12928TIP3    H260276   5.827   3.118   4.075 -1.2725 -0.1820  0.9165
12929TIP3   OH260277   1.543   3.150  14.450  0.6422 -0.5217  0.2035
12929TIP3    H160278   1.621   3.095  14.441  0.2787 -0.5522 -3.4052
12929TIP3    H260279   1.475   3.104  14.401 -0.3176  1.8529 -0.7931
12930TIP3   OH260280   2.886   0.040  16.604  0.0835 -0.4076 -0.1126
12930TIP3    H160281   2.823   0.096  16.558 -2.2683 -0.8076  2.4758
12930TIP3    H260282   2.893   0.078  16.691  3.2766 -0.5683 -0.2408
12931TIP3   OH260283   5.477   6.314  15.999  0.3138  0.5159  0.3001
12931TIP3    H160284   5.528   6.287  15.922  0.7347 -0.0961  0.7887
12931TIP3    H260285   5.510   6.259  16.070  1.8659  2.9648  1.5473
12932TIP3   OH260286   3.211   4.277   1.202 -0.7664 -0.5932 -0.2140
12932TIP3    H160287   3.303   4.300   1.197 -0.5735 -1.1690  0.5422
12932TIP3    H260288   3.210   4.181   1.204 -1.4172 -0.6107 -0.9457
12933TIP3   OH260289   3.260   2.548   2.926  0.0103  0.2081 -0.0825
12933TIP3    H160290   3.312   2.474   2.893 -0.8338 -0.2003 -0.5228
12933TIP3    H260291   3.273   2.546   3.020 -1.9823 -2.0591  0.1853
12934TIP3   OH260292   1.549   2.469  10.630  0.4250 -0.6653 -0.4077
12934TIP3    H160293   1.456   2.493  10.632  0.4956 -0.3734 -0.5362
12934TIP3    H260294   1.595   2.552  10.615  0.9126 -0.3682  2.5539
12935TIP3   OH260295   5.211   0.276   0.874 -0.0771  0.6740 -0.0522
12935TIP3    H160296   5.117   0.266   0.881  0.1347 -1.9703 -0.5411
12935TIP3    H260297   5.241   0.288   0.964 -0.5977 -1.1885  0.3727
12936TIP3   OH260298   3.646   3.290  12.865 -0.4907 -0.1328 -0.3982
12936TIP3    H160299   3.570   3.266  12.919 -0.5744  0.2217 -0.3567
12936TIP3    H260300   3.719   3.292  12.926 -0.6298  0.5135 -0.2482
12937TIP3   OH260301   4.944   5.434   3.385 -0.1521  0.2710  0.3491
12937TIP3    H160302   4.990   5.509   3.423 -1.9073  1.7989 -0.5110
12937TIP3    H260303   4.856   5.438   3.422 -0.9226 -0.0728 -1.4095
12938TIP3   OH260304   4.182   2.532   4.202  0.2573  0.1215 -0.2458
12938TIP3    H160305   4.215   2.447   4.233 -0.8509 -0.2736 -0.1075
12938TIP3    H260306   4.105   2.549   4.257 -0.6946  0.2511 -1.5940
12939TIP3   OH260307   3.868   6.781  13.944 -0.1897  0.0154 -0.3165
12939TIP3    H160308   3.835   6.693  13.963 -1.7994  0.7105  0.1750
12939TIP3    H260309   3.865   6.787  13.849  0.5983 -0.7078 -0.3934
12940TIP3   OH260310   5.107   3.755  16.769 -0.3931  0.1213 -0.0497
12940TIP3    H160311   5.148   3.825  16.820  0.1819 -1.0125  1.0908
12940TIP3    H260312   5.138   3.769  16.680  0.3240  0.8684  0.3052
12941TIP3   OH260313   2.121   1.274   5.873 -0.0553 -0.3600 -0.1030
12941TIP3    H160314   2.084   1.308   5.791  0.2770  0.1521 -0.0443
12941TIP3    H260315   2.063   1.307   5.941 -0.3771 -0.8530 -0.1373
12942TIP3   OH260316   5.010   1.508   0.431 -0.6580  0.4841  0.0961
12942TIP3    H160317   5.033   1.582   0.376 -0.9861  1.4940  1.3066
12942TIP3    H260318   4.956   1.452   0.375  0.8207  0.4004 -1.2866
12943TIP3   OH260319   3.717   6.341   1.085  0.5082  0.2782  0.1155
12943TIP3    H160320   3.624   6.333   1.107  0.6274  0.7673  0.8221
12943TIP3    H260321   3.745   6.423   1.126  0.0724  2.8184 -4.3674
12944TIP3   OH260322   6.783   4.680   4.812  0.9117 -0.1892 -0.1443
12944TIP3    H160323   6.690   4.684   4.790  1.2107 -0.6925 -1.5532
12944TIP3    H260324   6.826   4.732   4.744  1.4503  2.2391  1.9613
12945TIP3   OH260325   5.046   6.426   4.880  0.6819  0.2735 -0.4833
12945TIP3    H160326   5.120   6.467   4.837  0.4553  1.5266  0.3060
12945TIP3    H260327   5.011   6.366   4.814  2.5315 -0.5216 -0.7682
12946TIP3   OH260328   5.075   6.024   1.447  0.4627  0.5385 -0.0026
12946TIP3    H160329   4.985   5.995   1.457  0.3865  0.7122 -0.1748
12946TIP3    H260330   5.114   6.013   1.534  0.1124  1.0284  0.2189
12947TIP3   OH260331   0.170   5.426   4.846  0.6674 -0.2957  0.4202
12947TIP3    H160332   0.204   5.342   4.815 -0.3243 -0.5246 -0.0806
12947TIP3    H260333   0.174   5.484   4.770 -0.7417 -0.5417  0.1377
12948TIP3   OH260334   1.361   2.218  12.016  0.4152 -0.1341 -0.3802
12948TIP3    H160335   1.411   2.165  11.954 -0.4154 -1.4430  0.0434
12948TIP3    H260336   1.415   2.222  12.095 -0.1600 -1.6063  0.1017
12949TIP3   OH260337   4.322   5.571  16.298 -0.4531  0.0347 -0.2030
12949TIP3    H160338   4.385   5.640  16.278  0.6644 -1.1447 -0.7963
12949TIP3    H260339   4.294   5.590  16.388 -1.4863  2.2587 -0.9710
12950TIP3   OH260340   1.387   6.712  15.153 -0.0440 -0.0429  0.2150
12950TIP3    H160341   1.378   6.805  15.133 -3.3461 -0.0659  1.2008
12950TIP3    H260342   1.418   6.710  15.243 -1.7838  0.1535  0.8406
12951TIP3   OH260343   5.196   6.058  15.104 -0.2186  0.0928  0.1064
12951TIP3    H160344   5.195   5.981  15.161  0.3929  0.7612  1.0414
12951TIP3    H260345   5.287   6.065  15.075 -0.8559 -1.2277 -2.3525
12952TIP3   OH260346   6.027   5.163   3.120  0.1816 -0.3663 -0.4394
12952TIP3    H160347   6.107   5.215   3.132  1.0704 -1.9466  0.6232
12952TIP3    H260348   6.032   5.095   3.187 -1.9857 -0.5959 -0.4690
12953TIP3   OH260349   2.043   0.440  12.880  0.4050 -0.9855  0.0914
12953TIP3    H160350   2.049   0.395  12.964 -0.6271 -0.7237  0.3183
12953TIP3    H260351   1.951   0.468  12.874  0.8840  0.5565 -0.3160
12954TIP3   OH260352   1.937   2.810  13.751 -0.3631 -0.1867 -0.0952
12954TIP3    H160353   1.906   2.824  13.661  1.9263  0.2865 -0.8218
12954TIP3    H260354   1.918   2.718  13.768  1.8238 -1.0578 -2.1330
12955TIP3   OH260355   1.605   0.949  15.260 -0.1302 -0.1899 -0.8105
12955TIP3    H160356   1.638   0.868  15.221 -1.6602 -1.2027 -0.0828
12955TIP3    H260357   1.521   0.924  15.300  0.7378  1.1048  1.9614
12956TIP3   OH260358   2.264   4.806  10.699  0.1199 -0.0121 -0.5547
12956TIP3    H160359   2.321   4.767  10.765  1.0117  0.7327 -0.8815
12956TIP3    H260360   2.202   4.859  10.748  0.9328  0.7349 -0.3297
12957TIP3   OH260361   6.709   3.177  15.796 -0.3468 -0.3167  0.3393
12957TIP3    H160362   6.623   3.152  15.763 -0.7620  1.0568  0.3300
12957TIP3    H260363   6.770   3.123  15.746 -1.1933 -1.0964  0.1408
12958TIP3   OH260364   4.501   0.516  12.074 -0.2802  0.5430 -0.2055
12958TIP3    H160365   4.508   0.430  12.115  1.2277  0.0472 -1.4408
12958TIP3    H260366   4.578   0.521  12.017 -0.2085  2.8209  0.0691
12959TIP3   OH260367   4.355   4.366  15.033  0.7677  0.4054 -0.6087
12959TIP3    H160368   4.302   4.293  14.999 -0.2437  1.1253 -0.6076
12959TIP3    H260369   4.414   4.389  14.962  2.0338 -1.3070 -0.1372
12960TIP3   OH260370   4.473   6.672  10.970  0.7520  0.3841 -0.2726
12960TIP3    H160371   4.507   6.713  10.890 -1.1501 -0.1205 -1.3820
12960TIP3    H260372   4.399   6.620  10.940  1.0750 -1.2031  1.5997
12961TIP3   OH260373   6.075   0.066   0.656  0.0184  0.3443  0.8768
12961TIP3    H160374   6.028   0.077   0.574  0.2512  1.3846  0.8710
12961TIP3    H260375   6.167   0.075   0.632  0.1356 -0.1641  1.1254
12962TIP3   OH260376   1.043   5.140  12.079  0.4871 -0.0109 -0.3260
12962TIP3    H160377   1.125   5.092  12.095  0.0846 -1.3594 -2.1518
12962TIP3    H260378   1.037   5.202  12.152  1.6227 -1.9468  1.4742
12963TIP3   OH260379   1.415   5.506   4.813  0.1583  0.0702  0.4658
12963TIP3    H160380   1.391   5.467   4.729 -1.3309  1.1826  0.3519
12963TIP3    H260381   1.456   5.434   4.862 -1.1442 -1.2292 -0.3142
12964TIP3   OH260382   0.107   5.361  12.467 -0.3064  0.0067  0.3201
12964TIP3    H160383   0.092   5.433  12.405 -2.7595  1.7624  2.7876
12964TIP3    H260384   0.165   5.398  12.533  1.4595 -1.5256 -0.3243
12965TIP3   OH260385   0.198   0.270  13.076  0.3881  0.0447 -0.6274
12965TIP3    H160386   0.199   0.232  13.165 -1.3976  0.5791 -0.3438
12965TIP3    H260387   0.286   0.303  13.063  0.8196 -0.4947  0.7662
12966TIP3   OH260388   4.830   1.405   0.235 -0.1297  0.0337  0.1274
12966TIP3    H160389   4.866   1.317   0.221  0.6220  0.3665 -0.0558
12966TIP3    H260390   4.827   1.443   0.147 -4.2118 -1.2182 -0.4007
12967TIP3   OH260391   0.183   4.601   1.130 -0.1656  0.3876  0.1505
12967TIP3    H160392   0.169   4.533   1.195 -0.0907 -0.3609 -0.6081
12967TIP3    H260393   0.126   4.673   1.158 -3.8722 -1.7047 -1.5915
12968TIP3   OH260394   0.234   3.960  11.528 -0.3520 -0.0326 -0.4758
12968TIP3    H160395   0.179   4.016  11.583  0.1001  0.0524 -0.1035
12968TIP3    H260396   0.241   4.007  11.445  1.1020  1.1151  0.2624
12969TIP3   OH260397   6.604   5.570   1.580  0.0485 -0.1941 -0.2621
12969TIP3    H160398   6.529   5.511   1.590  0.1173 -0.1817  0.3724
12969TIP3    H260399   6.667   5.522   1.527 -0.0874 -0.5138 -0.1325
12970TIP3   OH260400   5.749   2.282   4.635 -0.3830  0.4250 -0.5737
12970TIP3    H160401   5.717   2.192   4.636 -2.3406  1.0279 -2.9243
12970TIP3    H260402   5.843   2.274   4.619 -0.6915 -1.1700 -1.7088
12971TIP3   OH260403   1.624   5.278  14.136 -0.9484 -0.1565  0.1923
12971TIP3    H160404   1.640   5.193  14.179 -1.4184 -1.0568 -1.3806
12971TIP3    H260405   1.684   5.278  14.062 -0.6912  1.0688  0.3952
12972TIP3   OH260406   4.657   3.141  11.859 -0.3799 -0.0720  0.0413
12972TIP3    H160407   4.588   3.207  11.868 -0.3097  0.2168 -1.3045
12972TIP3    H260408   4.716   3.157  11.932 -1.6953 -0.2622  1.1615
12973TIP3   OH260409   0.320   5.832   5.594 -0.2897  0.0078  0.1618
12973TIP3    H160410   0.347   5.781   5.670 -0.1342 -1.0817 -0.6122
12973TIP3    H260411   0.231   5.862   5.615 -0.7716 -1.4208  0.2196
12974TIP3   OH260412   1.832   2.950  16.755  0.0564 -0.4422  0.4633
12974TIP3    H160413   1.752   2.932  16.706 -0.0354  1.2627 -0.0599
12974TIP3    H260414   1.902   2.939  16.691  0.0415  0.4635  0.2861
12975TIP3   OH260415   4.841   5.404   6.322 -0.3097  0.0784  0.1831
12975TIP3    H160416   4.886   5.331   6.280 -0.2039  0.1605  0.1530
12975TIP3    H260417   4.752   5.373   6.337 -0.6494  0.4291 -1.0821
12976TIP3   OH260418   4.718   3.958  13.934  0.0866 -0.2062 -0.1979
12976TIP3    H160419   4.653   3.958  13.863 -0.3350  0.7966  0.1709
12976TIP3    H260420   4.770   3.879  13.919 -1.9130 -1.6190  0.1240
12977TIP3   OH260421   6.195   1.482  13.392  0.0654 -0.0880 -0.3056
12977TIP3    H160422   6.187   1.561  13.446 -0.7244  0.5711 -1.3703
12977TIP3    H260423   6.149   1.503  13.311 -1.0384 -2.0019 -0.2065
12978TIP3   OH260424   2.393   2.171   3.700  0.7587 -0.3947 -0.3492
12978TIP3    H160425   2.378   2.198   3.791  0.3216  1.2512 -0.8927
12978TIP3    H260426   2.443   2.090   3.707 -1.0318 -1.3981  1.4028
12979TIP3   OH260427   4.001   4.265  11.873 -0.1228  0.2810  0.0174
12979TIP3    H160428   3.976   4.236  11.786  1.8611  1.2058 -0.8905
12979TIP3    H260429   4.091   4.235  11.884  0.2705  1.7434  1.0090
12980TIP3   OH260430   5.597   1.680  16.737 -0.0588 -0.4342  0.4004
12980TIP3    H160431   5.641   1.733  16.803  1.4930  0.8689 -1.6305
12980TIP3    H260432   5.641   1.702  16.655 -3.0441 -0.7360 -1.3558
12981TIP3   OH260433   0.507   6.765   4.604 -0.1716 -0.3168  0.8049
12981TIP3    H160434   0.435   6.784   4.543 -0.5135 -0.5707  1.1251
12981TIP3    H260435   0.467   6.708   4.670  0.6111 -1.4418  0.3384
12982TIP3   OH260436   3.205   4.669   3.742  0.2396  0.2004 -0.4044
12982TIP3    H160437   3.229   4.743   3.687  2.4725 -1.1683 -1.3522
12982TIP3    H260438   3.226   4.592   3.689  1.2734 -1.1520  1.9037
12983TIP3   OH260439   4.683   4.842   2.816 -0.7643 -0.3994  0.1421
12983TIP3    H160440   4.768   4.879   2.795 -0.1956 -2.5367 -1.4502
12983TIP3    H260441   4.634   4.915   2.853  0.4537  1.8595 -2.5098
12984TIP3   OH260442   3.953   3.594  16.592  0.1398 -0.4964  0.2019
12984TIP3    H160443   3.869   3.549  16.580 -0.7993  1.3213 -0.2214
12984TIP3    H260444   3.963   3.600  16.687 -0.0105 -1.0816  0.2561
12985TIP3   OH260445   6.796   4.463  15.596 -0.4759 -0.0364 -0.7627
12985TIP3    H160446   6.871   4.505  15.553 -0.0636 -0.9469 -0.9520
12985TIP3    H260447   6.830   4.435  15.681 -1.0010  0.8270 -0.2717
12986TIP3   OH260448   4.552   6.020  12.532  0.4524  0.3328 -0.0418
12986TIP3    H160449   4.503   6.100  12.512 -1.2732 -1.1287 -1.9398
12986TIP3    H260450   4.615   6.012  12.460 -0.1085 -0.5310 -0.4586
12987TIP3   OH260451   2.595   0.501   1.673 -0.1688 -0.1388 -0.1634
12987TIP3    H160452   2.670   0.442   1.675 -0.7118 -0.8414 -0.3616
12987TIP3    H260453   2.618   0.571   1.734  0.7772 -0.1863 -0.4555
12988TIP3   OH260454   6.006   5.349  13.960  0.0495 -0.2303 -1.0508
12988TIP3    H160455   6.067   5.283  13.994 -1.4431 -0.8390  0.5473
12988TIP3    H260456   6.016   5.345  13.865  0.4897 -2.2791 -0.9328
12989TIP3   OH260457   1.852   6.457   1.049  0.3418  0.1883  0.5154
12989TIP3    H160458   1.825   6.533   1.101  2.1562  0.0525  1.7065
12989TIP3    H260459   1.772   6.428   1.006 -0.3935  2.7841  0.0184
12990TIP3   OH260460   2.752   3.207   4.864 -0.0576  0.1546 -0.1756
12990TIP3    H160461   2.796   3.225   4.781 -0.8442  0.4468 -0.5339
12990TIP3    H260462   2.823   3.194   4.926  0.5403  0.5344 -0.7678
12991TIP3   OH260463   6.644   3.878   3.598  0.1995 -0.6827  0.1950
12991TIP3    H160464   6.665   3.952   3.656 -0.6657  0.2994 -0.7205
12991TIP3    H260465   6.577   3.912   3.539  0.0107 -2.1195 -0.4472
12992TIP3   OH260466   3.412   0.058  14.187 -0.4718 -0.0142  0.0277
12992TIP3    H160467   3.487  -0.002  14.186 -1.7106 -1.5719 -1.6185
12992TIP3    H260468   3.421   0.110  14.107 -0.5715  0.5392  0.3718
12993TIP3   OH260469   6.530   4.510  17.222 -0.7503 -0.1939 -0.3830
12993TIP3    H160470   6.475   4.440  17.258 -2.6290  0.7412 -1.4425
12993TIP3    H260471   6.581   4.467  17.153 -0.4919 -0.9347  0.2502
12994TIP3   OH260472   0.360   2.398   1.050 -0.6014  0.1133  0.0650
12994TIP3    H160473   0.299   2.393   1.124 -0.0116  1.1232  0.6322
12994TIP3    H260474   0.391   2.488   1.051  0.2229 -0.1538 -0.7775
12995TIP3   OH260475   5.621   0.355   0.645  0.1932  0.1466 -0.1712
12995TIP3    H160476   5.661   0.306   0.716  0.2356 -0.5580 -0.6733
12995TIP3    H260477   5.690   0.363   0.579  0.9658  3.0283  0.9021
12996TIP3   OH260478   0.192   5.590   3.522  0.2281 -0.2050 -0.3811
12996TIP3    H160479   0.139   5.632   3.455 -1.1841 -1.0570  0.1719
12996TIP3    H260480   0.210   5.503   3.487 -0.6068 -0.6933  0.3708
12997TIP3   OH260481   4.333   1.713  15.207 -0.0173  0.5582  0.2069
12997TIP3    H160482   4.315   1.628  15.168 -0.8579  1.7530 -2.1723
12997TIP3    H260483   4.316   1.702  15.300 -2.5706 -1.2018 -0.4313
12998TIP3   OH260484   6.300   1.994  16.296 -0.2668  0.0798 -0.4010
12998TIP3    H160485   6.282   1.968  16.206  0.2590  0.7422 -0.6959
12998TIP3    H260486   6.245   1.935  16.349 -0.8619 -0.0536 -1.1591
12999TIP3   OH260487   0.754   6.229  15.363 -0.1318 -0.3121  0.4396
12999TIP3    H160488   0.831   6.174  15.354 -0.0587 -0.3632  1.3334
12999TIP3    H260489   0.780   6.314  15.327  0.2656 -0.4038  0.5076
13000TIP3   OH260490   3.281   1.652  10.429  0.7952  0.3656 -0.0193
13000TIP3    H160491   3.199   1.629  10.386  1.7155  0.2347 -1.7735
13000TIP3    H260492   3.297   1.744  10.403  1.0765  0.4584  0.4818
13001TIP3   OH260493   2.150   0.214   1.476  0.0821 -0.1908  1.0139
13001TIP3    H160494   2.079   0.165   1.434 -0.6239 -0.7380  2.7940
13001TIP3    H260495   2.164   0.290   1.419 -2.2534  0.1587  0.8482
13002TIP3   OH260496   0.922   3.930  11.239  0.4696  0.5210 -0.4846
13002TIP3    H160497   0.895   4.001  11.180 -0.1416  0.7991  0.1290
13002TIP3    H260498   0.960   3.864  11.181  0.4028  1.0499 -1.1313
13003TIP3   OH260499   2.841   6.688   5.076 -0.0906  0.1851  0.0976
13003TIP3    H160500   2.764   6.713   5.024 -0.8877 -0.4044  0.9592
13003TIP3    H260501   2.821   6.599   5.107  2.1412 -1.0683 -1.8947
13004TIP3   OH260502   6.360   2.748   4.380 -1.1457 -0.2167 -0.6387
13004TIP3    H160503   6.367   2.784   4.292 -0.5506 -0.0763 -0.5376
13004TIP3    H260504   6.385   2.821   4.437 -1.5889 -0.2885 -0.3534
13005TIP3   OH260505   0.877   0.939  12.602 -0.2133 -0.2578  0.1659
13005TIP3    H160506   0.957   0.903  12.564 -0.2113 -1.4309  1.2778
13005TIP3    H260507   0.812   0.931  12.533 -0.1155 -2.0253  0.2764
13006TIP3   OH260508   4.351   3.833   0.259 -0.2756  0.2849 -0.9336
13006TIP3    H160509   4.389   3.916   0.230  0.1564 -0.5543 -2.8335
13006TIP3    H260510   4.290   3.810   0.190 -1.2425 -0.4209  0.1506
13007TIP3   OH260511   2.681   3.011  13.368  0.4051 -0.9294  0.4008
13007TIP3    H160512   2.732   3.061  13.432  0.4139 -1.1360  0.5522
13007TIP3    H260513   2.637   2.943  13.418  1.5412 -1.9819 -0.0191
13008TIP3   OH260514   1.895   6.459  17.062 -0.2276  0.0642  0.0573
13008TIP3    H160515   1.943   6.450  17.145  2.3350 -1.2796 -1.4952
13008TIP3    H260516   1.860   6.548  17.064  0.6853  0.4077  2.1233
13009TIP3   OH260517   4.033   3.446  10.967  0.0509  0.0687  0.4664
13009TIP3    H160518   4.056   3.431  10.875 -1.4719  1.2396 -0.1305
13009TIP3    H260519   4.080   3.525  10.992  1.2653 -0.8147  1.0134
13010TIP3   OH260520   4.750   6.778  11.834  0.0384 -0.7486 -0.1069
13010TIP3    H160521   4.826   6.801  11.780 -0.7746  0.0595 -0.9187
13010TIP3    H260522   4.687   6.742  11.772 -0.8631  0.0897  0.3146
13011TIP3   OH260523   4.248   4.627  16.054 -0.4198  0.7605  0.2522
13011TIP3    H160524   4.211   4.542  16.077  1.5000 -0.2824 -0.4012
13011TIP3    H260525   4.173   4.679  16.026 -1.5003 -1.0797 -0.3716
13012TIP3   OH260526   6.280   6.531   2.526 -0.2185 -0.2620 -0.1530
13012TIP3    H160527   6.240   6.448   2.550  1.1026 -0.9771 -0.3565
13012TIP3    H260528   6.342   6.549   2.597 -0.6785  0.6747  0.0189
13013TIP3   OH260529   4.480   1.251  11.274  0.2700 -0.1746 -0.3629
13013TIP3    H160530   4.389   1.282  11.268  0.4286  0.8510  1.8619
13013TIP3    H260531   4.533   1.331  11.265  0.8263 -0.3379  1.2183
13014TIP3   OH260532   1.014   0.617   5.462 -0.1853  1.3095 -0.1873
13014TIP3    H160533   1.008   0.702   5.506  0.6428  1.8579 -1.1079
13014TIP3    H260534   1.072   0.633   5.387 -0.7715  0.1525 -0.8971
13015TIP3   OH260535   3.002   5.126   2.553 -0.0235  0.0865  0.0594
13015TIP3    H160536   3.049   5.043   2.559  0.3814  0.1869 -1.5172
13015TIP3    H260537   2.929   5.117   2.614  0.1865 -1.3148  0.1120
13016TIP3   OH260538   0.590   5.820  10.798  0.3693  0.3752  0.0943
13016TIP3    H160539   0.499   5.797  10.779 -0.0522  1.3634  0.8568
13016TIP3    H260540   0.586   5.912  10.826  1.8461  0.9819 -1.6347
13017TIP3   OH260541   5.952   4.849  14.987  0.1903  0.4424  0.3621
13017TIP3    H160542   5.865   4.877  14.960  0.2201 -0.6396 -0.8611
13017TIP3    H260543   6.006   4.928  14.980 -0.4007  0.8023 -0.1349
13018TIP3   OH260544   3.242   5.464  12.008  0.2368 -0.0416  0.0975
13018TIP3    H160545   3.217   5.454  12.099  2.0792  1.9031  0.8632
13018TIP3    H260546   3.198   5.544  11.980 -0.3661 -0.6596 -0.7502
13019TIP3   OH260547   3.561   1.273  13.242  0.1009 -0.0899 -0.4298
13019TIP3    H160548   3.479   1.272  13.290  1.7955  0.6585  2.6145
13019TIP3    H260549   3.570   1.185  13.207 -1.8541 -0.2463 -0.6011
13020TIP3   OH260550   3.210   1.270   6.300 -0.1467 -0.0289 -0.0926
13020TIP3    H160551   3.246   1.280   6.389 -0.4609  2.5477 -0.2166
13020TIP3    H260552   3.170   1.184   6.301 -1.4378  0.5348  2.7755
13021TIP3   OH260553   3.435   1.207   4.455 -0.4487 -0.8703  0.1155
13021TIP3    H160554   3.371   1.199   4.526  0.2982 -0.1491  0.8857
13021TIP3    H260555   3.425   1.297   4.424 -1.9951 -1.7090 -1.8999
13022TIP3   OH260556   4.993   3.902   2.850  0.3777 -0.2146 -0.1478
13022TIP3    H160557   4.901   3.904   2.824  0.1375  1.2886  0.7615
13022TIP3    H260558   4.996   3.951   2.932  1.7929 -1.3288  0.4822
13023TIP3   OH260559   5.205   2.950   3.026 -0.0241 -0.0893 -0.2020
13023TIP3    H160560   5.252   3.019   2.979 -2.1514  0.0443 -2.2382
13023TIP3    H260561   5.114   2.961   2.999 -0.8117 -1.9842  1.5852
13024TIP3   OH260562   3.890   1.571   6.321 -0.1942  0.2874 -0.2939
13024TIP3    H160563   3.978   1.579   6.284 -0.7314 -2.6145 -2.3774
13024TIP3    H260564   3.898   1.502   6.387 -0.5938  1.0222  0.5243
13025TIP3   OH260565   3.633   0.299   6.449  0.1281  1.0800  0.4084
13025TIP3    H160566   3.611   0.366   6.385 -0.2589  0.9353  0.3932
13025TIP3    H260567   3.604   0.217   6.410  0.7715  0.8758  0.3480
13026TIP3   OH260568   3.616   3.306  11.456 -0.1774 -0.2671 -0.5114
13026TIP3    H160569   3.620   3.260  11.372  1.4504  1.0941 -1.2064
13026TIP3    H260570   3.556   3.379  11.440 -0.6634 -0.5939 -0.1911
13027TIP3   OH260571   2.188   3.092  16.471  0.2215 -0.3797  0.7366
13027TIP3    H160572   2.127   3.100  16.545  0.5077 -0.0235  0.9374
13027TIP3    H260573   2.132   3.074  16.396 -0.1383 -0.0228  0.9165
13028TIP3   OH260574   4.665   3.242  14.241 -0.4110 -0.3618 -0.0536
13028TIP3    H160575   4.688   3.224  14.150  0.6295  0.8395 -0.0327
13028TIP3    H260576   4.706   3.326  14.261 -1.0828 -0.3459  1.3635
13029TIP3   OH260577   6.744   6.212  15.626 -0.3385 -0.3326 -0.3092
13029TIP3    H160578   6.839   6.217  15.624 -0.2417 -0.4606  1.8715
13029TIP3    H260579   6.716   6.233  15.537  1.6559  1.1868 -0.6163
13030TIP3   OH260580   0.774   2.840  12.938  0.4121 -0.6754 -0.3119
13030TIP3    H160581   0.764   2.880  12.851  0.4207  1.1018  0.4877
13030TIP3    H260582   0.684   2.832  12.971  0.5546  0.9446  0.5150
13031TIP3   OH260583   2.638   4.740   0.545  0.6752 -0.2343  0.3381
13031TIP3    H160584   2.686   4.737   0.463  1.1508  1.0402  0.5641
13031TIP3    H260585   2.705   4.752   0.613  0.2419 -0.7356  0.8640
13032TIP3   OH260586   5.714   2.845   2.465  0.1118  0.1269 -0.3950
13032TIP3    H160587   5.708   2.931   2.506 -0.7902 -0.3721  0.5299
13032TIP3    H260588   5.634   2.800   2.491  1.2266 -1.5096  0.2904
13033TIP3   OH260589   6.419   3.412   0.952 -0.4989  0.4057 -0.0090
13033TIP3    H160590   6.503   3.393   0.911 -0.6794 -0.1320 -0.1393
13033TIP3    H260591   6.377   3.326   0.963 -0.3967  0.5226  1.4324
13034TIP3   OH260592   5.043   5.064  12.502  0.4763 -0.0014 -0.4888
13034TIP3    H160593   5.068   5.149  12.463 -1.4842  0.6723 -0.3025
13034TIP3    H260594   4.989   5.022  12.435 -1.2634  0.3046  0.6930
13035TIP3   OH260595   1.110   1.555  12.930 -0.8243 -0.1087  0.0715
13035TIP3    H160596   1.045   1.492  12.963  0.6341 -1.1932  0.9164
13035TIP3    H260597   1.120   1.618  13.000 -0.8444 -0.0264  0.0006
13036TIP3   OH260598   2.086   4.726  10.441  0.3345 -0.1963  0.3762
13036TIP3    H160599   2.006   4.773  10.418 -1.3460 -1.4725  3.3435
13036TIP3    H260600   2.157   4.780  10.407 -1.7838  0.5343 -3.0587
13037TIP3   OH260601   4.950   1.804   6.140  0.0122 -0.6853 -0.1715
13037TIP3    H160602   4.903   1.873   6.187  1.7646  1.4840 -1.4607
13037TIP3    H260603   4.900   1.792   6.059  0.2064 -0.2547 -0.3580
13038TIP3   OH260604   1.463   1.605   0.767  0.2200  0.2816 -0.5299
13038TIP3    H160605   1.388   1.619   0.710 -0.7771  0.7243  0.8623
13038TIP3    H260606   1.515   1.538   0.722 -0.8619  0.1675 -1.6417
13039TIP3   OH260607   5.917   3.135  12.795  0.0745  0.4591 -0.0648
13039TIP3    H160608   6.005   3.098  12.790 -0.2165 -0.1888 -0.4384
13039TIP3    H260609   5.859   3.063  12.768 -0.8456 -0.1563  3.2926
13040TIP3   OH260610   1.405   4.896  11.103  0.0044  0.1109 -0.7027
13040TIP3    H160611   1.309   4.898  11.093 -0.0928 -0.4104  0.0870
13040TIP3    H260612   1.428   4.803  11.101  0.3472  0.1632  0.3722
13041TIP3   OH260613   2.271   4.657   0.696  0.5155 -0.5239 -0.1636
13041TIP3    H160614   2.226   4.581   0.658 -0.8663  0.1632  0.0896
13041TIP3    H260615   2.208   4.695   0.756  2.0329 -0.4878  1.4319
13042TIP3   OH260616   6.461   1.088   0.794 -0.5709 -0.6307  0.4462
13042TIP3    H160617   6.373   1.112   0.766 -0.5095 -0.9335 -0.0090
13042TIP3    H260618   6.518   1.118   0.724 -0.4216 -1.4285  0.2214
13043TIP3   OH260619   1.291   6.786  13.143 -0.2442 -0.8488 -0.3581
13043TIP3    H160620   1.265   6.755  13.057 -1.1165 -0.1165 -0.3690
13043TIP3    H260621   1.218   6.763  13.200 -0.5674  0.4524 -0.2169
13044TIP3   OH260622   4.655   3.411   0.684  0.0727  0.1972 -0.0269
13044TIP3    H160623   4.722   3.360   0.730 -0.5701 -0.3909  0.2684
13044TIP3    H260624   4.642   3.488   0.739  2.3193  1.5984 -1.3661
13045TIP3   OH260625   5.846   4.291  12.143 -0.3317  0.2455 -0.4831
13045TIP3    H160626   5.922   4.232  12.144 -0.1935  0.4304  1.2674
13045TIP3    H260627   5.870   4.359  12.080  0.3847 -0.4505 -0.9717
13046TIP3   OH260628   5.040   5.680  12.727 -0.1376 -0.2034  1.1053
13046TIP3    H160629   5.112   5.631  12.766 -1.3357 -0.7360  2.7019
13046TIP3    H260630   5.079   5.725  12.652  1.3844 -2.1207  0.7164
13047TIP3   OH260631   6.511   0.543  15.169  0.6551  0.4745 -0.0386
13047TIP3    H160632   6.596   0.563  15.129  0.5269 -0.6578 -0.9072
13047TIP3    H260633   6.525   0.461  15.215 -0.5719 -0.9739 -2.1712
13048TIP3   OH260634   1.781   2.203  12.231  0.0825  0.3391  0.0088
13048TIP3    H160635   1.760   2.297  12.225 -0.0971  0.2266 -1.2195
13048TIP3    H260636   1.752   2.178  12.319  1.2521  1.7067  0.7999
13049TIP3   OH260637   1.968   0.378   6.304  0.0190 -0.2767  0.0182
13049TIP3    H160638   2.060   0.393   6.327  0.0822 -0.1009 -0.3331
13049TIP3    H260639   1.964   0.397   6.210 -0.4552  0.0813  0.1087
13050TIP3   OH260640   5.591   6.664  16.439 -0.4938 -0.4181  0.3817
13050TIP3    H160641   5.593   6.755  16.411  0.4736 -0.3626  0.6004
13050TIP3    H260642   5.524   6.623  16.383 -1.8806  0.6998  1.1899
13051TIP3   OH260643   2.743   5.345   2.619  0.1037  0.0260  0.0601
13051TIP3    H160644   2.695   5.425   2.600  1.2822  0.5552 -0.7465
13051TIP3    H260645   2.835   5.372   2.624  0.3184 -0.9112  1.8817
13052TIP3   OH260646   1.241   6.109  13.563  0.3858  0.3895 -0.3625
13052TIP3    H160647   1.217   6.086  13.653  0.3370  1.2611 -0.1542
13052TIP3    H260648   1.162   6.091  13.512  0.8661 -1.5223 -0.4842
13053TIP3   OH260649   4.487   0.191   2.524  0.6820  0.4286  0.1700
13053TIP3    H160650   4.429   0.266   2.535 -1.3622 -0.7490 -2.1396
13053TIP3    H260651   4.555   0.223   2.463  1.1682  1.0948  1.0493
13054TIP3   OH260652   2.073   3.710  11.183 -0.6296 -0.1445 -0.4030
13054TIP3    H160653   2.154   3.708  11.132  1.0823 -0.2884  2.2581
13054TIP3    H260654   2.041   3.799  11.174  1.7515  0.9588  1.3824
13055TIP3   OH260655   2.642   6.201   4.999 -0.0448  0.5693 -0.0864
13055TIP3    H160656   2.606   6.225   4.913 -1.1483 -1.0702 -0.1189
13055TIP3    H260657   2.569   6.213   5.060  0.3664  0.5299  0.4127
13056TIP3   OH260658   4.766   4.243   2.115  0.1228  0.2023  0.4115
13056TIP3    H160659   4.798   4.196   2.037 -2.1234 -0.8654  0.1035
13056TIP3    H260660   4.763   4.176   2.183  0.5879  0.7861  1.0087
13057TIP3   OH260661   3.372   0.406  16.712  0.3211  0.9057  0.4163
13057TIP3    H160662   3.387   0.416  16.806  2.7133  0.2543  0.1244
13057TIP3    H260663   3.431   0.470  16.672 -1.2634  1.7337 -0.6353
13058TIP3   OH260664   5.298   4.081   3.630  0.0569  0.1870 -0.0697
13058TIP3    H160665   5.223   4.055   3.577  0.1201  1.6711 -0.9251
13058TIP3    H260666   5.308   4.175   3.613  1.1754  0.3173  1.2040
13059TIP3   OH260667   1.515   4.197  12.202  0.2582 -0.6168 -0.1856
13059TIP3    H160668   1.514   4.196  12.106  0.9676 -1.2123 -0.2001
13059TIP3    H260669   1.433   4.239  12.227  0.0353 -0.5199 -1.0551
13060TIP3   OH260670   2.551   1.542  16.347  0.5573  0.0249  0.1766
13060TIP3    H160671   2.561   1.447  16.347  1.2605  0.0972  0.1166
13060TIP3    H260672   2.543   1.565  16.255  0.2891  0.0102  0.1982
13061TIP3   OH260673   0.812   2.462  14.896 -0.6326 -0.1271  1.0959
13061TIP3    H160674   0.758   2.499  14.966 -0.7433  3.4431 -0.7502
13061TIP3    H260675   0.899   2.501  14.909 -0.6505  0.5575 -0.7121
13062TIP3   OH260676   6.708   1.406   2.001 -0.3177  0.6196  0.0551
13062TIP3    H160677   6.801   1.385   1.991 -0.4245  0.8915 -1.5924
13062TIP3    H260678   6.707   1.476   2.067  0.5907  0.2136  0.5110
13063TIP3   OH260679   2.473   4.095   0.875  0.4271  0.5956 -0.1513
13063TIP3    H160680   2.445   4.004   0.869 -0.0757  0.8505 -1.8796
13063TIP3    H260681   2.498   4.118   0.786  0.2964  2.2295  0.2278
13064TIP3   OH260682   6.597   5.983   2.468 -0.3716 -0.0402  0.3140
13064TIP3    H160683   6.569   5.899   2.432  0.4121 -0.7456  1.3315
13064TIP3    H260684   6.532   6.046   2.435 -2.0467 -1.3323  1.0592
13065TIP3   OH260685   6.237   4.232  13.674 -0.0530  0.1611 -0.1437
13065TIP3    H160686   6.308   4.256  13.733  0.0211  1.6625 -0.8208
13065TIP3    H260687   6.163   4.212  13.731  0.6333 -0.4933  0.5275
13066TIP3   OH260688   4.604   1.946  11.325 -0.6707 -0.2462  0.5597
13066TIP3    H160689   4.540   1.901  11.269  1.6231 -1.2860 -1.3300
13066TIP3    H260690   4.634   2.020  11.271 -0.4314  0.3633  1.5205
13067TIP3   OH260691   3.601   4.929  13.262  0.0996 -0.3915  0.0476
13067TIP3    H160692   3.545   4.920  13.185 -0.8450 -2.1955  0.9144
13067TIP3    H260693   3.564   4.867  13.326  1.8909 -0.1677  1.3357
13068TIP3   OH260694   4.682   6.344   5.781 -0.1491 -0.4402 -0.0840
13068TIP3    H160695   4.772   6.375   5.791 -0.5702  0.7502  0.0945
13068TIP3    H260696   4.628   6.418   5.807 -1.1865 -0.8691 -0.9619
13069TIP3   OH260697   5.105   3.731   3.597 -0.2145  0.4980  0.5212
13069TIP3    H160698   5.162   3.668   3.641 -0.8884 -0.2294  0.3723
13069TIP3    H260699   5.163   3.778   3.537  0.2172 -0.2974  0.3026
13070TIP3   OH260700   3.819   5.439  12.062 -0.0918  0.3235 -0.2958
13070TIP3    H160701   3.734   5.427  12.105 -0.7060  0.2145 -1.5379
13070TIP3    H260702   3.797   5.466  11.973  1.2057  2.9445  0.1462
13071TIP3   OH260703   0.591   3.921   4.745 -0.0108  0.0272  0.4328
13071TIP3    H160704   0.656   3.868   4.700 -1.8788 -1.5523 -0.4549
13071TIP3    H260705   0.613   3.912   4.838  1.0941 -0.4115  0.1328
13072TIP3   OH260706   0.720   3.180  16.571  0.1944 -0.1312 -0.3457
13072TIP3    H160707   0.816   3.170  16.569  0.2021 -0.5679  1.3759
13072TIP3    H260708   0.700   3.232  16.493  2.0307  1.4802  0.1936
13073TIP3   OH260709   5.406   0.949  15.432  0.7507  0.5525  0.2421
13073TIP3    H160710   5.338   0.882  15.423  1.3081 -0.1060  0.7744
13073TIP3    H260711   5.411   0.989  15.346 -1.1454  1.4488  0.5256
13074TIP3   OH260712   4.218   3.420  15.238 -0.0510 -0.2449 -0.1554
13074TIP3    H160713   4.213   3.432  15.144 -0.9820 -0.5657 -0.1481
13074TIP3    H260714   4.181   3.500  15.275 -0.8559 -0.6420 -0.0778
13075TIP3   OH260715   3.954   6.544   1.819 -0.3925  0.1982  0.2185
13075TIP3    H160716   3.944   6.449   1.828 -0.9454  0.5515  4.1695
13075TIP3    H260717   3.881   6.570   1.763 -0.4974 -1.6440 -0.5338
13076TIP3   OH260718   2.700   5.451   4.906  0.1301  0.1596  0.1333
13076TIP3    H160719   2.652   5.473   4.986 -0.2655  1.6405 -0.4917
13076TIP3    H260720   2.788   5.427   4.936 -0.3566 -0.4450  1.0949
13077TIP3   OH260721   2.458   0.527  14.515 -0.1398 -0.5603 -1.1529
13077TIP3    H160722   2.434   0.610  14.555  3.0115  1.1211 -2.5857
13077TIP3    H260723   2.445   0.462  14.584  0.2804  1.5376  0.9718
13078TIP3   OH260724   4.159   0.462  16.538  0.1580  0.6080 -0.7554
13078TIP3    H160725   4.212   0.382  16.535 -1.4152 -0.4939 -0.2523
13078TIP3    H260726   4.099   0.452  16.463  0.0290  1.3749 -0.7502
13079TIP3   OH260727   4.979   3.127  14.466 -0.0686  0.4961  0.7610
13079TIP3    H160728   4.996   3.170  14.550  1.2732 -0.2594  0.8890
13079TIP3    H260729   4.945   3.041  14.489 -1.1608  0.8517  0.5135
13080TIP3   OH260730   2.424   5.540   1.110  0.0429 -0.2450 -0.4280
13080TIP3    H160731   2.496   5.585   1.064  0.6992 -1.1061 -0.2629
13080TIP3    H260732   2.463   5.511   1.192 -0.6248 -0.3461 -0.1448
13081TIP3   OH260733   6.447   5.972  14.086  0.1879 -0.6988  0.3715
13081TIP3    H160734   6.395   5.995  14.009 -1.1564  0.1797  1.5073
13081TIP3    H260735   6.433   5.878  14.097  1.1470 -1.0104 -0.9971
13082TIP3   OH260736   0.540   2.521   2.778  0.3870 -0.5981 -0.1335
13082TIP3    H160737   0.479   2.568   2.835  1.9166  2.1495 -0.6885
13082TIP3    H260738   0.488   2.499   2.701 -0.2661  0.5407 -0.0318
13083TIP3   OH260739   3.526   6.654   3.371 -0.4170  0.4066 -0.0670
13083TIP3    H160740   3.550   6.567   3.402  1.6394  0.7827 -0.5294
13083TIP3    H260741   3.485   6.696   3.446  1.3740  0.1118  1.0948
13084TIP3   OH260742   2.757   5.977   4.506  0.1199  0.3425 -0.2792
13084TIP3    H160743   2.793   6.027   4.579  0.0630  0.0813 -0.0716
13084TIP3    H260744   2.830   5.926   4.472 -0.1527 -0.5698  0.4615
13085TIP3   OH260745   5.561   0.645  10.371 -1.5241 -0.5771  0.0812
13085TIP3    H160746   5.507   0.593  10.311 -0.9775 -1.9576  0.7611
13085TIP3    H260747   5.517   0.638  10.455 -0.4928 -1.4413  0.5686
13086TIP3   OH260748   1.222   5.577  12.101 -0.2538 -0.1411  0.2167
13086TIP3    H160749   1.238   5.523  12.023 -2.5500 -1.1747  0.4315
13086TIP3    H260750   1.224   5.667  12.069 -0.4285 -0.5199 -0.8822
13087TIP3   OH260751   3.995   5.220  12.491  0.0841  0.2100 -0.3534
13087TIP3    H160752   3.927   5.157  12.514  0.2622  0.3324  0.5109
13087TIP3    H260753   4.054   5.222  12.567  0.7377  0.5260 -0.8603
13088TIP3   OH260754   2.559   0.638  15.137 -0.0905  0.1089 -0.1965
13088TIP3    H160755   2.482   0.596  15.172  0.7874 -1.7023 -0.4033
13088TIP3    H260756   2.554   0.624  15.042  1.2789 -1.3962 -0.0636
13089TIP3   OH260757   2.968   4.640  16.237  0.1929 -0.0407 -0.8281
13089TIP3    H160758   2.888   4.602  16.200  0.1744 -0.5673 -0.2552
13089TIP3    H260759   3.013   4.678  16.161 -1.1114  1.2162 -0.9961
13090TIP3   OH260760   5.886   0.496  13.765  0.1646 -0.1624 -0.4634
13090TIP3    H160761   5.970   0.513  13.807 -0.2941  0.4645  0.2009
13090TIP3    H260762   5.845   0.582  13.757 -2.1549 -0.8760  2.8759
13091TIP3   OH260763   2.750   4.197  13.868 -0.0018  0.1515 -0.8856
13091TIP3    H160764   2.828   4.241  13.902  0.3755  0.3459 -1.9983
13091TIP3    H260765   2.781   4.111  13.840 -0.6588 -0.6963  0.9150
13092TIP3   OH260766   3.792   3.121  15.875 -0.2508 -0.1793 -0.1479
13092TIP3    H160767   3.872   3.140  15.825  1.1115  0.3095  2.1674
13092TIP3    H260768   3.823   3.074  15.952 -2.2967 -0.6197  0.4242
13093TIP3   OH260769   3.252   4.612  16.613 -0.2907 -0.5536  0.2224
13093TIP3    H160770   3.163   4.628  16.580  0.1469  0.8212 -0.3455
13093TIP3    H260771   3.271   4.689  16.667  0.4923 -0.9216  0.4744
13094TIP3   OH260772   5.928   1.588  12.842  0.0754 -0.4779  0.1640
13094TIP3    H160773   6.020   1.563  12.854  0.2567 -0.2532 -0.7886
13094TIP3    H260774   5.923   1.677  12.877  0.7394  0.3914 -1.8831
13095TIP3   OH260775   2.441   2.123   3.123  0.6664  0.6125  0.1941
13095TIP3    H160776   2.483   2.077   3.051 -0.4580  1.0338 -0.7579
13095TIP3    H260777   2.357   2.078   3.135  0.3164  1.3110  0.4173
13096TIP3   OH260778   0.444   5.704   2.554 -0.1705 -0.3138  0.5204
13096TIP3    H160779   0.401   5.788   2.569  0.5932  0.1002  0.4556
13096TIP3    H260780   0.472   5.675   2.641 -0.6195 -0.6049  0.5688
13097TIP3   OH260781   4.364   2.392   4.528  0.3390  0.5187 -0.0550
13097TIP3    H160782   4.279   2.389   4.572 -0.0229  2.3067 -0.6125
13097TIP3    H260783   4.427   2.380   4.598 -0.3561 -0.5174  0.4067
13098TIP3   OH260784   4.829   0.999   1.245  0.1516 -0.0809  0.2981
13098TIP3    H160785   4.755   1.047   1.211  1.5007  1.7167 -0.1545
13098TIP3    H260786   4.831   0.918   1.194 -1.5717 -0.2174  0.4354
13099TIP3   OH260787   3.954   5.721   1.113 -0.1909  0.6033  0.2594
13099TIP3    H160788   3.981   5.812   1.127  0.7674  0.6233 -1.6312
13099TIP3    H260789   4.030   5.669   1.139 -0.2128  0.4110 -0.0594
13100TIP3   OH260790   4.183   3.945  13.730 -0.3244 -0.0052 -0.1170
13100TIP3    H160791   4.214   3.855  13.729  0.2238  0.1805  0.4366
13100TIP3    H260792   4.190   3.973  13.821 -1.8567  0.1300 -0.0138
13101TIP3   OH260793   2.285   0.622   1.060  0.0435 -0.4442 -0.5882
13101TIP3    H160794   2.370   0.666   1.066  0.6163 -1.7027  1.0711
13101TIP3    H260795   2.247   0.631   1.147 -0.9739 -0.9648 -0.9662
13102TIP3   OH260796   3.102   5.208  14.692 -0.1017 -0.0381 -0.8317
13102TIP3    H160797   3.064   5.296  14.684  1.0500  0.4910 -0.5355
13102TIP3    H260798   3.192   5.218  14.662  0.6587 -0.6576  1.1310
13103TIP3   OH260799   4.419   2.961  11.706  0.0455 -0.1484 -0.0066
13103TIP3    H160800   4.473   2.931  11.634  1.8798  1.5994  0.6038
13103TIP3    H260801   4.471   2.942  11.784 -1.7829 -1.7411  0.8672
13104TIP3   OH260802   2.315   1.849  15.644  0.4442  0.5503 -0.8731
13104TIP3    H160803   2.368   1.923  15.675  0.9319 -0.2855  0.2868
13104TIP3    H260804   2.228   1.865  15.681  0.3853  0.8780 -1.1486
13105TIP3   OH260805   6.162   0.435   3.344  0.0947  0.0929 -0.2333
13105TIP3    H160806   6.211   0.514   3.367 -0.0250  0.9464 -2.8225
13105TIP3    H260807   6.180   0.420   3.252 -2.9135 -0.7192 -0.7518
13106TIP3   OH260808   2.657   5.713  13.618 -0.7009 -0.1796 -0.2061
13106TIP3    H160809   2.703   5.780  13.566  1.4939  0.4869  2.4366
13106TIP3    H260810   2.705   5.632  13.600 -0.2468 -0.0461  0.4082
13107TIP3   OH260811   4.634   2.112   2.656  0.5894  0.1875  0.2965
13107TIP3    H160812   4.676   2.187   2.698 -0.1053  0.7897 -0.0788
13107TIP3    H260813   4.542   2.137   2.649  0.5955 -0.1441 -1.0419
13108TIP3   OH260814   5.406   5.930  15.930 -0.4237  0.3928 -0.3900
13108TIP3    H160815   5.487   5.965  15.894 -0.2886  1.1302  0.5947
13108TIP3    H260816   5.378   5.996  15.994 -2.1345  0.4513 -1.1814
13109TIP3   OH260817   0.690   5.345  13.475 -0.7778 -0.3572 -0.3126
13109TIP3    H160818   0.776   5.336  13.516 -0.7818 -2.3013 -0.6633
13109TIP3    H260819   0.648   5.260  13.489 -2.7422  0.6435  0.0534
13110TIP3   OH260820   6.103   1.212   6.055  0.2217  0.2259  0.4497
13110TIP3    H160821   6.139   1.218   6.144 -1.3855  1.6429  1.0269
13110TIP3    H260822   6.009   1.198   6.068  0.1336 -0.6162 -1.0428
13111TIP3   OH260823   5.269   1.173  13.538 -0.5118 -0.4470  0.0203
13111TIP3    H160824   5.213   1.249  13.523  0.9705  0.3260 -1.6767
13111TIP3    H260825   5.228   1.103  13.486 -0.3275 -0.0817 -0.6207
13112TIP3   OH260826   3.319   0.903  12.931  0.5289  0.0069 -0.0080
13112TIP3    H160827   3.398   0.849  12.941  0.9389  0.6727  0.3378
13112TIP3    H260828   3.248   0.839  12.929  0.7498 -0.4083  3.2173
13113TIP3   OH260829   6.555   3.927   3.960  0.0980  0.2380  0.5010
13113TIP3    H160830   6.589   3.993   3.900  0.3280 -0.7823 -0.5346
13113TIP3    H260831   6.614   3.852   3.948 -1.1989 -0.7794  0.3084
13114TIP3   OH260832   6.779   1.821  17.144 -0.2466  0.4172  0.7570
13114TIP3    H160833   6.692   1.822  17.183 -0.0930 -1.0694  1.1879
13114TIP3    H260834   6.774   1.881  17.070 -1.4480  0.8257  1.1673
13115TIP3   OH260835   4.242   5.978  13.697 -0.1306  0.7435  0.1011
13115TIP3    H160836   4.207   6.055  13.742 -0.4969  3.2669 -4.1880
13115TIP3    H260837   4.324   5.960  13.742 -1.0323  2.3251  2.5286
13116TIP3   OH260838   4.180   6.791  14.686  0.2591 -0.3920  0.0319
13116TIP3    H160839   4.231   6.865  14.653 -1.1047  0.5311 -0.0386
13116TIP3    H260840   4.226   6.714  14.652  1.3060  0.4321 -0.4598
13117TIP3   OH260841   1.521   4.623  16.368 -0.1802  0.2504 -0.7496
13117TIP3    H160842   1.548   4.702  16.322  1.2044 -0.1706 -0.6890
13117TIP3    H260843   1.522   4.555  16.301 -0.6897  0.1417 -0.6510
13118TIP3   OH260844   4.690   6.103  11.517 -0.4617 -0.4891 -0.3838
13118TIP3    H160845   4.681   6.142  11.430  2.8049 -0.6172 -0.8483
13118TIP3    H260846   4.775   6.059  11.515  0.0423  0.1857  3.1465
13119TIP3   OH260847   2.983   2.089  13.632  0.1540  0.6264 -0.4497
13119TIP3    H160848   2.980   2.000  13.667 -0.6545  0.7446 -0.1887
13119TIP3    H260849   2.891   2.116  13.629  0.3391  1.1902 -1.2050
13120TIP3   OH260850   5.571   4.921  12.456 -0.2229  0.2169  0.6421
13120TIP3    H160851   5.575   4.959  12.544 -0.1807  0.5203  0.5120
13120TIP3    H260852   5.477   4.915  12.437 -0.2231  0.5969  0.5185
13121TIP3   OH260853   0.535   1.779   4.878 -0.3286  0.9298 -0.0825
13121TIP3    H160854   0.493   1.702   4.918  0.8456  1.4560  2.2570
13121TIP3    H260855   0.598   1.743   4.817  0.1143  0.0061  0.8978
13122TIP3   OH260856   0.378   3.044  12.810  0.4086  0.5179 -0.1803
13122TIP3    H160857   0.345   3.043  12.721 -0.2003  0.6385  0.0408
13122TIP3    H260858   0.470   3.070  12.801  1.0611 -1.9445 -0.9776
13123TIP3   OH260859   2.961   4.675  11.445  0.3133  0.1537  0.2693
13123TIP3    H160860   3.039   4.634  11.481  0.7050  1.3278  0.7844
13123TIP3    H260861   2.948   4.753  11.499 -1.2484 -0.0623  0.2306
13124TIP3   OH260862   0.686   1.326  11.853 -0.3144 -0.1952  0.9669
13124TIP3    H160863   0.628   1.402  11.857  0.4863  0.5978 -1.5295
13124TIP3    H260864   0.708   1.317  11.761  3.9605 -0.1681  1.8793
13125TIP3   OH260865   2.799   0.415   4.696 -0.4020  0.3553 -0.6193
13125TIP3    H160866   2.787   0.476   4.623  0.2542  0.7763 -0.3834
13125TIP3    H260867   2.892   0.424   4.719 -0.7433  0.6909  0.6761
13126TIP3   OH260868   4.936   2.831   3.306  0.2185  0.0296 -0.2924
13126TIP3    H160869   4.939   2.890   3.381 -0.6825 -1.9287  1.3241
13126TIP3    H260870   4.863   2.773   3.324  0.2163 -0.7187 -2.5377
13127TIP3   OH260871   2.098   2.501  15.368 -0.4444  0.6269 -0.0464
13127TIP3    H160872   2.158   2.572  15.394 -1.1248  1.4503 -0.6829
13127TIP3    H260873   2.011   2.535  15.388 -0.9389  0.9685 -2.5724
13128TIP3   OH260874   4.409   5.062  11.451 -0.0433  0.1517 -0.2603
13128TIP3    H160875   4.343   5.083  11.386 -1.3702  0.4780  1.1654
13128TIP3    H260876   4.390   5.120  11.525  0.5263 -1.2068  0.9899
13129TIP3   OH260877   3.578   5.786  15.297  0.1212  0.0169 -0.4783
13129TIP3    H160878   3.635   5.856  15.266 -0.8410  0.3726 -1.4608
13129TIP3    H260879   3.560   5.733  15.219 -0.9474 -0.0468 -0.1997
13130TIP3   OH260880   0.009   0.826  15.632 -0.2852 -0.1612  0.1788
13130TIP3    H160881  -0.043   0.844  15.554 -1.2767 -1.0779  0.6295
13130TIP3    H260882   0.073   0.898  15.634 -0.5764  0.1592 -1.1800
13131TIP3   OH260883   3.921   4.074   5.222  0.1810  0.5225 -0.4783
13131TIP3    H160884   3.948   4.153   5.176  0.5043  0.3488 -0.5881
13131TIP3    H260885   3.998   4.016   5.218 -0.0933  0.1574 -0.5025
13132TIP3   OH260886   6.339   2.462  15.363  1.0862  0.0059 -0.1541
13132TIP3    H160887   6.303   2.536  15.412  0.1088 -0.8884  0.4862
13132TIP3    H260888   6.379   2.406  15.429  0.0923 -1.0168 -0.3949
13133TIP3   OH260889   4.155   1.986   3.783 -0.1101  0.4114  0.0914
13133TIP3    H160890   4.228   2.018   3.730  0.5648 -0.5525  0.4364
13133TIP3    H260891   4.113   1.920   3.728 -1.2082  1.5227 -0.4253
13134TIP3   OH260892   1.700   3.216  10.575 -0.3493 -0.4484 -0.5762
13134TIP3    H160893   1.708   3.225  10.480 -2.3834 -3.5188 -1.1078
13134TIP3    H260894   1.768   3.154  10.600  1.0443  1.3415  0.2299
13135TIP3   OH260895   5.901   4.839   3.540 -0.4481 -0.3297 -0.1011
13135TIP3    H160896   5.808   4.844   3.518 -0.6584 -2.2244  0.2772
13135TIP3    H260897   5.904   4.858   3.634 -0.0326  3.2831 -0.7755
13136TIP3   OH260898   1.855   2.361  13.566 -0.1809  0.0490 -0.0115
13136TIP3    H160899   1.870   2.424  13.495 -0.8511 -0.3662 -0.5265
13136TIP3    H260900   1.841   2.278  13.521 -3.5420  0.2877  0.4093
13137TIP3   OH260901   5.650   0.102  12.642  0.7490 -0.2975 -0.6794
13137TIP3    H160902   5.620   0.191  12.627  0.9388  0.1336  1.4045
13137TIP3    H260903   5.581   0.046  12.607  0.0854  0.6613 -0.8989
13138TIP3   OH260904   0.552   2.556  12.336 -0.1807  0.0826 -0.0935
13138TIP3    H160905   0.482   2.540  12.273 -0.4593  0.3685  0.1388
13138TIP3    H260906   0.632   2.549  12.285 -0.4190  0.6669 -0.5609
13139TIP3   OH260907   6.052   0.902   1.452  0.0194 -0.0445  0.3167
13139TIP3    H160908   6.109   0.979   1.457 -0.4440  0.2792  0.6071
13139TIP3    H260909   5.986   0.925   1.386 -1.9631  1.0345  2.6167
13140TIP3   OH260910   3.221   6.688   6.265 -0.1695  0.7593 -0.5355
13140TIP3    H160911   3.200   6.601   6.300 -0.5030  1.1024  0.1395
13140TIP3    H260912   3.305   6.709   6.305 -1.1236  1.6676  1.0530
13141TIP3   OH260913   5.216   1.088   3.072 -0.5131 -0.2480  0.4700
13141TIP3    H160914   5.272   1.023   3.030 -1.0940 -0.4557  0.0193
13141TIP3    H260915   5.271   1.165   3.080 -0.1469 -0.4639  0.0624
13142TIP3   OH260916   4.471   5.542   6.188  0.1276  0.0617 -0.0038
13142TIP3    H160917   4.397   5.601   6.203 -0.8296 -0.7050 -1.6219
13142TIP3    H260918   4.529   5.591   6.130  0.5554  0.3608  0.6570
13143TIP3   OH260919   1.631   2.434   4.653  0.0929  0.5179  0.1465
13143TIP3    H160920   1.671   2.428   4.566  0.4821  0.6843  0.3141
13143TIP3    H260921   1.556   2.492   4.641 -0.9897 -0.9878 -0.4939
13144TIP3   OH260922   2.054   1.345   0.234 -0.6994  0.3689  0.7084
13144TIP3    H160923   2.136   1.391   0.213  0.3160 -1.3287  0.8734
13144TIP3    H260924   2.008   1.403   0.294  0.9428  0.8065  1.5663
13145TIP3   OH260925   0.764   5.153  15.766  0.3954  0.2791  0.3470
13145TIP3    H160926   0.794   5.085  15.827  0.4955  0.3679  0.3973
13145TIP3    H260927   0.805   5.130  15.682 -1.4033 -1.0350 -0.2043
13146TIP3   OH260928   2.442   5.416  15.984  0.5597  0.2773 -0.2856
13146TIP3    H160929   2.347   5.410  15.988  0.6871 -1.7748  0.4287
13146TIP3    H260930   2.473   5.329  16.009  2.6519  1.1520  0.3271
13147TIP3   OH260931   3.583   4.256  14.241  0.0533  0.1631 -0.0797
13147TIP3    H160932   3.591   4.227  14.332 -2.6397  1.3363  0.5924
13147TIP3    H260933   3.673   4.267  14.211  0.9918 -1.0741  2.1718
13148TIP3   OH260934   1.238   1.661   4.544  0.0637  0.3215  0.1126
13148TIP3    H160935   1.153   1.642   4.506  1.4376 -2.6017 -1.6956
13148TIP3    H260936   1.274   1.732   4.490 -0.5906  0.5170 -0.0681
13149TIP3   OH260937   3.682   4.861  12.038 -0.2130 -0.5372  0.1525
13149TIP3    H160938   3.597   4.894  12.011  0.8950  1.2462 -1.2792
13149TIP3    H260939   3.733   4.940  12.059  1.6359 -1.4753 -0.7276
13150TIP3   OH260940   4.356   6.803  16.637 -0.0479  0.0480 -0.1284
13150TIP3    H160941   4.316   6.745  16.702  0.6346  0.0212  0.2635
13150TIP3    H260942   4.359   6.750  16.557 -2.4290  0.6302 -0.6572
13151TIP3   OH260943   1.296   0.921   3.013  0.5340 -0.1199 -0.0526
13151TIP3    H160944   1.349   0.936   3.091 -0.0583 -0.3799  0.3972
13151TIP3    H260945   1.313   0.997   2.958  0.7022  0.2201  0.4647
13152TIP3   OH260946   4.608   0.402  12.429  0.0148  0.4283  0.0885
13152TIP3    H160947   4.642   0.483  12.392  1.0922 -0.2593 -0.4585
13152TIP3    H260948   4.675   0.337  12.409 -0.8174 -0.5869  0.5683
13153TIP3   OH260949   6.054   5.272   3.727 -0.1757 -0.1092 -0.4411
13153TIP3    H160950   6.146   5.296   3.720  0.2350 -0.3096  3.0674
13153TIP3    H260951   6.010   5.353   3.755 -0.6336 -0.6156  0.3303
13154TIP3   OH260952   1.594   3.093   4.028  0.1062 -0.0133  0.8456
13154TIP3    H160953   1.537   3.031   3.983  3.9486 -2.3598 -0.9974
13154TIP3    H260954   1.582   3.074   4.121 -1.4321 -1.0500  0.4517
13155TIP3   OH260955   3.210   5.874  14.032  0.1504 -0.4728  0.0328
13155TIP3    H160956   3.226   5.781  14.047 -0.4218 -0.7554 -1.0958
13155TIP3    H260957   3.196   5.881  13.938  1.4403  0.9399 -0.0648
13156TIP3   OH260958   3.812   3.720   3.384  0.1639 -0.4346 -0.0259
13156TIP3    H160959   3.882   3.720   3.449  0.3063  0.5591 -0.1696
13156TIP3    H260960   3.748   3.783   3.417  1.1379  1.5527 -1.7776
13157TIP3   OH260961   6.742   2.877  14.042 -0.0284  0.4847 -0.0431
13157TIP3    H160962   6.720   2.969  14.027 -1.2504  0.5140  1.8862
13157TIP3    H260963   6.696   2.830  13.972 -0.7812  1.1891 -0.0313
13158TIP3   OH260964   2.186   4.068  12.284  0.0121  0.6354  0.4958
13158TIP3    H160965   2.152   4.139  12.338 -1.0270 -0.3405  1.1408
13158TIP3    H260966   2.193   3.993  12.344  0.3101 -0.0325 -0.3623
13159TIP3   OH260967   6.530   6.361  10.543  0.0077 -0.1160 -0.2201
13159TIP3    H160968   6.597   6.321  10.599 -0.4454  0.0618  0.4561
13159TIP3    H260969   6.488   6.288  10.499  0.3664 -0.2585 -0.3250
13160TIP3   OH260970   0.733   0.347   0.419  0.1520  0.0054 -0.1734
13160TIP3    H160971   0.639   0.347   0.438 -0.4479 -0.0465 -2.9337
13160TIP3    H260972   0.773   0.302   0.493 -1.7231  2.2158  2.2602
13161TIP3   OH260973   1.513   1.536  12.310 -0.1722  0.1114  1.0372
13161TIP3    H160974   1.548   1.500  12.228 -2.2305  1.8288 -0.6454
13161TIP3    H260975   1.583   1.592  12.343 -0.4364  1.8461 -1.1904
13162TIP3   OH260976   3.186   6.093   4.663 -0.4930 -0.2686  0.3815
13162TIP3    H160977   3.162   6.158   4.598 -1.0673  0.3255  1.1721
13162TIP3    H260978   3.212   6.016   4.613  3.8240  1.7421 -0.7239
13163TIP3   OH260979   3.458   4.010   3.021 -0.5313 -0.0504  0.1639
13163TIP3    H160980   3.445   4.096   3.062 -1.8107  0.5109 -1.3800
13163TIP3    H260981   3.393   4.007   2.951 -0.1966 -2.1097 -0.0789
13164TIP3   OH260982   6.331   6.079   2.938 -0.5274 -0.0336 -0.3978
13164TIP3    H160983   6.292   6.003   2.895 -2.7643  0.0966  1.3364
13164TIP3    H260984   6.261   6.145   2.937  0.3397  0.9152  0.9147
13165TIP3   OH260985   0.266   5.587   4.483  0.3517 -0.9477 -0.1229
13165TIP3    H160986   0.197   5.589   4.550  1.1476 -0.4182  0.6818
13165TIP3    H260987   0.333   5.530   4.519  0.2116 -1.7286 -1.0527
13166TIP3   OH260988   4.331   0.678   4.249 -0.2033 -0.1616 -0.2137
13166TIP3    H160989   4.421   0.696   4.279 -0.2977  0.4075 -0.2576
13166TIP3    H260990   4.290   0.633   4.323 -0.0631  0.1221  0.0401
13167TIP3   OH260991   4.533   0.109   0.617 -0.6625 -0.4866  0.0146
13167TIP3    H160992   4.480   0.182   0.650  1.8656  1.7442 -0.7257
13167TIP3    H260993   4.523   0.041   0.684 -3.6015  0.2312  0.3947
13168TIP3   OH260994   6.055   0.548   0.961 -0.0578 -0.1144 -0.5645
13168TIP3    H160995   6.101   0.620   1.003 -2.0251  0.3907  0.7833
13168TIP3    H260996   6.106   0.470   0.983  0.6994  0.5481  0.0300
13169TIP3   OH260997   1.803   1.793   6.090  0.2842  0.2155 -0.0873
13169TIP3    H160998   1.824   1.730   6.160  0.4513  1.3900  0.9437
13169TIP3    H260999   1.722   1.759   6.051 -0.1233 -0.1524  1.0489
13170TIP3   OH261000   6.121   4.206  12.114  0.4636  0.0736 -0.3425
13170TIP3    H161001   6.105   4.297  12.139  1.6127  0.4665 -1.0111
13170TIP3    H261002   6.174   4.212  12.035  0.4766 -1.1803 -0.4358
13171TIP3   OH261003   4.020   4.115  13.587 -0.0013  0.0106  0.6366
13171TIP3    H161004   4.064   4.036  13.616 -0.1988 -0.5603 -0.5797
13171TIP3    H261005   4.083   4.158  13.529 -0.5079 -0.0944  0.0014
13172TIP3   OH261006   1.956   3.228   3.200 -0.2437  0.0917 -0.2821
13172TIP3    H161007   2.007   3.164   3.249 -2.6266 -0.6033  1.4127
13172TIP3    H261008   1.966   3.309   3.250  0.3261  0.2851 -0.7165
13173TIP3   OH261009   0.576   0.111  12.911 -0.3005 -0.2540  0.0102
13173TIP3    H161010   0.666   0.130  12.937 -0.0505 -1.9767  0.4414
13173TIP3    H261011   0.575   0.127  12.817  0.8005 -1.4743 -0.2250
13174TIP3   OH261012   3.339   4.962   4.756 -0.4281 -0.1284  0.2734
13174TIP3    H161013   3.317   4.909   4.680  0.3862  1.5868 -1.1971
13174TIP3    H261014   3.411   4.915   4.798 -1.5863 -1.6335  0.6195
13175TIP3   OH261015   1.912   1.319  14.321  0.1228 -0.5827  0.0305
13175TIP3    H161016   1.908   1.382  14.392 -0.3489  0.2090 -0.6971
13175TIP3    H261017   1.875   1.364  14.246  0.1142 -1.5984 -0.5905
13176TIP3   OH261018   0.888   4.234   4.858 -0.3662 -0.1861 -0.2273
13176TIP3    H161019   0.934   4.318   4.855  0.1256 -0.4179  0.6726
13176TIP3    H261020   0.806   4.250   4.811 -2.1479  1.9586  3.3505
13177TIP3   OH261021   3.206   0.383  12.088  0.2552  0.8560 -0.3715
13177TIP3    H161022   3.210   0.290  12.111 -2.8846  1.3069  2.4728
13177TIP3    H261023   3.265   0.425  12.150  0.6481  0.8802 -0.7667
13178TIP3   OH261024   5.466   1.694  11.966  0.1204  0.3731  0.1838
13178TIP3    H161025   5.544   1.646  11.939  0.8707  1.4175  0.4713
13178TIP3    H261026   5.415   1.704  11.885 -0.2314 -1.2159  0.1860
13179TIP3   OH261027   0.291   1.635   4.205  0.8540 -0.3075 -0.3621
13179TIP3    H161028   0.384   1.655   4.197  0.8357 -0.5413 -1.3299
13179TIP3    H261029   0.247   1.705   4.157  0.5395 -0.2743 -0.0265
13180TIP3   OH261030   6.702   2.788  11.488 -0.5197  0.0728 -0.0936
13180TIP3    H161031   6.690   2.714  11.429  0.4169 -0.5573  0.5058
13180TIP3    H261032   6.674   2.755  11.574  1.2080 -0.0224  0.4428
13181TIP3   OH261033   3.939   5.450   4.156 -0.2175 -0.9470  0.2674
13181TIP3    H161034   4.014   5.472   4.101 -0.7151 -0.9892 -0.4381
13181TIP3    H261035   3.871   5.511   4.130  0.6397  1.4484  3.3825
13182TIP3   OH261036   6.320   5.788   6.147 -0.2218 -0.5327 -0.6543
13182TIP3    H161037   6.363   5.860   6.192 -0.2985 -0.6751 -0.3545
13182TIP3    H261038   6.226   5.803   6.160 -0.4467  1.5481 -3.9526
13183TIP3   OH261039   1.004   2.715   1.798 -0.3474  0.2440  0.4370
13183TIP3    H161040   0.946   2.714   1.874  0.4003 -0.3937  1.0040
13183TIP3    H261041   0.952   2.673   1.729 -1.1347  1.0942  0.4993
13184TIP3   OH261042   3.549   0.137  15.628 -0.3291  0.3679 -0.0202
13184TIP3    H161043   3.458   0.138  15.658  0.1536 -0.0588  1.5138
13184TIP3    H261044   3.545   0.164  15.537 -1.7730  2.5463  0.6551
13185TIP3   OH261045   2.466   5.436   1.668 -0.0504  0.0520 -0.5529
13185TIP3    H161046   2.388   5.474   1.709 -0.2511 -0.5390 -0.3796
13185TIP3    H261047   2.431   5.381   1.598  0.2755  0.8437 -1.3503
13186TIP3   OH261048   2.309   6.161  13.891 -0.1908 -0.1200 -0.3206
13186TIP3    H161049   2.329   6.072  13.918  0.4039 -0.2132 -1.0702
13186TIP3    H261050   2.265   6.152  13.807 -1.3482  0.2190  0.2387
13187TIP3   OH261051   0.179   0.651   2.063  0.2405 -0.0711 -0.4946
13187TIP3    H161052   0.094   0.609   2.049  0.1441 -0.6222  1.5630
13187TIP3    H261053   0.161   0.745   2.054 -0.2070 -0.2701 -1.8380
13188TIP3   OH261054   0.623   5.144   2.107  0.4568  0.0275 -0.1573
13188TIP3    H161055   0.698   5.085   2.122  1.5558  1.7374  1.2051
13188TIP3    H261056   0.653   5.229   2.138 -1.1869  1.2990 -1.9406
13189TIP3   OH261057   5.379   2.881  13.523 -0.1744  0.3551 -0.1731
13189TIP3    H161058   5.342   2.827  13.593  1.8898  0.8518  1.3219
13189TIP3    H261059   5.344   2.842  13.443 -2.5693 -0.2301  1.0959
13190TIP3   OH261060   6.165   2.025  13.745  0.0714 -0.5267  0.3631
13190TIP3    H161061   6.088   2.068  13.708  0.9194  1.4425  0.7984
13190TIP3    H261062   6.218   2.002  13.669 -1.2786 -2.6132  0.0147
13191TIP3   OH261063   3.973   0.656   5.480  0.1368  0.5132 -0.0365
13191TIP3    H161064   3.937   0.718   5.417 -2.4804  1.4450  2.2650
13191TIP3    H261065   4.031   0.709   5.535  0.7442  0.1450 -0.3151
13192TIP3   OH261066   6.776   0.356  11.117  0.0388 -0.3426  0.4450
13192TIP3    H161067   6.770   0.347  11.022  0.3943 -1.6927  0.5390
13192TIP3    H261068   6.866   0.384  11.133  0.4442 -1.6034  0.4648
13193TIP3   OH261069   4.800   3.495  14.868 -0.8454  0.3453  0.1590
13193TIP3    H161070   4.753   3.435  14.810  0.7321 -1.4890  0.7099
13193TIP3    H261071   4.861   3.540  14.810 -2.2383  1.6375 -0.3073
13194TIP3   OH261072   0.789   3.262   1.539  0.2860  0.2775  0.4087
13194TIP3    H161073   0.770   3.174   1.571  1.6848 -0.6920 -1.3729
13194TIP3    H261074   0.864   3.291   1.592  1.5904 -0.7087 -0.8547
13195TIP3   OH261075   1.506   3.180  12.946  0.1674  0.3708  0.3440
13195TIP3    H161076   1.430   3.210  12.997  0.9763  0.0235  1.8034
13195TIP3    H261077   1.478   3.098  12.907  0.1818 -0.3626  1.8517
13196TIP3   OH261078   5.188   0.547  12.852  0.2074  0.3648 -0.3339
13196TIP3    H161079   5.206   0.547  12.946 -1.9860  0.2757  0.1351
13196TIP3    H261080   5.271   0.569  12.811  1.2366  0.2514  1.6252
13197TIP3   OH261081   0.266   5.486  13.974  0.1319  0.1313 -0.6901
13197TIP3    H161082   0.276   5.564  13.919 -0.8587  2.2590  2.0454
13197TIP3    H261083   0.181   5.450  13.950  0.5585 -0.0976 -1.9091
13198TIP3   OH261084   1.801   4.747  13.208 -0.0409  0.0926  0.5148
13198TIP3    H161085   1.873   4.735  13.269 -0.0171  0.4450  0.5566
13198TIP3    H261086   1.729   4.781  13.261  0.4024  1.7046  0.1135
13199TIP3   OH261087   2.611   0.053   0.022  0.7409 -0.6292  0.2319
13199TIP3    H161088   2.515   0.052   0.031  0.7906  0.3176  0.8812
13199TIP3    H261089   2.626   0.032  -0.070 -0.0856 -0.9701  0.1637
13200TIP3   OH261090   0.990   2.621  12.904  0.1855  0.0536 -0.3021
13200TIP3    H161091   1.018   2.592  12.991  1.5477  1.0958 -0.3732
13200TIP3    H261092   0.949   2.706  12.919  2.8504  1.5254 -0.9626
13201TIP3   OH261093   5.124   2.019   1.619 -0.3945 -0.1482  0.0536
13201TIP3    H161094   5.091   2.076   1.688 -2.0888 -1.7167  0.5675
13201TIP3    H261095   5.217   2.009   1.639 -0.4559  0.9746  0.9622
13202TIP3   OH261096   5.593   2.551  14.580 -0.1175 -0.0127 -0.0250
13202TIP3    H161097   5.636   2.548  14.495  0.7890  0.7894  0.4000
13202TIP3    H261098   5.639   2.484  14.632  0.2235  0.4302  0.2458
13203TIP3   OH261099   5.648   6.381  11.950  0.3083 -0.3229  0.0603
13203TIP3    H161100   5.738   6.412  11.938  1.0207 -1.9784  1.0503
13203TIP3    H261101   5.619   6.357  11.862  0.2302  1.7900 -0.5174
13204TIP3   OH261102   3.450   4.463   1.964 -0.0540  0.1700 -0.0194
13204TIP3    H161103   3.408   4.383   1.934  0.0365 -0.0379  0.3998
13204TIP3    H261104   3.542   4.453   1.937  0.3064 -0.5898  1.4230
13205TIP3   OH261105   4.229   3.965   3.213 -0.1462  0.3700  0.2427
13205TIP3    H161106   4.145   4.010   3.200  0.1982  0.4438 -1.8115
13205TIP3    H261107   4.278   4.023   3.272 -1.6567  0.1463  1.7688
13206TIP3   OH261108   6.319   2.408   6.005  0.0218 -0.1813  0.5633
13206TIP3    H161109   6.368   2.455   5.937 -0.7920  1.0926  0.8506
13206TIP3    H261110   6.331   2.315   5.982  0.2900  0.2077 -0.9502
13207TIP3   OH261111   1.720   5.259  12.395  0.4790  0.5203  0.7455
13207TIP3    H161112   1.747   5.269  12.304  2.3740  1.6395  1.4268
13207TIP3    H261113   1.738   5.343  12.436 -0.9727  0.2412  2.0281
13208TIP3   OH261114   4.541   1.146  12.962  0.2815 -0.6424 -0.1517
13208TIP3    H161115   4.552   1.224  12.907  0.4154  0.0723  0.8793
13208TIP3    H261116   4.465   1.101  12.925 -0.6181  0.6688  0.0483
13209TIP3   OH261117   0.612   1.534   4.484 -0.3971  0.2681 -0.1023
13209TIP3    H161118   0.569   1.617   4.465 -0.6532  0.3018  0.5905
13209TIP3    H261119   0.540   1.470   4.488 -0.2548  0.1048 -0.1254
13210TIP3   OH261120   6.812   2.232   2.029  0.4172 -0.0128  0.1786
13210TIP3    H161121   6.738   2.179   2.058 -1.0187  2.1861  0.7020
13210TIP3    H261122   6.872   2.233   2.105  0.0002 -0.0845  0.5112
13211TIP3   OH261123   4.409   6.120   4.855 -0.1793  0.1546 -0.3892
13211TIP3    H161124   4.482   6.111   4.915 -0.1967  0.3776 -0.3363
13211TIP3    H261125   4.331   6.118   4.911 -0.0903  3.4103 -0.0796
13212TIP3   OH261126   5.722   3.435  11.153 -0.8658  0.4247  0.7071
13212TIP3    H161127   5.775   3.503  11.195  0.6621 -0.7510  0.7469
13212TIP3    H261128   5.742   3.444  11.060  2.2536 -2.2829  1.0105
13213TIP3   OH261129   1.234   6.564   2.302  0.1933  0.3197  0.7424
13213TIP3    H161130   1.202   6.504   2.235  1.6518 -1.4281  1.5736
13213TIP3    H261131   1.251   6.645   2.254 -0.2168 -0.4239 -0.7179
13214TIP3   OH261132   2.058   5.229  14.310  0.3342 -0.3726  0.3907
13214TIP3    H161133   2.045   5.291  14.239 -2.9407  0.3566  1.5374
13214TIP3    H261134   2.102   5.154  14.269 -0.3572  0.5483 -2.1243
13215TIP3   OH261135   4.149   3.209  16.005 -0.5470  0.3336 -0.7403
13215TIP3    H161136   4.110   3.145  16.065  1.4963  0.2149  0.4931
13215TIP3    H261137   4.170   3.159  15.926 -1.3439  0.0587 -0.7899
13216TIP3   OH261138   6.504   5.201  16.897  0.0282 -0.2162 -0.1445
13216TIP3    H161139   6.586   5.240  16.867  0.7339 -0.7496  1.0604
13216TIP3    H261140   6.495   5.120  16.846  0.5709 -0.4750  0.1671
13217TIP3   OH261141   4.711   4.722   1.725 -0.6660 -0.3874 -0.2808
13217TIP3    H161142   4.729   4.632   1.700 -0.5817 -0.2907 -0.5710
13217TIP3    H261143   4.760   4.736   1.806 -1.7910 -1.0360  0.5304
13218TIP3   OH261144   3.187   4.471   2.899  0.4832  0.2686  0.1564
13218TIP3    H161145   3.240   4.531   2.847 -0.9205  0.7870 -0.6972
13218TIP3    H261146   3.118   4.526   2.937 -1.3683 -0.9298 -1.3911
13219TIP3   OH261147   3.240   2.723  11.078 -0.3808  0.0139 -0.5910
13219TIP3    H161148   3.312   2.665  11.053 -0.4973  0.0687 -1.0533
13219TIP3    H261149   3.282   2.792  11.131 -0.6682 -2.0823  2.4977
13220TIP3   OH261150   2.933   3.952  12.355  0.2272 -0.3046 -0.1160
13220TIP3    H161151   2.972   3.909  12.279 -0.8253 -1.4267 -0.0331
13220TIP3    H261152   2.841   3.926  12.353 -0.5746  2.3939 -0.3890
13221TIP3   OH261153   5.688   4.472   1.715  0.0134  0.1205  0.4223
13221TIP3    H161154   5.760   4.474   1.652  0.1645 -0.0103  0.5903
13221TIP3    H261155   5.610   4.461   1.661  0.2055 -0.7129  0.2989
13222TIP3   OH261156   6.217   1.898   5.837 -0.2516  0.4427  0.1131
13222TIP3    H161157   6.179   1.981   5.809 -0.5602  0.7043  1.2934
13222TIP3    H261158   6.233   1.909   5.930 -0.5399 -0.9163  0.3383
13223TIP3   OH261159   4.846   1.390  15.160  0.9138 -0.3683 -0.3552
13223TIP3    H161160   4.777   1.404  15.225  0.9364 -3.6268  0.4676
13223TIP3    H261161   4.800   1.361  15.081  1.2198 -1.4511 -0.1519
13224TIP3   OH261162   2.711   3.684  17.101 -0.3813 -0.1902 -0.2809
13224TIP3    H161163   2.692   3.735  17.180 -0.8539  0.0499 -0.5479
13224TIP3    H261164   2.626   3.651  17.074 -0.1683 -0.5593 -0.4961
13225TIP3   OH261165   5.399   4.515   4.150 -0.0791  0.0625  0.2496
13225TIP3    H161166   5.372   4.607   4.147 -0.1093  0.0073 -1.4993
13225TIP3    H261167   5.490   4.517   4.179 -0.6469  0.5187  2.0403
13226TIP3   OH261168   2.271   0.483  13.780 -0.0856  0.3965 -0.6684
13226TIP3    H161169   2.257   0.472  13.874 -0.6725 -0.7052 -0.8861
13226TIP3    H261170   2.197   0.439  13.739  0.7684 -0.1183 -1.6760
13227TIP3   OH261171   5.037   0.585   4.798  0.0288 -0.0048  0.4183
13227TIP3    H161172   5.000   0.633   4.872  1.0780  1.0025  0.2987
13227TIP3    H261173   5.031   0.645   4.724  1.8607  0.1875  0.3900
13228TIP3   OH261174   0.255   0.513   0.379 -0.1677  1.2694 -0.3593
13228TIP3    H161175   0.317   0.465   0.325  0.2475 -0.6097  1.7382
13228TIP3    H261176   0.254   0.601   0.340  1.3441  0.4524 -2.3863
13229TIP3   OH261177   5.384   1.496   4.184 -0.0795 -0.1731  0.6068
13229TIP3    H161178   5.324   1.557   4.227 -0.8926 -0.9632  0.6340
13229TIP3    H261179   5.422   1.545   4.112 -0.7598  0.3506  0.5974
13230TIP3   OH261180   5.197   5.321   5.646 -0.2621  0.2294  0.1696
13230TIP3    H161181   5.234   5.409   5.637  1.7950 -0.6332 -0.2082
13230TIP3    H261182   5.170   5.297   5.557  0.7313 -0.1463 -0.0455
13231TIP3   OH261183   5.313   5.192   3.353  0.3971  0.4425  0.1624
13231TIP3    H161184   5.220   5.171   3.363  0.4600  0.1384  0.1084
13231TIP3    H261185   5.330   5.181   3.260  0.4143  0.8008  0.1235
13232TIP3   OH261186   2.765   1.991  16.583  0.0273  0.2631 -0.3207
13232TIP3    H161187   2.730   2.074  16.553 -1.6004  0.1051  1.0685
13232TIP3    H261188   2.706   1.925  16.546 -0.6377 -0.0570  1.2418
13233TIP3   OH261189   5.616   0.722  11.952 -0.2783  0.0184  0.4508
13233TIP3    H161190   5.525   0.703  11.930 -0.3321 -0.1687  0.8416
13233TIP3    H261191   5.614   0.748  12.044 -0.5836  4.5720 -0.7284
13234TIP3   OH261192   1.585   2.723  13.871 -0.2662 -0.1516  0.1567
13234TIP3    H161193   1.530   2.800  13.858 -1.1985 -0.9916 -0.8514
13234TIP3    H261194   1.550   2.681  13.950 -1.4243 -0.9907 -0.8006
13235TIP3   OH261195   3.088   6.588   4.631  0.3014  0.0510  0.1017
13235TIP3    H161196   3.139   6.630   4.701  1.6397 -1.2361 -0.0887
13235TIP3    H261197   3.016   6.545   4.677 -0.5781  1.7423  0.3842
13236TIP3   OH261198   3.323   5.438   4.929 -0.5038 -0.2007 -0.1190
13236TIP3    H161199   3.230   5.442   4.909 -0.7345  1.1880  1.1297
13236TIP3    H261200   3.352   5.529   4.927  0.4822 -0.4759  1.0317
13237TIP3   OH261201   3.824   6.021   3.640 -0.1826  0.2391  0.3177
13237TIP3    H161202   3.864   5.952   3.586  1.4621 -2.1164  4.3534
13237TIP3    H261203   3.891   6.090   3.643  0.0782  0.0024  0.0461
13238TIP3   OH261204   4.609   2.025   5.337 -0.2919  0.0554 -0.4002
13238TIP3    H161205   4.683   1.999   5.392  0.2008 -2.2068 -2.0794
13238TIP3    H261206   4.533   2.021   5.394  0.5053 -0.2297  0.6419
13239TIP3   OH261207   0.201   4.708  15.672 -0.0891  0.2769 -0.0551
13239TIP3    H161208   0.123   4.757  15.699 -0.1345 -0.6379  1.5187
13239TIP3    H261209   0.261   4.715  15.746  0.8986  0.0845 -0.8345
13240TIP3   OH261210   5.312   6.671   2.784  0.1546 -0.0009  0.3628
13240TIP3    H161211   5.354   6.682   2.698 -2.6038 -3.2215 -1.4918
13240TIP3    H261212   5.267   6.755   2.798 -1.5113 -0.2952 -2.6276
13241TIP3   OH261213   0.069   0.260   6.126  0.0595 -0.2328  0.2767
13241TIP3    H161214   0.120   0.233   6.203 -0.7988 -0.0621  0.9018
13241TIP3    H261215  -0.014   0.292   6.161  0.4000  1.6925 -0.5595
13242TIP3   OH261216   1.975   2.657   4.838 -0.8526 -0.1316  0.0128
13242TIP3    H161217   1.990   2.598   4.912  0.1554  0.9598  0.7012
13242TIP3    H261218   1.900   2.619   4.792  0.9300 -3.0050 -0.6456
13243TIP3   OH261219   4.452   3.631  14.640 -0.4679  0.3164  0.5602
13243TIP3    H161220   4.424   3.699  14.700 -0.4063  0.6983  0.1601
13243TIP3    H261221   4.544   3.651  14.622  0.2791 -1.3099  2.3832
13244TIP3   OH261222   6.367   4.904  14.951  0.0307  0.8585 -0.0768
13244TIP3    H161223   6.391   4.858  15.031 -0.4996 -0.4235 -0.6490
13244TIP3    H261224   6.296   4.963  14.978 -1.8739 -1.3426 -0.0653
13245TIP3   OH261225   0.315   5.329  15.611 -0.2958 -0.2257  0.1099
13245TIP3    H161226   0.361   5.295  15.688 -0.0556 -0.2058 -0.0244
13245TIP3    H261227   0.314   5.256  15.550 -0.6618 -0.3025  0.2089
13246TIP3   OH261228   5.302   3.202   4.039 -0.3149 -0.2620  0.8087
13246TIP3    H161229   5.358   3.171   4.110  1.8256 -0.6206 -0.9614
13246TIP3    H261230   5.259   3.122   4.006  1.9975 -0.7881 -1.0451
13247TIP3   OH261231   4.678   5.112   5.179 -0.1521 -0.6875  0.5064
13247TIP3    H161232   4.622   5.048   5.136  1.2700 -0.5449 -1.6669
13247TIP3    H261233   4.732   5.148   5.108  0.4148  1.5129  1.9978
13248TIP3   OH261234   6.341   1.973   2.092  0.0553  0.0928 -0.2796
13248TIP3    H161235   6.327   1.892   2.042  1.3439 -0.3452  0.0489
13248TIP3    H261236   6.271   1.972   2.157 -2.3464  1.2558 -2.7616
13249TIP3   OH261237   3.321   3.696   4.428 -0.3807  0.0879  0.0765
13249TIP3    H161238   3.306   3.621   4.487 -0.3296  1.3073  1.6789
13249TIP3    H261239   3.248   3.755   4.445 -0.9419 -0.0228 -1.8932
13250TIP3   OH261240   3.930   6.111  15.300  0.2571  0.4444 -0.1126
13250TIP3    H161241   4.024   6.112  15.321  0.0216  0.1875  0.9776
13250TIP3    H261242   3.911   6.201  15.273  0.2539  1.1741  2.2280
13251TIP3   OH261243   2.833   4.861   4.233  0.0222  0.1910 -0.0588
13251TIP3    H161244   2.819   4.943   4.279 -0.4210 -0.0977  0.3196
13251TIP3    H261245   2.923   4.837   4.254  0.4494  1.0228 -0.8801
13252TIP3   OH261246   3.131   4.789   5.870  0.5191 -0.1143 -0.7558
13252TIP3    H161247   3.114   4.876   5.834  0.3616 -0.0186 -0.4519
13252TIP3    H261248   3.117   4.799   5.964  0.4174 -0.4887 -0.7311
13253TIP3   OH261249   0.585   1.395  12.230  0.1170 -0.0713 -0.4341
13253TIP3    H161250   0.542   1.427  12.309  0.6805  2.6268 -1.1684
13253TIP3    H261251   0.679   1.409  12.245  0.1315  2.3334 -2.2699
13254TIP3   OH261252   6.136   5.443  12.498 -0.5639  0.3319 -0.0673
13254TIP3    H161253   6.054   5.422  12.541 -0.1845 -1.2980 -0.0994
13254TIP3    H261254   6.193   5.367  12.516  0.7333  1.1810 -0.5063
13255TIP3   OH261255   3.264   0.315   2.446  0.1985  0.3379 -0.2658
13255TIP3    H161256   3.269   0.401   2.488 -0.2533  0.4725 -0.4838
13255TIP3    H261257   3.247   0.334   2.354  2.8391  0.1020 -0.8429
13256TIP3   OH261258   3.303   5.940   0.869 -0.6100 -0.0084 -0.2847
13256TIP3    H161259   3.340   5.937   0.957  1.4632  0.7251 -1.1107
13256TIP3    H261260   3.223   5.887   0.875 -1.0528  0.8656  2.2881
13257TIP3   OH261261   5.122   3.747  13.867 -0.3886  0.4836  0.0268
13257TIP3    H161262   5.132   3.821  13.807  1.0809 -0.0220 -0.3613
13257TIP3    H261263   5.189   3.762  13.934 -0.1329 -0.4590 -0.0178
13258TIP3   OH261264   2.721   4.366   2.356 -0.5312  0.1340 -0.0183
13258TIP3    H161265   2.728   4.330   2.268  0.4054 -1.5918  0.7440
13258TIP3    H261266   2.646   4.323   2.395  1.5942 -2.3817  1.4843
13259TIP3   OH261267   3.297   6.546   1.651 -0.5399 -0.2001 -0.6594
13259TIP3    H161268   3.316   6.456   1.676  1.3992  0.0857 -1.0048
13259TIP3    H261269   3.341   6.600   1.717 -2.4169  0.5204  0.0535
13260TIP3   OH261270   2.792   4.837   0.323 -0.4755 -0.3234 -0.1175
13260TIP3    H161271   2.832   4.888   0.393 -1.5680 -0.7101  0.8153
13260TIP3    H261272   2.708   4.881   0.307 -1.7914 -2.2648  1.2596
13261TIP3   OH261273   5.375   4.342  15.457  0.0048  0.2044  0.2495
13261TIP3    H161274   5.422   4.367  15.377  2.2956 -0.5387  1.3037
13261TIP3    H261275   5.397   4.249  15.469 -0.4695  0.2616  1.6264
13262TIP3   OH261276   1.596   2.190   4.822 -0.0159  0.8829 -0.4579
13262TIP3    H161277   1.601   2.258   4.755  1.2357 -0.0713 -1.3562
13262TIP3    H261278   1.503   2.175   4.834 -0.2926  2.3000 -0.7197
13263TIP3   OH261279   0.666   6.038  14.628 -0.1765 -0.5797  0.3976
13263TIP3    H161280   0.623   5.995  14.555  1.6302  0.2676 -1.2139
13263TIP3    H261281   0.755   6.002  14.628  0.4181  0.8391  0.9619
13264TIP3   OH261282   2.931   0.746  16.479  0.8055  0.2861 -0.3194
13264TIP3    H161283   2.970   0.694  16.550 -0.1745  0.4528  0.3436
13264TIP3    H261284   2.957   0.837  16.499 -0.4427  0.4739  0.4710
13265TIP3   OH261285   1.167   4.164  12.253  0.2244 -0.0542 -0.4497
13265TIP3    H161286   1.176   4.257  12.275  2.5330  0.0456 -1.6453
13265TIP3    H261287   1.243   4.122  12.294 -1.3096 -1.5758  0.8723
13266TIP3   OH261288   6.575   1.594   0.783  0.2498 -0.5563 -0.1985
13266TIP3    H161289   6.640   1.524   0.785  1.4931  0.5337 -1.0458
13266TIP3    H261290   6.530   1.582   0.699 -0.8342 -1.4700  0.5074
13267TIP3   OH261291   0.911   4.367   5.235 -0.1845  0.4257 -0.2989
13267TIP3    H161292   0.824   4.380   5.197 -0.5783 -1.0134  0.0710
13267TIP3    H261293   0.972   4.391   5.165 -0.8828  0.9470 -0.7325
13268TIP3   OH261294   3.976   4.959   5.392  0.2479 -0.3988 -0.1991
13268TIP3    H161295   4.007   4.968   5.482  1.7606  0.8679 -0.8114
13268TIP3    H261296   3.969   4.865   5.379 -1.7645 -0.5737  1.8052
13269TIP3   OH261297   2.420   1.449  10.506 -0.5239 -0.3989 -0.1022
13269TIP3    H161298   2.336   1.482  10.539  0.3121  1.0810  0.5556
13269TIP3    H261299   2.436   1.370  10.557 -2.5427 -1.9091 -1.7079
13270TIP3   OH261300   3.132   0.433   2.233 -0.0559 -0.6000  0.0881
13270TIP3    H161301   3.184   0.502   2.192  1.0964 -1.2267  0.4657
13270TIP3    H261302   3.079   0.478   2.299 -0.1926  0.0841 -0.4903
13271TIP3   OH261303   3.941   1.802  17.247 -0.3811 -0.2028  0.3757
13271TIP3    H161304   3.932   1.783  17.153  0.1946  0.6004  0.1465
13271TIP3    H261305   3.881   1.742  17.290 -1.4641  0.1744 -0.5857
13272TIP3   OH261306   5.197   3.680   4.828  0.2146 -0.5464  1.0454
13272TIP3    H161307   5.234   3.600   4.790 -0.0078  0.2049 -0.8339
13272TIP3    H261308   5.103   3.672   4.813  0.1548 -0.1247  1.1996
13273TIP3   OH261309   4.126   1.054  15.497 -0.2095  0.1122 -0.0384
13273TIP3    H161310   4.098   1.113  15.427 -0.9313 -0.9023 -0.6157
13273TIP3    H261311   4.146   0.971  15.453  1.1408  0.0181  0.7172
13274TIP3   OH261312   0.112   3.476   4.213 -0.1892  0.4062  0.0695
13274TIP3    H161313   0.080   3.514   4.295  0.9328  1.7147 -0.0894
13274TIP3    H261314   0.123   3.552   4.154 -1.1673 -0.5266 -1.3652
13275TIP3   OH261315   2.925   4.304  16.100 -0.2693  0.4567 -0.1837
13275TIP3    H161316   2.891   4.222  16.064  0.0032  0.5501 -0.6490
13275TIP3    H261317   2.928   4.364  16.026 -0.9850  1.0617  0.2610
13276TIP3   OH261318   2.484   6.296   1.200 -0.6042  0.2212 -0.1031
13276TIP3    H161319   2.416   6.355   1.167  0.1166  1.1229 -0.0319
13276TIP3    H261320   2.559   6.354   1.217  0.2684 -0.7870 -0.4411
13277TIP3   OH261321   0.211   6.684  14.671  0.2360  0.1566 -0.0450
13277TIP3    H161322   0.209   6.757  14.733  0.0628 -0.8881  1.2008
13277TIP3    H261323   0.131   6.694  14.619  0.5665  1.2505 -0.3667
13278TIP3   OH261324   5.850   3.883  16.050 -0.2702  0.5045  0.7680
13278TIP3    H161325   5.921   3.897  16.113 -0.4700  4.3037  0.2970
13278TIP3    H261326   5.778   3.937  16.083 -1.4014  0.2110 -1.1401
13279TIP3   OH261327   1.866   0.322  16.808  0.2869  0.6268  0.7017
13279TIP3    H161328   1.794   0.383  16.795  0.9607  0.9814 -1.6208
13279TIP3    H261329   1.841   0.244  16.759  0.0901 -0.4371  2.4637
13280TIP3   OH261330   4.188   4.275   2.737 -0.0085  0.2855  0.3661
13280TIP3    H161331   4.202   4.231   2.653 -2.3083  0.9812 -0.4163
13280TIP3    H261332   4.233   4.219   2.800  1.9376 -0.1388 -1.3204
13281TIP3   OH261333   1.149   1.807  15.440  0.0737  0.4530 -0.7030
13281TIP3    H161334   1.148   1.713  15.458  0.6996  0.6467  0.4399
13281TIP3    H261335   1.183   1.814  15.351 -0.0952 -0.4150 -0.8446
13282TIP3   OH261336   6.098   4.493   0.372  0.4847 -0.4439 -0.7060
13282TIP3    H161337   6.174   4.486   0.430  0.7023 -2.3385 -1.1877
13282TIP3    H261338   6.110   4.423   0.308 -0.9836  0.1007 -1.6106
13283TIP3   OH261339   4.038   0.471   0.971 -0.2096  0.2702 -0.2179
13283TIP3    H161340   4.064   0.382   0.990 -2.4578 -0.4979 -0.5287
13283TIP3    H261341   4.100   0.501   0.905 -0.4971 -1.6951 -1.4162
13284TIP3   OH261342   4.023   0.732   3.070 -0.1204  0.4014 -0.2644
13284TIP3    H161343   4.019   0.697   3.159  3.0441  2.6941  0.8896
13284TIP3    H261344   4.112   0.713   3.040  0.0178  2.8157 -1.5297
13285TIP3   OH261345   1.853   1.664  16.817 -0.3734 -0.5269  0.0918
13285TIP3    H161346   1.924   1.628  16.870 -0.8075  0.8273  1.6477
13285TIP3    H261347   1.888   1.746  16.783 -1.0835  0.0120  0.6454
13286TIP3   OH261348   5.688   5.419  13.346 -0.1423  0.1344  0.2082
13286TIP3    H161349   5.696   5.328  13.316  1.2696  0.3831 -0.2414
13286TIP3    H261350   5.602   5.424  13.388 -0.8507 -1.0377 -1.0681
13287TIP3   OH261351   0.488   2.815  13.587  0.0093  0.7212  0.1644
13287TIP3    H161352   0.491   2.814  13.683 -1.0033  0.8343  0.2117
13287TIP3    H261353   0.499   2.724  13.561  0.7847  0.7546  0.3682
13288TIP3   OH261354   6.193   0.239  11.224  0.2904 -0.5620  0.1083
13288TIP3    H161355   6.199   0.144  11.214 -0.9038 -0.5403 -1.1047
13288TIP3    H261356   6.153   0.251  11.310  0.9940 -1.1464  0.5169
13289TIP3   OH261357   1.988   2.354   3.749  0.1801 -0.1798  0.6746
13289TIP3    H161358   1.930   2.288   3.787 -0.4351  0.1813  0.3597
13289TIP3    H261359   2.043   2.305   3.687 -1.6251 -0.0681 -1.0420
13290TIP3   OH261360   5.835   4.303  14.279 -0.0390 -0.3757  0.0164
13290TIP3    H161361   5.884   4.351  14.212 -0.4471  1.7306  1.1697
13290TIP3    H261362   5.895   4.235  14.309  1.6203  1.2069  0.3269
13291TIP3   OH261363   4.053   1.588  12.934  0.5425 -0.1491  0.6080
13291TIP3    H161364   4.104   1.652  12.983  1.3208  0.0376 -0.4463
13291TIP3    H261365   3.967   1.629  12.924  0.1858 -0.4280  2.2982
13292TIP3   OH261366   2.283   1.294   2.430  0.3384  0.1064 -0.1503
13292TIP3    H161367   2.301   1.242   2.508 -0.8561 -0.6218 -0.3479
13292TIP3    H261368   2.291   1.385   2.459 -0.5873 -0.1547  0.9400
13293TIP3   OH261369   4.369   5.453   0.046  0.2774  0.0022 -0.3892
13293TIP3    H161370   4.308   5.407   0.103  0.2355 -0.4137 -0.7673
13293TIP3    H261371   4.381   5.395  -0.028  1.2398  0.0164 -0.2552
13294TIP3   OH261372   4.384   3.105   3.663 -0.4989 -1.3935  0.3833
13294TIP3    H161373   4.425   3.032   3.617  0.0096  0.5612 -2.3657
13294TIP3    H261374   4.432   3.111   3.746  1.5201 -2.2585 -0.6847
13295TIP3   OH261375   4.025   5.257   3.408 -0.1763  0.0050  0.6808
13295TIP3    H161376   3.997   5.276   3.319 -1.1417  0.1999  1.0231
13295TIP3    H261377   3.965   5.189   3.439 -0.0109  0.1177  1.2658
13296TIP3   OH261378   1.557   6.750  16.826 -0.1565  0.3312  1.0055
13296TIP3    H161379   1.539   6.658  16.807  1.5232  0.5371 -1.8681
13296TIP3    H261380   1.477   6.783  16.866 -1.7112 -1.7495 -0.3229
13297TIP3   OH261381   2.898   0.305   3.341  0.6549  0.1508  0.0325
13297TIP3    H161382   2.862   0.260   3.418 -0.3192  1.1633  0.1819
13297TIP3    H261383   2.991   0.281   3.340  0.0040 -2.5539 -0.3756
13298TIP3   OH261384   6.442   3.917   0.180 -0.1722  0.4610  0.2195
13298TIP3    H161385   6.534   3.933   0.202  0.4857 -2.0542 -0.5517
13298TIP3    H261386   6.431   3.823   0.188 -1.9785  0.3877 -2.3278
13299TIP3   OH261387   6.144   0.320   5.383 -0.3088 -0.5284 -0.5115
13299TIP3    H161388   6.154   0.363   5.299  0.1206 -0.2263 -0.3067
13299TIP3    H261389   6.222   0.266   5.392 -0.4063 -0.6435 -0.3567
13300TIP3   OH261390   4.439   1.948  11.070 -0.0206 -0.4437 -0.8347
13300TIP3    H161391   4.487   1.968  10.990 -0.7308  2.9391 -0.4928
13300TIP3    H261392   4.354   1.916  11.040 -0.3419  0.9588 -1.4740
13301TIP3   OH261393   4.219   5.339   3.599  0.4936 -0.6448 -0.3109
13301TIP3    H161394   4.184   5.304   3.681 -1.7120  0.6934 -0.6312
13301TIP3    H261395   4.155   5.314   3.533  0.0042  1.9962 -0.8998
13302TIP3   OH261396   3.190   1.438  11.186 -0.5042  0.1490 -0.0365
13302TIP3    H161397   3.276   1.414  11.220 -0.1166  0.5633 -0.6991
13302TIP3    H261398   3.133   1.366  11.211  0.0157 -0.0799  0.4969
13303TIP3   OH261399   5.262   3.022  11.278 -0.8637 -0.0920 -0.2561
13303TIP3    H161400   5.184   2.966  11.279  0.2034 -1.5968 -0.1642
13303TIP3    H261401   5.316   2.989  11.350  0.5596 -0.0766 -1.3054
13304TIP3   OH261402   4.635   5.381  12.978 -0.2231 -0.0186  0.2943
13304TIP3    H161403   4.632   5.401  13.071 -2.0901  3.9275 -0.5095
13304TIP3    H261404   4.706   5.436  12.944  1.1943 -2.2527 -0.5120
13305TIP3   OH261405   2.530   5.377   4.643  0.2815  0.0966 -0.3711
13305TIP3    H161406   2.541   5.412   4.731 -0.7221  0.4682 -0.3896
13305TIP3    H261407   2.450   5.417   4.611  1.4353  1.1271 -2.0386
13306TIP3   OH261408   0.949   4.161  15.346 -0.2255  0.0519 -0.4536
13306TIP3    H161409   0.856   4.180  15.343  0.0934  1.5142 -2.2068
13306TIP3    H261410   0.990   4.245  15.368  0.8242  0.0676 -2.3332
13307TIP3   OH261411   4.222   0.438  12.616 -0.2583 -0.4753 -0.1925
13307TIP3    H161412   4.187   0.474  12.534 -0.9949  0.8924  0.6903
13307TIP3    H261413   4.160   0.369  12.640 -0.3160 -0.5414 -0.5293
13308TIP3   OH261414   5.790   3.871   0.739 -0.1972 -0.2526 -0.0772
13308TIP3    H161415   5.729   3.874   0.813 -2.5225 -0.5908 -1.9057
13308TIP3    H261416   5.811   3.778   0.729 -0.9455 -0.3652 -0.6559
13309TIP3   OH261417   1.323   0.229   1.867  0.1704  0.0753  0.4869
13309TIP3    H161418   1.231   0.246   1.885  0.6265  1.4840  1.5672
13309TIP3    H261419   1.358   0.313   1.835  0.9444 -0.5945 -0.4623
13310TIP3   OH261420   0.132   1.731   4.833  0.3102 -0.1730  0.6088
13310TIP3    H161421   0.079   1.730   4.913  0.2278 -0.2777  0.5519
13310TIP3    H261422   0.196   1.802   4.848 -0.7266  0.8860  0.1032
13311TIP3   OH261423   4.393   5.084   5.117 -0.0104  0.2328  0.3645
13311TIP3    H161424   4.364   5.175   5.122  0.1972  0.2034  2.6763
13311TIP3    H261425   4.358   5.043   5.196 -0.2774 -1.7690 -0.7453
13312TIP3   OH261426   2.569   4.374   5.254  0.2164  0.0485 -0.2830
13312TIP3    H161427   2.480   4.341   5.259 -0.0964  0.9266 -0.0121
13312TIP3    H261428   2.576   4.413   5.167  0.9846 -1.8412 -1.1002
13313TIP3   OH261429   5.765   3.663   0.998  0.3941  0.5744 -0.1898
13313TIP3    H161430   5.837   3.603   0.977  0.7983 -0.0906  2.9061
13313TIP3    H261431   5.697   3.642   0.934  2.0508 -0.3691 -1.7024
13314TIP3   OH261432   5.696   4.374  17.250  0.0325  0.0113 -0.1489
13314TIP3    H161433   5.701   4.444  17.315  1.6306 -0.5013  0.3257
13314TIP3    H261434   5.618   4.325  17.273 -0.2227  0.7001  0.4883
13315TIP3   OH261435   3.718   1.342   3.223  0.1778 -0.1781  0.3090
13315TIP3    H161436   3.696   1.260   3.266 -0.1247 -0.7319 -0.8766
13315TIP3    H261437   3.790   1.321   3.164  0.9581  0.6881  0.9331
13316TIP3   OH261438   3.794   0.224  11.715 -0.3746  0.1358 -0.0910
13316TIP3    H161439   3.866   0.286  11.705  1.1281 -1.3654  1.1138
13316TIP3    H261440   3.758   0.242  11.802  0.3167 -0.9338  0.4201
13317TIP3   OH261441   6.096   4.959   5.791 -0.5815  0.5876  0.3463
13317TIP3    H161442   6.177   4.909   5.777 -0.9098  0.5892 -1.8531
13317TIP3    H261443   6.037   4.897   5.833 -0.3826 -0.3462 -0.7146
13318TIP3   OH261444   0.091   2.044  12.000  0.6988 -0.7254  0.2271
13318TIP3    H161445   0.156   2.049  11.931 -0.5204  0.2904 -0.8656
13318TIP3    H261446   0.037   2.122  11.989 -1.3191 -2.0305  0.4736
13319TIP3   OH261447   3.750   5.108  17.289 -0.5789 -0.2073 -0.1075
13319TIP3    H161448   3.780   5.150  17.209  1.1239  1.2500  1.2579
13319TIP3    H261449   3.820   5.046  17.312 -1.5005 -1.3357 -0.2457
13320TIP3   OH261450   4.617   5.988   4.432  0.4716 -0.5816  0.3238
13320TIP3    H161451   4.687   5.994   4.497  2.4299 -0.9442 -1.7197
13320TIP3    H261452   4.549   5.936   4.475  2.1177 -1.5994  1.7599
13321TIP3   OH261453   6.532   2.827  15.140 -0.3681  0.2688  0.0369
13321TIP3    H161454   6.511   2.776  15.062 -2.2746  1.1449 -0.0396
13321TIP3    H261455   6.588   2.897  15.108 -0.7039  0.3142 -0.4586
13322TIP3   OH261456   3.843   2.692  16.475 -0.2947  0.4289 -0.4802
13322TIP3    H161457   3.922   2.698  16.421  0.0572 -1.7398 -0.2216
13322TIP3    H261458   3.858   2.755  16.546  0.6656  0.8936 -1.0807
13323TIP3   OH261459   2.180   4.594  16.523  0.3081  0.1055 -0.2266
13323TIP3    H161460   2.237   4.519  16.539  1.3995  0.6899 -1.3350
13323TIP3    H261461   2.238   4.662  16.489 -0.6082  1.5791  1.0682
13324TIP3   OH261462   5.690   4.214   5.437  0.3728 -0.3124  0.3559
13324TIP3    H161463   5.773   4.170   5.418  1.9298  1.8785  1.9263
13324TIP3    H261464   5.667   4.184   5.525  0.2004  0.1166  0.4582
13325TIP3   OH261465   1.133   5.626   6.136  0.0820  0.2442  0.7716
13325TIP3    H161466   1.091   5.671   6.062  0.1677  0.0298  0.5906
13325TIP3    H261467   1.221   5.604   6.104 -0.1735 -0.6001  0.6417
13326TIP3   OH261468   1.059   0.719  13.350  0.4519 -0.5099  0.1491
13326TIP3    H161469   0.999   0.760  13.287  1.2340  1.3716  0.6096
13326TIP3    H261470   1.078   0.633  13.311  2.1269  1.1831 -3.0228
13327TIP3   OH261471   4.249   1.233   2.137 -0.2172  0.5192  0.1963
13327TIP3    H161472   4.321   1.294   2.119 -0.7151  0.7374 -1.0761
13327TIP3    H261473   4.274   1.152   2.094 -0.4976  0.4370  0.1841
13328TIP3   OH261474   5.598   6.102   2.592  0.1782  0.4273  0.2055
13328TIP3    H161475   5.625   6.149   2.514  1.5585  0.0743  0.4426
13328TIP3    H261476   5.584   6.170   2.658  1.1113  0.5976  0.2431
13329TIP3   OH261477   6.194   1.567  11.827 -0.0931 -0.0101 -0.1796
13329TIP3    H161478   6.222   1.652  11.862 -0.3605 -0.0911  0.2385
13329TIP3    H261479   6.157   1.522  11.903 -0.8585 -0.1159 -0.6096
13330TIP3   OH261480   5.519   4.612  16.099  0.1592  0.2511 -0.6271
13330TIP3    H161481   5.524   4.517  16.102 -1.3760  0.1976  1.1225
13330TIP3    H261482   5.595   4.642  16.148 -0.2215 -0.1255  0.2142
13331TIP3   OH261483   5.282   5.203  13.806  0.3196  0.2630 -0.9825
13331TIP3    H161484   5.302   5.128  13.862  0.2109  0.3359 -0.8467
13331TIP3    H261485   5.187   5.205  13.802  0.2562  1.6269  0.6930
13332TIP3   OH261486   6.064   2.058  15.537  0.6929  0.3141  0.6449
13332TIP3    H161487   5.997   2.021  15.594  0.4953  1.1705  0.9753
13332TIP3    H261488   6.105   2.126  15.590  1.2967  0.3262  0.1659
13333TIP3   OH261489   1.028   6.807  12.390 -0.3320  0.5727  0.4718
13333TIP3    H161490   1.007   6.756  12.469  1.7167  1.0652  1.3624
13333TIP3    H261491   1.088   6.752  12.341 -0.7206  0.7507 -0.2114
13334TIP3   OH261492   1.855   5.157  14.030  0.8733 -0.7583 -0.1026
13334TIP3    H161493   1.904   5.078  14.049  1.2857 -0.4021  0.3095
13334TIP3    H261494   1.921   5.225  14.021  0.4278 -0.1601  1.0342
13335TIP3   OH261495   1.519   1.547   3.745 -0.3760 -0.1529  0.2596
13335TIP3    H161496   1.514   1.453   3.726  2.6130 -0.0953 -1.0738
13335TIP3    H261497   1.437   1.566   3.792 -1.0172 -3.4114  0.6043
13336TIP3   OH261498   4.967   3.311   5.268  0.2707 -0.4283 -0.0033
13336TIP3    H161499   4.991   3.368   5.195 -1.1842  0.5242  0.2455
13336TIP3    H261500   4.966   3.369   5.344  1.2131 -1.2980  0.6989
13337TIP3   OH261501   3.498   5.116   6.292 -0.1934 -0.4260  0.5081
13337TIP3    H161502   3.572   5.129   6.233  0.4253  1.4857  1.6625
13337TIP3    H261503   3.532   5.136   6.379 -1.5469 -1.5023  1.3112
13338TIP3   OH261504   4.237   1.765  14.946 -0.0338  0.2246  0.1052
13338TIP3    H161505   4.155   1.813  14.945 -0.3771 -0.3396  0.6083
13338TIP3    H261506   4.255   1.748  15.039  1.3056  1.4409  0.0932
13339TIP3   OH261507   1.601   4.205   1.108  0.3437  0.0440  0.4265
13339TIP3    H161508   1.632   4.182   1.021 -1.4029  0.4658 -0.3198
13339TIP3    H261509   1.565   4.123   1.143  0.8691 -0.0798  0.6838
13340TIP3   OH261510   6.370   6.787  16.633 -0.2711 -0.7366  0.4218
13340TIP3    H161511   6.302   6.728  16.599 -0.1046 -0.1983 -0.8671
13340TIP3    H261512   6.321   6.856  16.678 -0.4863 -1.5609  1.4791
13341TIP3   OH261513   3.781   2.280  14.787 -0.2401  0.1244  0.0668
13341TIP3    H161514   3.862   2.228  14.785 -0.5079 -0.3778  1.8036
13341TIP3    H261515   3.811   2.370  14.783  0.4402 -0.0471  1.0400
13342TIP3   OH261516   1.581   4.802   1.668 -0.3805 -0.3679  0.0785
13342TIP3    H161517   1.511   4.811   1.604 -0.6310 -0.1154  0.3849
13342TIP3    H261518   1.642   4.741   1.628 -0.3361  0.0944 -0.5705
13343TIP3   OH261519   5.738   1.567  12.443 -0.0195  0.0574 -0.3933
13343TIP3    H161520   5.749   1.478  12.408 -1.0996 -0.2980  0.1633
13343TIP3    H261521   5.644   1.577  12.456  0.2531  0.6100  1.3061
13344TIP3   OH261522   4.165   6.113  16.135  0.0680  0.2302  0.2884
13344TIP3    H161523   4.174   6.102  16.040 -0.4317  0.3904  0.2270
13344TIP3    H261524   4.162   6.208  16.147  1.7076  0.2644  0.6060
13345TIP3   OH261525   6.697   5.287   5.943  0.1030 -0.2487  0.2184
13345TIP3    H161526   6.766   5.351   5.960 -0.7340  0.5914  0.4651
13345TIP3    H261527   6.635   5.298   6.014  0.7218 -2.4292  1.1329
13346TIP3   OH261528   6.427   4.145   6.150 -0.1443  0.5840 -0.2127
13346TIP3    H161529   6.429   4.107   6.238  1.0356  0.0591 -0.4613
13346TIP3    H261530   6.471   4.229   6.160  0.5891  0.2252 -0.4460
13347TIP3   OH261531   4.403   5.096   0.121 -0.0304  0.5135  0.4157
13347TIP3    H161532   4.485   5.085   0.072  0.5759 -2.7148  2.0841
13347TIP3    H261533   4.334   5.085   0.055  0.7924  2.0895 -0.7703
13348TIP3   OH261534   6.369   6.207   4.267 -0.0796  0.1547  0.0509
13348TIP3    H161535   6.413   6.247   4.192  2.6580 -2.3183  0.2370
13348TIP3    H261536   6.420   6.235   4.343  0.1789 -1.3825  0.4611
13349TIP3   OH261537   2.117   0.882  11.561 -0.1034 -0.4576 -0.2196
13349TIP3    H161538   2.046   0.864  11.622  0.7059  0.7788  1.1261
13349TIP3    H261539   2.172   0.804  11.563 -1.1355 -1.1985 -0.8614
13350TIP3   OH261540   0.568   3.727   4.450 -0.0788  0.5471 -0.5390
13350TIP3    H161541   0.494   3.672   4.475  1.3257 -1.8487 -1.5134
13350TIP3    H261542   0.633   3.712   4.518 -0.9861  3.8335  1.1673
13351TIP3   OH261543   6.239   6.670   5.910 -0.1808 -0.0991  0.2610
13351TIP3    H161544   6.246   6.583   5.950 -0.6069  0.2068  1.0187
13351TIP3    H261545   6.304   6.723   5.957  1.2913 -0.4180 -1.3573
13352TIP3   OH261546   3.725   6.318   4.049  0.0556  0.8938  0.3387
13352TIP3    H161547   3.701   6.294   4.139 -0.0959  1.6264  0.4968
13352TIP3    H261548   3.707   6.412   4.044  0.6276  0.9708 -0.2791
13353TIP3   OH261549   0.582   3.042   5.602 -0.5088  0.6270  0.0690
13353TIP3    H161550   0.518   3.075   5.539 -0.3148  1.8465  0.4998
13353TIP3    H261551   0.560   2.949   5.612 -1.7457  0.8702 -0.3295
13354TIP3   OH261552   3.413   6.238  12.637 -0.4507 -0.3075 -0.0790
13354TIP3    H161553   3.361   6.216  12.560  0.4298  0.2474 -0.8361
13354TIP3    H261554   3.445   6.154  12.669 -2.2100 -0.7099  0.6937
13355TIP3   OH261555   0.580   2.020  16.327 -0.3740 -0.8501 -0.7611
13355TIP3    H161556   0.675   2.032  16.333 -0.4816  0.6621 -1.6541
13355TIP3    H261557   0.551   2.011  16.418  0.2298  2.3683 -0.1720
13356TIP3   OH261558   2.086   5.483   3.999 -0.4146 -0.2114  0.0060
13356TIP3    H161559   2.001   5.471   4.040 -1.5043  1.8930 -1.5536
13356TIP3    H261560   2.133   5.541   4.059 -1.6434  2.0471 -1.1453
13357TIP3   OH261561   6.274   3.349  14.165 -0.0969 -0.3779  0.9958
13357TIP3    H161562   6.200   3.393  14.124 -0.5446 -0.3818  1.8127
13357TIP3    H261563   6.337   3.419  14.181  1.2652 -0.7479 -2.2276
13358TIP3   OH261564   1.373   2.234  14.462 -0.3368  0.3694  0.1724
13358TIP3    H161565   1.332   2.149  14.482 -0.6841 -0.1342 -2.4917
13358TIP3    H261566   1.390   2.273  14.548  0.2869 -2.6037  1.4787
13359TIP3   OH261567   4.978   0.198  16.359 -0.0290 -0.2496 -0.0010
13359TIP3    H161568   4.890   0.186  16.322 -0.4078 -1.9803  1.3517
13359TIP3    H261569   4.966   0.185  16.454  1.3861  1.3034  0.4116
13360TIP3   OH261570   2.351   6.569   0.471 -0.1482  0.2110 -0.4467
13360TIP3    H161571   2.375   6.619   0.549 -0.6078  0.0574 -0.2018
13360TIP3    H261572   2.415   6.594   0.405  1.2667 -0.9390  0.4712
13361TIP3   OH261573   5.122   3.512  16.529  0.0532  0.0090  0.3680
13361TIP3    H161574   5.216   3.515  16.550 -0.1427 -2.0343  1.6939
13361TIP3    H261575   5.082   3.470  16.605 -1.5570 -1.6055 -1.3287
13362TIP3   OH261576   5.550   5.351  15.731 -0.3831 -0.0894 -0.3635
13362TIP3    H161577   5.528   5.264  15.766  1.5858  0.5241  2.5743
13362TIP3    H261578   5.558   5.406  15.808  0.0163  2.3595 -2.0990
13363TIP3   OH261579   0.196   0.597  12.511  0.8923 -0.1835 -0.2714
13363TIP3    H161580   0.130   0.528  12.511  0.9750 -0.2723 -1.2715
13363TIP3    H261581   0.154   0.672  12.468  0.2735  0.9258  2.2099
13364TIP3   OH261582   2.436   1.002   1.221 -0.0190  0.5234  0.3773
13364TIP3    H161583   2.495   1.078   1.224  0.0407  0.4556  0.9507
13364TIP3    H261584   2.495   0.927   1.220 -0.1168  0.4013  2.8810
13365TIP3   OH261585   4.961   6.102  14.966 -0.3942  0.0063 -0.5188
13365TIP3    H161586   5.044   6.084  15.009  0.0703 -1.0017 -1.7908
13365TIP3    H261587   4.917   6.017  14.961 -1.5095  0.5314  0.1580
13366TIP3   OH261588   2.761   1.758  11.358  0.2545 -0.2981  0.0666
13366TIP3    H161589   2.747   1.681  11.413 -0.1801  1.2130  2.1391
13366TIP3    H261590   2.852   1.784  11.376 -0.6634  1.6947  2.0992
13367TIP3   OH261591   2.624   1.095  13.280 -0.1937  0.3285 -0.6293
13367TIP3    H161592   2.667   1.167  13.234 -0.3353  2.3449  2.2223
13367TIP3    H261593   2.600   1.033  13.212 -0.9743  3.4673 -3.3225
13368TIP3   OH261594   4.659   1.253  16.816 -0.6019  0.0412 -0.3396
13368TIP3    H161595   4.657   1.332  16.870  0.2642 -0.3247  0.2358
13368TIP3    H261596   4.745   1.254  16.774 -0.9775 -0.0755 -1.1194
13369TIP3   OH261597   6.050   1.362  16.655 -0.8733  0.3994  0.0970
13369TIP3    H161598   5.960   1.346  16.625 -1.4849  0.0630  2.0194
13369TIP3    H261599   6.046   1.350  16.750  1.5893 -1.2633  0.0267
13370TIP3   OH261600   6.086   5.291   4.968  0.0174  0.1721 -0.3777
13370TIP3    H161601   6.132   5.356   4.915 -0.9838  0.7896 -0.4918
13370TIP3    H261602   6.102   5.318   5.058  0.6106 -0.1211 -0.3888
13371TIP3   OH261603   4.058   2.131  14.093  0.2001  0.0731 -0.2477
13371TIP3    H161604   4.109   2.061  14.133 -1.2862 -1.2795 -0.6718
13371TIP3    H261605   3.999   2.160  14.163  0.4520  0.5354 -0.2296
13372TIP3   OH261606   3.788   1.396   4.208 -0.1191  0.8373  0.1867
13372TIP3    H161607   3.712   1.368   4.156 -0.1264  1.4344 -0.1232
13372TIP3    H261608   3.862   1.349   4.170 -0.3670  0.0616  0.6470
13373TIP3   OH261609   0.735   2.654  12.043 -0.3466 -0.2229  0.1426
13373TIP3    H161610   0.716   2.746  12.057 -1.7459 -0.2896 -1.2129
13373TIP3    H261611   0.823   2.653  12.006  0.0687  0.4886  1.0986
13374TIP3   OH261612   3.570   3.054  14.380  0.2731 -0.1504 -0.1974
13374TIP3    H161613   3.662   3.057  14.406  0.0240 -0.8630  0.7758
13374TIP3    H261614   3.565   3.111  14.303  1.9986 -2.0382 -1.7632
13375TIP3   OH261615   5.376   5.919   3.635 -0.2676 -0.5009 -0.1776
13375TIP3    H161616   5.283   5.937   3.623 -0.2002  1.2166  1.7234
13375TIP3    H261617   5.420   5.995   3.598  0.2717  0.0305  1.5301
13376TIP3   OH261618   6.528   6.588   4.703 -0.3884  0.1697  0.5593
13376TIP3    H161619   6.521   6.535   4.783 -1.7172  0.5236  0.6999
13376TIP3    H261620   6.507   6.677   4.732 -2.9380 -0.0183 -0.5226
13377TIP3   OH261621   0.284   2.809  16.641 -0.2856  0.2924 -0.4070
13377TIP3    H161622   0.259   2.889  16.687  0.1673 -1.1081  2.3761
13377TIP3    H261623   0.370   2.829  16.604 -0.4236  1.2635 -0.2142
13378TIP3   OH261624   2.684   6.093  15.458  0.2340  0.6732  0.3749
13378TIP3    H161625   2.722   6.007  15.442  1.0099  1.1186 -0.2519
13378TIP3    H261626   2.592   6.076  15.477 -0.0098 -0.1713 -1.4172
13379TIP3   OH261627   3.469   2.942   1.978 -0.2905 -0.2446 -0.4583
13379TIP3    H161628   3.472   2.871   2.042 -0.3266 -0.5867 -0.8356
13379TIP3    H261629   3.558   2.976   1.975 -0.2241 -0.4170 -0.4347
13380TIP3   OH261630   6.379   1.422  13.176  0.3516  0.3452  0.4090
13380TIP3    H161631   6.382   1.433  13.271  1.7558 -1.4553  0.6136
13380TIP3    H261632   6.287   1.401  13.157 -0.1873  1.9549  1.2045
13381TIP3   OH261633   0.447   6.467   3.433 -0.6544  0.0116  0.2317
13381TIP3    H161634   0.430   6.421   3.515  0.4096 -0.6806  0.0800
13381TIP3    H261635   0.514   6.532   3.455 -0.9445  0.3630  0.0858
13382TIP3   OH261636   2.494   0.874  11.467 -0.0045  0.0266 -0.9178
13382TIP3    H161637   2.418   0.930  11.450  0.9405  2.2849  1.8792
13382TIP3    H261638   2.458   0.796  11.508 -0.8207  1.0737  0.3778
13383TIP3   OH261639   3.957   4.241  14.837  0.5342  0.2029 -0.3529
13383TIP3    H161640   3.869   4.248  14.800 -0.0010 -0.7279  0.7167
13383TIP3    H261641   3.966   4.321  14.890  0.8046  0.8886 -1.4114
13384TIP3   OH261642   3.540   2.487   5.986  0.3904  0.1599  0.1037
13384TIP3    H161643   3.453   2.516   6.014  0.4540  0.2092  0.2548
13384TIP3    H261644   3.594   2.566   5.990  0.3655  0.1953 -0.3008
13385TIP3   OH261645   4.584   0.951   5.675 -0.4099 -0.4270 -0.0360
13385TIP3    H161646   4.611   0.864   5.703  1.3367  0.5608  1.5555
13385TIP3    H261647   4.503   0.968   5.723  0.4793 -0.3027  1.4832
13386TIP3   OH261648   2.812   4.709  10.989  0.3969  0.5244  0.2225
13386TIP3    H161649   2.755   4.639  10.956  0.1322  0.2480  1.2675
13386TIP3    H261650   2.759   4.788  10.982  0.7631  0.6646 -1.1434
13387TIP3   OH261651   2.323   0.397  11.239 -0.1346 -0.0774 -0.1606
13387TIP3    H161652   2.288   0.343  11.310 -0.9920  1.9138  0.9639
13387TIP3    H261653   2.418   0.387  11.248 -0.2034  0.7028  1.7298
13388TIP3   OH261654   4.764   4.760   0.289 -0.2885  0.1650  0.4671
13388TIP3    H161655   4.762   4.727   0.199 -1.0948 -0.0554  0.5661
13388TIP3    H261656   4.783   4.854   0.280 -2.4581  0.5934 -0.0627
13389TIP3   OH261657   2.654   4.504  10.903  0.3765  0.1413 -0.2250
13389TIP3    H161658   2.610   4.473  10.982 -1.1230  0.7062 -0.8377
13389TIP3    H261659   2.684   4.425  10.859 -1.0731 -0.3064 -0.4145
13390TIP3   OH261660   4.776   3.021  11.627 -0.0405 -0.0829 -0.1114
13390TIP3    H161661   4.704   3.014  11.564  0.0790 -0.3822 -0.2173
13390TIP3    H261662   4.734   3.049  11.708 -0.2491 -0.0659 -0.2250
13391TIP3   OH261663   5.230   3.497  12.257 -0.3619 -0.1450 -0.1736
13391TIP3    H161664   5.314   3.517  12.300  0.7872 -0.8176 -2.0474
13391TIP3    H261665   5.196   3.421  12.305  1.8840 -2.1593 -1.6285
13392TIP3   OH261666   6.500   1.143   5.959 -0.4610  0.1425  0.3596
13392TIP3    H161667   6.558   1.075   5.995 -0.0367 -0.2403 -1.0226
13392TIP3    H261668   6.490   1.119   5.867 -2.6136  0.3602  0.5310
13393TIP3   OH261669   1.064   2.845   3.648  0.3869  0.4879 -0.4201
13393TIP3    H161670   1.013   2.911   3.695 -1.0484  0.2429 -1.5906
13393TIP3    H261671   1.155   2.876   3.654  0.1337  0.8783  1.7668
13394TIP3   OH261672   5.033   2.320  14.146 -0.1419  0.1661 -0.1031
13394TIP3    H161673   4.997   2.317  14.057  0.3604  0.7491 -0.3346
13394TIP3    H261674   5.024   2.411  14.172  2.5951  0.6938 -0.7851
13395TIP3   OH261675   4.262   0.331  11.281 -0.8008 -0.1407  0.2568
13395TIP3    H161676   4.257   0.426  11.290 -0.1467 -0.0796 -0.0201
13395TIP3    H261677   4.224   0.297  11.363 -0.6797  0.3545  0.5183
13396TIP3   OH261678   1.309   1.258  14.258 -0.4635  0.6309  0.2167
13396TIP3    H161679   1.254   1.335  14.245  0.3065  1.1967  0.3159
13396TIP3    H261680   1.396   1.293  14.275 -0.0869 -0.2643  0.1456
13397TIP3   OH261681   2.735   5.630   4.706  0.0891 -0.1952  0.2232
13397TIP3    H161682   2.732   5.576   4.785  0.6510  2.0455  1.8314
13397TIP3    H261683   2.749   5.719   4.739  0.7989  0.7141 -2.4370
13398TIP3   OH261684   4.878   1.393   4.833  0.1624  0.0317  0.1782
13398TIP3    H161685   4.869   1.299   4.843  1.1884 -0.2068 -1.0126
13398TIP3    H261686   4.835   1.413   4.750  2.3367  0.1752 -0.9686
13399TIP3   OH261687   4.279   1.703  11.341 -0.3294 -0.2112 -0.5763
13399TIP3    H161688   4.323   1.684  11.424 -0.8261 -2.2888 -0.7614
13399TIP3    H261689   4.227   1.781  11.358  1.3596  0.7135  0.4102
13400TIP3   OH261690   4.448   6.345   0.569  0.0296  0.0582 -0.0084
13400TIP3    H161691   4.499   6.406   0.515 -0.1378  0.6771  0.5310
13400TIP3    H261692   4.512   6.279   0.597 -0.1562 -1.0171 -2.0489
13401TIP3   OH261693   2.171   6.245   5.828  0.2247 -0.5049 -0.1139
13401TIP3    H161694   2.193   6.167   5.879  0.2815  0.1855  0.9331
13401TIP3    H261695   2.213   6.317   5.875 -2.9715  0.6761  1.0986
13402TIP3   OH261696   0.060   4.818   5.089 -0.0273  0.1277  0.1758
13402TIP3    H161697   0.008   4.754   5.040 -1.5201  1.5848 -0.2165
13402TIP3    H261698   0.005   4.896   5.090  2.0578  1.6341 -0.0014
13403TIP3   OH261699   3.904   2.903  17.123  0.6809 -0.1075  0.9804
13403TIP3    H161700   3.928   2.846  17.049  1.7757 -2.1592  2.8636
13403TIP3    H261701   3.812   2.923  17.109  0.0946 -2.9021  0.6107
13404TIP3   OH261702   2.766   2.570  10.827 -0.1794  0.2105 -0.0174
13404TIP3    H161703   2.822   2.507  10.781 -0.9763 -0.9545  0.5795
13404TIP3    H261704   2.813   2.653  10.821  2.0037 -0.8977  1.1708
13405TIP3   OH261705   3.754   2.000  10.195  0.8875  0.2781  0.0851
13405TIP3    H161706   3.680   2.060  10.196 -1.1221 -2.0541 -1.9096
13405TIP3    H261707   3.777   1.988  10.288 -1.7944  0.3822  0.7959
13406TIP3   OH261708   0.866   4.982   5.309  0.2670  0.4235  0.3491
13406TIP3    H161709   0.908   4.904   5.272  0.7622  0.1296  1.5259
13406TIP3    H261710   0.777   4.952   5.331  0.3649  0.2700  0.5350
13407TIP3   OH261711   5.141   1.665  11.972  0.0638  0.7637 -0.0735
13407TIP3    H161712   5.160   1.719  12.049  1.3730 -0.5332  0.5359
13407TIP3    H261713   5.062   1.617  11.994 -0.0452  1.0294  0.1150
13408TIP3   OH261714   6.204   0.472   3.863 -0.2710 -0.0999 -0.3411
13408TIP3    H161715   6.200   0.534   3.790 -0.4303 -0.1258 -0.3555
13408TIP3    H261716   6.274   0.411   3.839  0.1069  0.2645 -0.1740
13409TIP3   OH261717   3.273   2.559   2.392 -0.3412 -0.0312 -0.3620
13409TIP3    H161718   3.271   2.511   2.474 -0.3091 -0.3740 -0.5628
13409TIP3    H261719   3.299   2.648   2.417  2.8874 -0.9114 -0.3875
13410TIP3   OH261720   6.725   5.783  15.396 -0.1187  0.7327 -0.2360
13410TIP3    H161721   6.784   5.747  15.330 -2.6772 -2.3763 -1.0001
13410TIP3    H261722   6.709   5.873  15.368  1.4135  0.4838 -2.0016
13411TIP3   OH261723   0.129   2.745  14.161 -0.5692  0.1532 -0.6658
13411TIP3    H161724   0.153   2.789  14.243 -3.1893 -0.6946  0.6190
13411TIP3    H261725   0.051   2.792  14.130  0.2186  0.2781 -2.5313
13412TIP3   OH261726   1.192   1.661   1.840  0.7982  0.0050  0.6394
13412TIP3    H161727   1.110   1.697   1.875 -0.1140 -1.3544 -0.0321
13412TIP3    H261728   1.189   1.683   1.746  1.7657  0.9577  0.8214
13413TIP3   OH261729   5.410   4.860   2.039 -0.4292 -0.2052  0.6583
13413TIP3    H161730   5.371   4.913   1.969 -0.6595 -0.9256  0.2373
13413TIP3    H261731   5.399   4.769   2.009  2.3497 -0.3914  0.1353
13414TIP3   OH261732   5.213   3.631  13.544  0.0824 -0.1948  0.3506
13414TIP3    H161733   5.263   3.598  13.618  0.9055  1.2408  0.4676
13414TIP3    H261734   5.172   3.711  13.576 -1.3656 -0.7418 -0.0960
13415TIP3   OH261735   0.874   3.520  16.358 -0.0489  0.0794  0.1197
13415TIP3    H161736   0.864   3.579  16.432 -0.6843  2.2462 -1.6624
13415TIP3    H261737   0.964   3.535  16.327 -0.3374  0.4206 -0.5740
13416TIP3   OH261738   3.377   2.884  16.045 -0.3990  0.0287  0.3540
13416TIP3    H161739   3.309   2.928  15.995 -0.1065  0.6351  0.4787
13416TIP3    H261740   3.458   2.907  16.000 -0.2733 -0.6498  0.2302
13417TIP3   OH261741   2.195   3.013   2.962  0.5198  0.5743  0.2520
13417TIP3    H161742   2.109   2.975   2.949  1.6458 -1.8259 -0.3422
13417TIP3    H261743   2.243   2.949   3.015  2.1246  1.6232  0.1219
13418TIP3   OH261744   1.050   4.893  15.662 -0.2656 -0.4075  0.3150
13418TIP3    H161745   0.990   4.961  15.633  1.9523  0.9704 -1.1839
13418TIP3    H261746   1.124   4.940  15.700  0.3141 -2.0393  1.2816
13419TIP3   OH261747   2.895   2.172   5.438 -0.1834 -0.2551 -0.0498
13419TIP3    H161748   2.953   2.098   5.453 -0.2702 -0.3329 -0.1019
13419TIP3    H261749   2.812   2.134   5.411 -0.0605 -0.1229 -0.6231
13420TIP3   OH261750   6.666   3.217   6.746 -0.0644 -0.0653  0.2639
13420TIP3    H161751   6.650   3.157   6.673  0.2647 -0.4103  0.4743
13420TIP3    H261752   6.592   3.278   6.744  0.4256  0.5151 -0.9473
13421TIP3   OH261753   3.222   5.468   2.813 -0.8301  0.1680  0.0648
13421TIP3    H161754   3.231   5.530   2.886 -1.5529  2.0022 -1.3668
13421TIP3    H261755   3.311   5.450   2.785 -0.6533  1.5048 -0.2594
13422TIP3   OH261756   6.130   3.939  11.364 -0.7340  0.0031  0.0581
13422TIP3    H161757   6.225   3.946  11.352 -0.3345 -1.8276  1.9951
13422TIP3    H261758   6.106   4.019  11.410 -0.2926  0.8701 -1.1689
13423TIP3   OH261759   5.682   4.094   6.308 -0.1975  0.4864  0.2434
13423TIP3    H161760   5.588   4.105   6.298 -0.5338  0.0978  2.6052
13423TIP3    H261761   5.692   4.014   6.360  1.3981  1.0371  0.8251
13424TIP3   OH261762   1.038   1.437   3.170  0.4175 -0.1659 -0.1021
13424TIP3    H161763   0.976   1.456   3.241  0.2989 -0.7528 -0.0505
13424TIP3    H261764   1.101   1.509   3.174 -0.5564  0.7269 -0.4919
13425TIP3   OH261765   1.432   2.676   0.694 -0.1162 -0.3782  0.1538
13425TIP3    H161766   1.506   2.623   0.667 -0.1993 -1.3482  1.7681
13425TIP3    H261767   1.393   2.628   0.767 -1.4913  0.8204  0.2433
13426TIP3   OH261768   3.455   3.127   1.539  0.2981  0.1544  0.2890
13426TIP3    H161769   3.405   3.051   1.569 -1.2845  0.4214 -1.5481
13426TIP3    H261770   3.466   3.112   1.445  0.6584  1.8086  0.0615
13427TIP3   OH261771   2.013   0.223  16.117 -0.4465  0.5107 -0.0859
13427TIP3    H161772   2.055   0.143  16.147 -0.4766 -0.5347 -2.7426
13427TIP3    H261773   2.075   0.293  16.138  0.4456 -0.4410  0.4463
13428TIP3   OH261774   6.220   1.292  15.256  0.4771 -0.3224  0.6262
13428TIP3    H161775   6.285   1.282  15.187  0.4192 -0.3045  0.5671
13428TIP3    H261776   6.152   1.347  15.217  0.2619 -0.6287  0.5669
13429TIP3   OH261777   4.226   2.565   6.470  0.4658 -0.1208 -0.0249
13429TIP3    H161778   4.304   2.575   6.524  0.9581  0.8824 -0.9273
13429TIP3    H261779   4.244   2.488   6.416  3.1107  3.0582 -4.0072
13430TIP3   OH261780   0.649   4.847  16.546 -0.2044  0.1852 -0.4358
13430TIP3    H161781   0.615   4.770  16.591  2.6361 -0.3542  0.9311
13430TIP3    H261782   0.637   4.827  16.453  0.8118 -2.1093 -0.1184
13431TIP3   OH261783   4.850   1.457  11.808  0.2613  0.6396  0.1711
13431TIP3    H161784   4.852   1.361  11.804 -2.7112  0.4971  0.5780
13431TIP3    H261785   4.859   1.478  11.900 -1.3799  0.6090  0.3580
13432TIP3   OH261786   3.723   1.211  14.651 -0.1025  0.2929 -0.0542
13432TIP3    H161787   3.756   1.220  14.741  1.0366  0.9981 -0.5370
13432TIP3    H261788   3.650   1.273  14.646 -1.0358 -0.7218  0.7898
13433TIP3   OH261789   6.725   6.400  11.146 -0.0824  0.2133  0.0748
13433TIP3    H161790   6.804   6.435  11.187  0.1870  0.0170 -0.2720
13433TIP3    H261791   6.730   6.429  11.055 -0.3917  0.1750  0.0450
13434TIP3   OH261792   3.701   5.731   0.656 -0.2045 -0.1061  1.4464
13434TIP3    H161793   3.758   5.693   0.722 -0.6013 -2.7192  0.3403
13434TIP3    H261794   3.614   5.699   0.679 -0.5757  0.2904  0.5930
13435TIP3   OH261795   2.367   6.417   2.161 -0.0224  0.4081  0.2139
13435TIP3    H161796   2.391   6.510   2.161 -3.1948  1.2787 -0.2692
13435TIP3    H261797   2.433   6.376   2.106  0.3788  2.6697 -1.0604
13436TIP3   OH261798   6.536   3.899  13.697  0.2520 -0.0541 -0.4405
13436TIP3    H161799   6.456   3.906  13.644 -1.0751  1.4347  1.6713
13436TIP3    H261800   6.597   3.960  13.656  0.8382 -2.1719 -2.8703
13437TIP3   OH261801   6.568   1.172  13.374 -0.8119 -0.3381 -0.2116
13437TIP3    H161802   6.625   1.183  13.450  0.8583 -2.7928 -1.0518
13437TIP3    H261803   6.484   1.144  13.410 -0.2243 -0.8500  0.7457
13438TIP3   OH261804   6.035   0.160   1.152  0.4878 -0.1020  0.1061
13438TIP3    H161805   5.981   0.088   1.186  0.3481  0.2554  0.6468
13438TIP3    H261806   6.026   0.229   1.217 -0.6548  1.0143 -1.2183
13439TIP3   OH261807   5.267   5.899   6.164 -0.1951 -0.1764  1.0852
13439TIP3    H161808   5.292   5.847   6.240  0.9374 -1.3012 -0.0368
13439TIP3    H261809   5.219   5.973   6.201 -0.1278 -0.9806  2.8510
13440TIP3   OH261810   0.877   0.057  14.517  0.3352 -0.5239 -0.3781
13440TIP3    H161811   0.945  -0.009  14.521 -0.2479 -1.1289 -0.3271
13440TIP3    H261812   0.796   0.010  14.538  0.2281  0.6682  1.9933
13441TIP3   OH261813   5.345   4.964   0.478  0.2769  0.2435  0.6407
13441TIP3    H161814   5.338   5.010   0.562 -0.6356 -0.4327  0.9456
13441TIP3    H261815   5.344   4.871   0.502 -1.4828  0.0342 -0.2165
13442TIP3   OH261816   3.242   1.800   4.583  0.4081  0.7066  0.1421
13442TIP3    H161817   3.156   1.841   4.582 -0.2420 -0.6702 -0.6752
13442TIP3    H261818   3.228   1.715   4.626  1.0934 -0.0756 -1.1692
13443TIP3   OH261819   3.298   4.887  12.869  0.1800  0.3910 -0.3300
13443TIP3    H161820   3.320   4.926  12.784  0.2874  0.1931 -0.3918
13443TIP3    H261821   3.353   4.809  12.874 -1.2088 -0.6431 -0.9123
13444TIP3   OH261822   6.707   5.215  15.197  0.3293  0.1225 -0.3585
13444TIP3    H161823   6.800   5.199  15.216  0.5361  0.9512 -0.6284
13444TIP3    H261824   6.662   5.138  15.230  0.9736  0.3081  0.9719
13445TIP3   OH261825   3.515   3.990  11.857  0.1348 -0.7570  0.2431
13445TIP3    H161826   3.512   4.076  11.815 -1.2197 -1.8698 -2.0409
13445TIP3    H261827   3.494   4.008  11.949 -2.2857  1.0954 -0.6180
13446TIP3   OH261828   2.452   5.903   3.458 -0.5319  0.2442 -0.3464
13446TIP3    H161829   2.445   5.814   3.494 -1.9864  0.6873  0.5471
13446TIP3    H261830   2.443   5.892   3.364  0.6518 -0.6912 -0.3481
13447TIP3   OH261831   6.320   1.806   2.925 -0.2261  0.0110 -0.0567
13447TIP3    H161832   6.384   1.773   2.862  0.3002  0.3145  0.3117
13447TIP3    H261833   6.266   1.867   2.875 -0.3307 -0.3778 -0.4110
13448TIP3   OH261834   4.397   3.268   3.948 -0.0170  0.3849  0.2263
13448TIP3    H161835   4.337   3.282   3.874 -0.0257 -0.4477  0.0749
13448TIP3    H261836   4.460   3.340   3.941  0.0430  0.2545 -0.6558
13449TIP3   OH261837   2.343   3.300  13.529  0.0795  0.8541  0.3020
13449TIP3    H161838   2.404   3.369  13.554  0.7472  0.1820  0.5288
13449TIP3    H261839   2.385   3.256  13.454  0.7616 -0.7909  1.6103
13450TIP3   OH261840   4.647   3.778  13.012  0.0136  0.0889  0.2603
13450TIP3    H161841   4.558   3.806  12.990 -0.2285 -0.8014  0.0702
13450TIP3    H261842   4.643   3.755  13.104 -0.4089 -1.6634 -0.1804
13451TIP3   OH261843   4.381   5.445  14.442 -0.4130  0.0696  0.1727
13451TIP3    H161844   4.329   5.422  14.365 -0.1701  0.6458 -0.1625
13451TIP3    H261845   4.472   5.443  14.411 -0.2265 -0.9086  0.7491
13452TIP3   OH261846   2.577   2.243   1.034 -0.0564  0.3909  0.0757
13452TIP3    H161847   2.592   2.148   1.034 -0.6322  0.2884  1.0127
13452TIP3    H261848   2.662   2.281   1.053  0.0614  0.0264  0.2901
13453TIP3   OH261849   1.711   0.596   4.070 -0.2429  0.0526 -0.2074
13453TIP3    H161850   1.633   0.584   4.124 -0.2554 -0.6236 -0.3664
13453TIP3    H261851   1.697   0.536   3.996 -0.1661  0.8721 -0.8843
13454TIP3   OH261852   1.411   0.369  12.569  0.1783  0.0762  0.2523
13454TIP3    H161853   1.318   0.373  12.548  0.3329 -0.3218 -0.5293
13454TIP3    H261854   1.435   0.459  12.590  0.0334  0.5094 -1.3761
13455TIP3   OH261855   1.987   3.366  15.371  0.4793 -0.6383  0.1399
13455TIP3    H161856   2.017   3.399  15.287 -3.3820 -0.8067 -1.4075
13455TIP3    H261857   2.010   3.435  15.433  1.3133  0.5358 -1.4418
13456TIP3   OH261858   3.798   2.884   0.117 -0.1725  0.1079  0.1284
13456TIP3    H161859   3.803   2.974   0.149 -0.0768 -0.0269  0.4975
13456TIP3    H261860   3.835   2.888   0.029 -2.3831  0.8818 -0.8065
13457TIP3   OH261861   0.110   5.351   3.182  0.3792 -0.2823 -0.4298
13457TIP3    H161862   0.133   5.297   3.107 -0.7771  0.8302 -1.6157
13457TIP3    H261863   0.059   5.423   3.145 -2.3170 -0.9945  1.7002
13458TIP3   OH261864   5.731   5.177   5.864 -0.5756 -0.5877  0.1819
13458TIP3    H161865   5.655   5.143   5.817 -0.7977  0.6140 -0.3540
13458TIP3    H261866   5.751   5.260   5.820  0.8875 -0.7599  0.4794
13459TIP3   OH261867   1.359   2.993  12.800 -0.0124  0.5546 -0.6970
13459TIP3    H161868   1.358   3.064  12.735  0.8309 -0.1289 -1.4655
13459TIP3    H261869   1.361   2.913  12.748 -2.0143 -0.0826  0.1633
13460TIP3   OH261870   0.113   6.041   3.122 -0.0853 -0.8119 -0.1449
13460TIP3    H161871   0.037   6.098   3.113 -0.4116 -1.0438  1.0867
13460TIP3    H261872   0.097   5.970   3.060 -1.5376 -1.5526  1.0440
13461TIP3   OH261873   4.523   5.971  14.125 -0.1032 -0.6245  0.2110
13461TIP3    H161874   4.461   5.899  14.138  0.0809 -1.0879 -1.3630
13461TIP3    H261875   4.608   5.936  14.152 -0.2327 -0.5638  0.6968
13462TIP3   OH261876   4.646   0.418   4.950 -0.1767 -0.1339 -0.0503
13462TIP3    H161877   4.730   0.395   4.988 -0.2179 -0.1986  0.0037
13462TIP3    H261878   4.656   0.401   4.856 -0.1868 -0.3143 -0.0200
13463TIP3   OH261879   3.515   0.430   1.193  0.1206 -0.6355 -0.2817
13463TIP3    H161880   3.576   0.365   1.227  0.4053 -0.0655  0.2880
13463TIP3    H261881   3.570   0.495   1.149  0.1528  1.2469  2.4360
13464TIP3   OH261882   1.551   1.310  10.902 -0.1523  0.2861  0.2519
13464TIP3    H161883   1.610   1.380  10.931 -0.6637  0.0942  1.8025
13464TIP3    H261884   1.596   1.229  10.927  0.2904  0.0431 -1.2534
13465TIP3   OH261885   1.625   3.052  11.517 -0.3077  0.4807 -0.2142
13465TIP3    H161886   1.614   3.030  11.424  1.3273  0.4897 -0.4205
13465TIP3    H261887   1.626   2.967  11.561  1.3208  0.3276 -0.4953
13466TIP3   OH261888   1.858   1.501  14.538 -0.1945  0.8286  0.5054
13466TIP3    H161889   1.810   1.575  14.499 -0.4263  0.0992 -0.6283
13466TIP3    H261890   1.832   1.501  14.630  0.6527  2.8227  0.7554
13467TIP3   OH261891   4.818   6.173   0.128 -0.2751  0.1815  0.0547
13467TIP3    H161892   4.855   6.155   0.041  0.0398 -0.3976  0.3054
13467TIP3    H261893   4.889   6.153   0.189 -0.4109  0.8382  0.4334
13468TIP3   OH261894   6.265   5.993   3.446  0.6147  0.1384 -0.1984
13468TIP3    H161895   6.323   6.068   3.439 -0.2004  0.6897 -1.2490
13468TIP3    H261896   6.315   5.928   3.495  2.7037  0.0472 -2.3279
13469TIP3   OH261897   3.961   3.318  13.307 -0.2923 -0.2663  0.0387
13469TIP3    H161898   4.040   3.265  13.293 -0.4357 -0.7156  0.8858
13469TIP3    H261899   3.939   3.305  13.400 -0.2410  1.4128  0.2975
13470TIP3   OH261900   1.405   4.006   5.048  0.3079 -0.0484 -0.0415
13470TIP3    H161901   1.374   3.927   5.093 -0.8992  0.9643  0.9487
13470TIP3    H261902   1.326   4.060   5.039  1.2103  1.2203 -0.3572
13471TIP3   OH261903   4.983   2.517   0.766  0.0478  0.2816 -0.2109
13471TIP3    H161904   4.930   2.444   0.796 -0.0198 -0.3116 -1.7073
13471TIP3    H261905   4.982   2.509   0.670  1.3698  1.2911 -0.3186
13472TIP3   OH261906   3.107   3.239   4.430 -0.4934 -0.1265  0.0752
13472TIP3    H161907   3.148   3.196   4.355  0.1115  1.1023 -0.3068
13472TIP3    H261908   3.047   3.303   4.392 -2.4532 -1.5492  0.6274
13473TIP3   OH261909   4.155   4.468   1.365  0.3350  0.3177  0.0552
13473TIP3    H161910   4.089   4.511   1.419  0.2595  0.2158  0.0438
13473TIP3    H261911   4.168   4.527   1.290 -0.8739 -0.4107 -0.7332
13474TIP3   OH261912   5.524   3.026   5.850 -0.1551  0.3585  0.6250
13474TIP3    H161913   5.436   3.004   5.818 -0.1312  0.8159  0.2317
13474TIP3    H261914   5.534   2.975   5.930 -1.5987  1.8324  1.7979
13475TIP3   OH261915   4.310   0.165   3.256  0.4866  0.4532 -0.2489
13475TIP3    H161916   4.377   0.228   3.283  0.0137  1.0074 -0.3730
13475TIP3    H261917   4.228   0.214   3.259 -0.5835 -1.3019  4.0894
13476TIP3   OH261918   4.209   6.415   0.379 -0.0441  0.0377 -0.2612
13476TIP3    H161919   4.211   6.373   0.465  0.1131  2.2346  0.8372
13476TIP3    H261920   4.187   6.506   0.398  0.3026  0.6078 -2.5410
13477TIP3   OH261921   2.415   2.264   4.329  0.1263 -0.4255  0.1318
13477TIP3    H161922   2.432   2.233   4.418 -1.2378  1.8938  1.2430
13477TIP3    H261923   2.494   2.312   4.305  0.5907 -1.2534 -0.0059
13478TIP3   OH261924   3.061   0.166   1.094 -0.3836  0.3900 -0.5977
13478TIP3    H161925   3.078   0.077   1.063 -1.0287 -0.5882  1.7370
13478TIP3    H261926   3.142   0.213   1.076 -0.1539 -0.5801 -2.1787
13479TIP3   OH261927   4.318   4.612   4.117 -0.2527 -0.0772  0.1510
13479TIP3    H161928   4.342   4.552   4.188  1.4742  1.3074  0.7728
13479TIP3    H261929   4.336   4.563   4.037  1.7808 -0.1806  0.6432
13480TIP3   OH261930   6.300   3.554  10.710  0.3032 -0.1592  0.2632
13480TIP3    H161931   6.238   3.499  10.759  1.9637 -0.7133  1.8161
13480TIP3    H261932   6.301   3.637  10.757  0.5579 -0.0796  0.1187
13481TIP3   OH261933   5.852   2.128  11.801 -0.1284  0.3032 -0.8300
13481TIP3    H161934   5.788   2.137  11.730 -2.6172  1.3084  1.4484
13481TIP3    H261935   5.886   2.217  11.813 -0.3805  0.3255 -0.2242
13482TIP3   OH261936   2.338   6.230   2.809  0.1192  0.3767 -0.1383
13482TIP3    H161937   2.405   6.277   2.761 -1.3505  1.2191 -1.4027
13482TIP3    H261938   2.349   6.259   2.900  0.6501  1.4489 -0.5441
13483TIP3   OH261939   2.975   0.790  14.424 -0.0806 -0.5808 -0.1656
13483TIP3    H161940   3.067   0.780  14.449 -0.2937 -2.5719 -0.0961
13483TIP3    H261941   2.958   0.884  14.431  2.0144 -0.1621 -0.4376
13484TIP3   OH261942   1.363   2.114   4.436  0.0259  0.0535  0.7720
13484TIP3    H161943   1.305   2.041   4.456 -0.6632  0.2518 -0.4744
13484TIP3    H261944   1.326   2.188   4.485 -1.1819  0.3415 -0.5353
13485TIP3   OH261945   0.398   5.931   5.337 -0.0216 -0.0344 -0.5953
13485TIP3    H161946   0.367   5.872   5.269 -2.7601  1.0883 -0.3651
13485TIP3    H261947   0.383   5.883   5.419 -1.5521  0.6613 -0.4584
13486TIP3   OH261948   2.371   6.121  13.318  0.1088 -0.0705 -0.3213
13486TIP3    H161949   2.369   6.031  13.283 -0.1870 -0.5097  0.8237
13486TIP3    H261950   2.280   6.140  13.340 -0.1492  1.2615 -2.4178
13487TIP3   OH261951   1.663   5.489  15.342  0.1403 -0.7979 -0.0284
13487TIP3    H161952   1.596   5.454  15.283  0.0100 -0.1603 -0.2699
13487TIP3    H261953   1.665   5.428  15.416 -2.0284  0.1596  0.8720
13488TIP3   OH261954   0.208   4.421  13.445 -0.4010 -0.7162 -0.1441
13488TIP3    H161955   0.157   4.450  13.369  1.2271  0.6488 -0.7589
13488TIP3    H261956   0.147   4.429  13.519 -0.9783  1.2931 -0.7878
13489TIP3   OH261957   3.984   2.191  11.491 -0.1514 -0.5998  0.1978
13489TIP3    H161958   3.931   2.268  11.470  1.9711  0.7023 -0.5398
13489TIP3    H261959   3.980   2.184  11.586 -1.9610 -0.7682  0.1303
13490TIP3   OH261960   5.406   6.706  14.439 -0.2302  0.4415  0.0150
13490TIP3    H161961   5.353   6.784  14.451 -1.2513 -0.3287  0.5511
13490TIP3    H261962   5.362   6.658  14.369  0.3181  0.2783 -0.2204
13491TIP3   OH261963   2.985   6.007   3.471  0.2281 -0.0800  0.1045
13491TIP3    H161964   2.990   5.912   3.476  0.0509 -0.1221 -0.5414
13491TIP3    H261965   2.896   6.028   3.501 -0.3273 -0.2398 -1.3732
13492TIP3   OH261966   1.314   1.436  13.878  0.2993  0.4277  0.2248
13492TIP3    H161967   1.304   1.506  13.942  0.1134  0.2218  0.4222
13492TIP3    H261968   1.395   1.391  13.903 -0.3424 -0.3322  0.9756
13493TIP3   OH261969   0.975   3.115  16.301  0.6862  0.1150 -0.0529
13493TIP3    H161970   0.986   3.022  16.321 -2.8088 -0.0808  1.4579
13493TIP3    H261971   0.898   3.118  16.244  0.3280  2.1210  0.5015
13494TIP3   OH261972   3.888   1.609   1.646  0.1543  0.1543 -0.0777
13494TIP3    H161973   3.841   1.539   1.601  0.4124 -1.3991  1.9883
13494TIP3    H261974   3.974   1.611   1.604 -1.1777  1.9641 -2.8267
13495TIP3   OH261975   5.642   5.512   1.148 -0.5372  0.2576  0.7656
13495TIP3    H161976   5.607   5.424   1.159  1.3549 -0.8949 -1.8285
13495TIP3    H261977   5.565   5.568   1.141 -1.7855 -1.4606  0.4562
13496TIP3   OH261978   1.667   4.924  16.306  0.3684 -0.1591 -0.0505
13496TIP3    H161979   1.673   4.979  16.384 -0.3273 -1.8107  1.1939
13496TIP3    H261980   1.757   4.896  16.289  0.9071  2.2111 -1.3633
13497TIP3   OH261981   3.481   1.687  12.438  0.4287  0.2411  0.2093
13497TIP3    H161982   3.492   1.592  12.437 -1.0136  0.0648  0.0786
13497TIP3    H261983   3.480   1.710  12.531 -0.4255 -0.0283  0.2720
13498TIP3   OH261984   2.866   4.759  12.914 -0.1065 -0.4879 -0.2301
13498TIP3    H161985   2.871   4.669  12.944 -1.6783 -0.9970 -1.4452
13498TIP3    H261986   2.838   4.753  12.822 -2.1805  1.2895  0.2449
13499TIP3   OH261987   5.998   3.653   1.160 -0.3093  0.3669  0.5555
13499TIP3    H161988   5.974   3.620   1.073  0.7534  0.1668  0.3235
13499TIP3    H261989   5.929   3.622   1.218 -0.8583  0.2246 -0.1680
13500TIP3   OH261990   0.372   2.735   0.991  0.0567 -0.3349 -0.1186
13500TIP3    H161991   0.301   2.770   1.045 -0.1775  2.9825 -2.4005
13500TIP3    H261992   0.330   2.710   0.909  1.3820  1.2877 -1.3455
13501TIP3   OH261993   0.595   1.645  14.067 -0.0871 -0.0763  0.1856
13501TIP3    H161994   0.666   1.597  14.108 -0.6877 -1.1424  0.0044
13501TIP3    H261995   0.602   1.624  13.974  0.6998  1.5859 -0.1562
13502TIP3   OH261996   3.986   5.946  14.297 -0.5991  0.3944 -0.0596
13502TIP3    H161997   4.073   5.985  14.306 -0.3915  0.0385 -0.5382
13502TIP3    H261998   3.968   5.949  14.203 -1.2396  0.7549  0.0712
13503TIP3   OH261999   4.469   0.549   5.296 -0.2531  1.2215 -0.6639
13503TIP3    H162000   4.537   0.493   5.333 -0.7753  0.4099 -0.9131
13503TIP3    H262001   4.435   0.598   5.370 -0.7868  0.1401 -0.1829
13504TIP3   OH262002   4.216   1.863   2.931 -0.4935  0.3057  0.2868
13504TIP3    H162003   4.137   1.908   2.961 -1.5382 -0.9056 -0.5886
13504TIP3    H262004   4.183   1.794   2.873  1.1904 -0.4498  0.2178
13505TIP3   OH262005   5.288   5.410   2.345  0.3306 -0.0494  0.6470
13505TIP3    H162006   5.291   5.459   2.264  0.2833  1.0632  1.3075
13505TIP3    H262007   5.202   5.428   2.382 -0.5982 -2.4739 -0.2063
13506TIP3   OH262008   0.318   2.970  15.500 -0.0430  0.0933 -0.3802
13506TIP3    H162009   0.400   2.925  15.482 -0.0379 -0.3439  0.6808
13506TIP3    H262010   0.258   2.941  15.432  0.0030 -1.4098  0.2045
13507TIP3   OH262011   1.484   3.006   3.248 -0.7612 -0.1361  0.4529
13507TIP3    H162012   1.565   3.000   3.198 -1.6011 -1.6941 -0.7633
13507TIP3    H262013   1.482   2.926   3.300 -1.9772 -0.5756 -0.2479
13508TIP3   OH262014   3.818   5.200  11.458 -0.4702  0.6900  0.0930
13508TIP3    H162015   3.871   5.137  11.409 -0.2313 -0.2438  1.5173
13508TIP3    H262016   3.729   5.186  11.427 -0.1616  0.9726 -0.9593
13509TIP3   OH262017   5.481   3.754  12.869 -0.5510  0.1919  0.6335
13509TIP3    H162018   5.506   3.828  12.815  0.9927 -1.3820 -0.8431
13509TIP3    H262019   5.509   3.778  12.957 -0.2016  1.4105  0.1950
13510TIP3   OH262020   5.975   4.426  16.026 -0.1884  0.3214 -0.4065
13510TIP3    H162021   5.980   4.518  16.053  1.2226 -0.2990  1.5786
13510TIP3    H262022   6.053   4.412  15.972 -1.0003  0.5715 -1.6573
13511TIP3   OH262023   5.854   2.443  14.000  0.2253 -0.1209  0.1089
13511TIP3    H162024   5.761   2.422  13.996  0.0272  0.8662 -0.8653
13511TIP3    H262025   5.858   2.535  13.975  1.4783 -0.1947  0.0276
13512TIP3   OH262026   3.522   3.710   3.898 -0.0937 -0.2867  0.2616
13512TIP3    H162027   3.448   3.770   3.905  0.5729  0.3796  1.6213
13512TIP3    H262028   3.572   3.722   3.979  2.0773  0.0140 -1.0799
13513TIP3   OH262029   5.716   4.102  15.112 -0.6733 -0.0446 -0.1017
13513TIP3    H162030   5.630   4.077  15.077  0.1327 -1.5603 -1.0311
13513TIP3    H262031   5.733   4.188  15.074 -0.7422 -0.7673 -1.8284
13514TIP3   OH262032   4.646   0.705   5.736  0.0440  0.0052  0.2507
13514TIP3    H162033   4.632   0.637   5.801  0.8213 -1.1997 -0.8112
13514TIP3    H262034   4.729   0.682   5.695  0.0087  1.2529 -0.5448
13515TIP3   OH262035   2.763   1.251  17.140 -0.5304  0.1626 -0.3721
13515TIP3    H162036   2.804   1.170  17.108 -0.7683 -0.2522  0.3441
13515TIP3    H262037   2.825   1.285  17.205  0.1617  1.2389 -1.5781
13516TIP3   OH262038   6.479   3.705   4.686 -0.0191 -0.4888  0.3880
13516TIP3    H162039   6.542   3.696   4.757  0.9278 -0.8008 -0.4737
13516TIP3    H262040   6.471   3.617   4.649  1.1359  0.0601 -1.2485
13517TIP3   OH262041   6.504   2.122  17.194  0.2688  0.2128  0.4017
13517TIP3    H162042   6.561   2.195  17.172 -0.3698  1.1414  1.7293
13517TIP3    H262043   6.499   2.070  17.114 -0.6398  2.5358 -1.0850
13518TIP3   OH262044   5.558   5.659  15.328  0.1079 -0.3315 -0.2789
13518TIP3    H162045   5.495   5.629  15.263  0.0353  0.7696 -0.7380
13518TIP3    H262046   5.541   5.605  15.405 -2.2819  0.8139  0.0415
13519TIP3   OH262047   3.455   0.698   6.086  0.7455  0.0462  0.6244
13519TIP3    H162048   3.540   0.737   6.109  0.2400  1.0192  0.8732
13519TIP3    H262049   3.407   0.769   6.044 -0.0463 -0.4286  0.7233
13520TIP3   OH262050   1.324   1.513  12.515  0.2339 -0.0134 -0.3134
13520TIP3    H162051   1.289   1.601  12.528 -0.1019 -0.3336  1.0201
13520TIP3    H262052   1.403   1.526  12.462  0.9796  1.2308  1.0734
13521TIP3   OH262053   5.563   4.231   4.195  0.2633 -0.1629  0.4137
13521TIP3    H162054   5.545   4.292   4.266 -2.4951 -0.9733  0.4608
13521TIP3    H262055   5.593   4.286   4.123  0.1218  0.9937  1.2305
13522TIP3   OH262056   2.419   3.267   5.762  0.2476  0.0829 -0.1174
13522TIP3    H162057   2.413   3.288   5.856 -1.2204 -0.3243 -0.0940
13522TIP3    H262058   2.340   3.215   5.745 -1.2758  3.0022 -2.3091
13523TIP3   OH262059   3.443   5.356  12.772  0.6170  0.6924 -0.1875
13523TIP3    H162060   3.351   5.361  12.746  0.7763 -0.7604 -1.0580
13523TIP3    H262061   3.486   5.308  12.702  1.8060  0.2363  0.8277
13524TIP3   OH262062   1.605   0.849   5.565 -0.4345 -0.3124 -0.2382
13524TIP3    H162063   1.606   0.898   5.648  0.2150 -0.3745 -0.2063
13524TIP3    H262064   1.687   0.875   5.522 -1.2795  0.5493 -1.3418
13525TIP3   OH262065   2.080   2.922   4.510  0.1807 -0.3097 -0.0228
13525TIP3    H162066   2.006   2.868   4.537  0.6329 -0.8554  0.1261
13525TIP3    H262067   2.080   2.918   4.414 -0.2334  0.0396 -0.0435
13526TIP3   OH262068   1.178   4.225   4.220 -0.3647 -0.8950 -0.1448
13526TIP3    H162069   1.089   4.260   4.223  1.0145  3.0139 -1.3256
13526TIP3    H262070   1.197   4.200   4.310 -2.1591 -0.4156  0.3922
13527TIP3   OH262071   2.575   1.939  13.679  0.2217  0.3150  0.3505
13527TIP3    H162072   2.634   1.991  13.734 -0.3710 -0.5112  1.8068
13527TIP3    H262073   2.495   1.992  13.674  1.0641  1.4616 -1.6720
13528TIP3   OH262074   5.693   6.504   2.353 -0.1893 -0.5035 -0.2709
13528TIP3    H162075   5.731   6.536   2.271 -0.3565  0.1728 -0.0864
13528TIP3    H262076   5.710   6.574   2.416  0.7918 -1.4343  0.5143
13529TIP3   OH262077   5.257   5.849   5.882 -0.2655 -0.2112  0.2391
13529TIP3    H162078   5.242   5.882   5.971 -0.4098  1.7521 -0.4991
13529TIP3    H262079   5.351   5.855   5.870 -0.3452  0.3968 -0.0778
13530TIP3   OH262080   6.525   4.288   3.665 -0.6557 -0.0805  0.9447
13530TIP3    H162081   6.549   4.283   3.572  0.8108  1.4205  1.2145
13530TIP3    H262082   6.490   4.376   3.676  0.2708  0.1646  2.0490
13531TIP3   OH262083   5.038   5.680   3.428  0.1700  0.2846 -0.0089
13531TIP3    H162084   5.061   5.771   3.407  0.9528 -0.1260 -0.9257
13531TIP3    H262085   5.107   5.652   3.488 -0.6119  0.5951  1.0686
13532TIP3   OH262086   1.935   6.789  12.991 -0.1032 -0.5524  0.3200
13532TIP3    H162087   1.873   6.727  13.030 -2.4654 -0.0406 -2.4328
13532TIP3    H262088   1.913   6.873  13.030 -2.2078 -0.1112 -1.6677
13533TIP3   OH262089   3.400   5.003  12.629 -0.2624  0.2032  0.1977
13533TIP3    H162090   3.373   5.001  12.537 -1.1477 -1.4059  0.4749
13533TIP3    H262091   3.473   4.941  12.634  0.8115  1.4726  0.2658
13534TIP3   OH262092   0.418   0.885   2.031 -0.1552 -0.2791 -0.1588
13534TIP3    H162093   0.442   0.948   1.963  2.5752  0.7180  1.6333
13534TIP3    H262094   0.391   0.939   2.105 -0.9540 -1.2991  0.2996
13535TIP3   OH262095   1.305   1.521  11.310  0.0811 -1.0931 -0.6712
13535TIP3    H162096   1.318   1.429  11.286 -1.0632 -1.6385  0.7191
13535TIP3    H262097   1.294   1.520  11.405  0.5452  0.5465 -0.5831
13536TIP3   OH262098   3.925   4.149   4.337  0.1026 -0.1479  0.2213
13536TIP3    H162099   3.988   4.159   4.408  0.0037 -2.4485  0.6552
13536TIP3    H262100   3.868   4.226   4.344  0.0444 -0.3807  2.6715
13537TIP3   OH262101   5.476   5.277   5.948  0.1281  0.3231 -0.3792
13537TIP3    H162102   5.470   5.185   5.973 -1.0986  0.3846 -0.4537
13537TIP3    H262103   5.489   5.275   5.853  0.7304  0.2131 -0.2963
13538TIP3   OH262104   4.297   4.978   5.432  0.0346  0.1766 -0.0090
13538TIP3    H162105   4.257   4.928   5.360  0.8055  1.9913 -1.7438
13538TIP3    H262106   4.232   4.975   5.502 -0.3659 -2.3740 -0.4435
13539TIP3   OH262107   2.967   0.822   5.068 -0.1280  0.2591 -0.4049
13539TIP3    H162108   2.967   0.898   5.010 -0.8027  0.4764 -0.1287
13539TIP3    H262109   3.040   0.768   5.038  0.3380  1.0052 -0.6165
13540TIP3   OH262110   0.484   2.095  14.048  0.1791 -0.1796 -0.1261
13540TIP3    H162111   0.415   2.031  14.035 -0.5641  0.0195  2.4296
13540TIP3    H262112   0.450   2.153  14.116  2.9203 -0.2077  1.3612
13541TIP3   OH262113   0.169   0.749   5.672 -0.2007 -0.5582 -0.0114
13541TIP3    H162114   0.109   0.823   5.682 -0.1159 -0.3173 -1.2246
13541TIP3    H262115   0.142   0.687   5.740 -1.2664 -0.0807  0.0148
13542TIP3   OH262116   6.297   0.003  12.944 -0.0877  0.2304 -0.1464
13542TIP3    H162117   6.210  -0.028  12.972 -0.0106  2.3509  2.6430
13542TIP3    H262118   6.289   0.098  12.943  1.6647  0.3896 -1.8715
13543TIP3   OH262119   0.852   3.035  15.287  0.7858  0.3826 -0.5456
13543TIP3    H162120   0.929   3.011  15.338 -0.6353 -2.6454  0.2251
13543TIP3    H262121   0.881   3.027  15.196  1.5146 -0.2100 -0.2651
13544TIP3   OH262122   6.655   2.553  16.528 -0.2217 -0.6530 -0.5416
13544TIP3    H162123   6.708   2.617  16.577 -2.7001 -0.1905  1.6166
13544TIP3    H262124   6.713   2.478  16.518  2.1278  1.1966 -1.5238
13545TIP3   OH262125   0.198   2.116   2.678 -0.3318 -0.1173 -0.1641
13545TIP3    H162126   0.284   2.147   2.651  0.8101 -3.5420 -0.6832
13545TIP3    H262127   0.149   2.107   2.596 -0.2801 -0.7392 -0.1285
13546TIP3   OH262128   0.169   2.848  14.397 -0.0371  0.0022 -0.1098
13546TIP3    H162129   0.233   2.858  14.467 -0.7193 -1.3541  0.7317
13546TIP3    H262130   0.121   2.931  14.397  1.4155  0.8463 -0.4488
13547TIP3   OH262131   5.647   6.396  14.038  0.5534 -0.2887  0.1663
13547TIP3    H162132   5.554   6.390  14.058  0.0588 -0.2233 -1.9975
13547TIP3    H262133   5.673   6.306  14.016  0.6161 -0.0377 -0.8043
13548TIP3   OH262134   2.092   5.843   0.063  0.5842 -0.6074 -0.5528
13548TIP3    H162135   2.119   5.836   0.155 -1.3845  1.8381  0.2674
13548TIP3    H262136   2.132   5.925   0.034 -2.1921  0.7771 -0.6162
13549TIP3   OH262137   2.263   5.559  14.033  0.1876  0.1398  0.2247
13549TIP3    H162138   2.302   5.566  13.946 -0.8583 -0.7003 -0.3233
13549TIP3    H262139   2.267   5.466  14.054  0.5594  0.3576  1.1403
13550TIP3   OH262140   3.827   6.393  15.745 -0.0930  0.1430 -0.6838
13550TIP3    H162141   3.763   6.339  15.791  2.0803 -0.4884  1.7433
13550TIP3    H262142   3.837   6.471  15.800  0.6717  0.5716 -1.4144
13551TIP3   OH262143   0.631   0.260  11.413 -0.3346  0.2972 -0.4848
13551TIP3    H162144   0.585   0.190  11.367  1.1238 -0.7868 -0.3707
13551TIP3    H262145   0.612   0.245  11.505 -2.8866  2.1959 -0.6616
13552TIP3   OH262146   0.568   2.542   1.211 -0.1660  0.6354 -0.0671
13552TIP3    H162147   0.620   2.545   1.131  0.3150 -0.4421  0.1876
13552TIP3    H262148   0.608   2.608   1.268 -0.2321  1.0903 -0.5421
13553TIP3   OH262149   6.582   1.388   4.926 -0.1247  0.0150 -0.2182
13553TIP3    H162150   6.591   1.475   4.886 -0.2627 -0.2352 -0.7902
13553TIP3    H262151   6.511   1.347   4.878  0.6681 -0.8354 -0.6818
13554TIP3   OH262152   4.358   3.387   3.693 -0.6003  0.3441 -0.5616
13554TIP3    H162153   4.361   3.298   3.657 -1.0992 -0.3520  1.0840
13554TIP3    H262154   4.449   3.411   3.704 -0.4685 -0.2658 -0.2916
13555TIP3   OH262155   5.996   4.035  17.109 -0.5532  0.0788 -0.2889
13555TIP3    H162156   6.075   4.039  17.055  0.5969  0.0582  1.3683
13555TIP3    H262157   5.930   3.998  17.051  0.5395  0.4499 -1.8223
13556TIP3   OH262158   1.771   2.432  11.934  0.4576 -0.2543 -0.1322
13556TIP3    H162159   1.790   2.393  11.848  1.8878  1.6696 -0.7097
13556TIP3    H262160   1.694   2.487  11.918  0.5480 -0.1216 -0.1070
13557TIP3   OH262161   4.706   3.555   4.743  0.5292  0.0433 -0.5391
13557TIP3    H162162   4.627   3.595   4.780  0.8571  0.0954  0.1188
13557TIP3    H262163   4.682   3.463   4.729  0.4598 -0.0186 -0.0163
13558TIP3   OH262164   4.921   5.436  12.047 -0.3104  0.3156 -0.1142
13558TIP3    H162165   4.863   5.362  12.027  1.0285 -0.6090 -0.6032
13558TIP3    H262166   4.861   5.506  12.072 -1.6291 -0.7683 -0.1486
13559TIP3   OH262167   2.257   1.031   1.600 -0.8893 -0.1648 -0.1648
13559TIP3    H162168   2.305   0.950   1.619 -1.3197 -0.1306  1.0585
13559TIP3    H262169   2.165   1.007   1.607 -1.1511 -0.5079 -3.6038
13560TIP3   OH262170   0.494   5.388  13.265  0.3043  0.0443  0.0318
13560TIP3    H162171   0.466   5.309  13.311 -2.4374  0.8602 -0.1487
13560TIP3    H262172   0.574   5.415  13.310  0.1831 -1.7083  1.3660
13561TIP3   OH262173   3.912   4.023  11.153  0.0575  0.0972  0.6831
13561TIP3    H162174   3.872   4.105  11.125  0.2128  0.6772  2.0886
13561TIP3    H262175   3.981   4.006  11.090  0.6011  1.5189  0.8837
13562TIP3   OH262176   3.042   1.029   6.559  0.2713  0.2500 -0.4867
13562TIP3    H162177   3.133   1.018   6.586  0.3227 -0.1325 -0.8001
13562TIP3    H262178   3.010   1.103   6.610  0.6852  0.2277 -0.1936
13563TIP3   OH262179   3.566   6.228   1.784  0.4932 -0.1064 -0.1649
13563TIP3    H162180   3.547   6.195   1.872  2.3441  0.6231  0.5461
13563TIP3    H262181   3.481   6.230   1.740 -0.3879 -0.9381  1.4484
13564TIP3   OH262182   4.273   4.808   6.143  0.0119 -0.0457  0.0332
13564TIP3    H162183   4.216   4.792   6.218  0.0175 -0.6309 -0.0855
13564TIP3    H262184   4.301   4.721   6.115  1.4535  0.2812  0.4503
13565TIP3   OH262185   2.084   5.634  17.006  0.0054 -0.6517 -0.4022
13565TIP3    H162186   2.059   5.692  16.935  0.9944  0.2515 -0.0248
13565TIP3    H262187   2.060   5.547  16.976 -0.2036 -0.1945 -1.5616
13566TIP3   OH262188   4.364   5.701  12.519 -0.0736  0.3271 -0.1768
13566TIP3    H162189   4.318   5.627  12.560  0.8837 -0.2186 -0.0799
13566TIP3    H262190   4.316   5.717  12.438 -1.3081  0.6914  0.6037
13567TIP3   OH262191   3.213   6.375  14.203 -0.7366 -0.4595 -0.5025
13567TIP3    H162192   3.142   6.354  14.263 -1.7671  1.9898 -0.8055
13567TIP3    H262193   3.196   6.465  14.176  0.3374 -1.0863 -3.5718
13568TIP3   OH262194   2.839   5.630  11.960 -0.0489  0.5781 -0.5014
13568TIP3    H162195   2.811   5.705  11.907 -0.8147  1.0711  0.5900
13568TIP3    H262196   2.823   5.554  11.903 -0.3931  1.1392 -1.1650
13569TIP3   OH262197   5.451   2.459   1.072  0.0483 -0.5291 -0.1765
13569TIP3    H162198   5.475   2.377   1.028 -0.2492 -0.2532 -0.8488
13569TIP3    H262199   5.372   2.488   1.028  0.7051  0.6372 -0.5974
13570TIP3   OH262200   6.183   4.608  15.855 -0.1375  0.2129 -0.5467
13570TIP3    H162201   6.118   4.665  15.896 -0.1344  0.5598 -1.0262
13570TIP3    H262202   6.261   4.618  15.910  0.0528  1.1375 -0.9614
13571TIP3   OH262203   5.005   6.336  11.542  0.3499 -0.7013 -0.1858
13571TIP3    H162204   5.085   6.338  11.489  0.9277  0.3937  0.7275
13571TIP3    H262205   4.942   6.388  11.493  0.8144  0.1160  0.0846
13572TIP3   OH262206   6.219   0.756  12.666  0.0015  0.3199  0.3686
13572TIP3    H162207   6.226   0.738  12.760 -1.4575  0.6039  0.5469
13572TIP3    H262208   6.127   0.779  12.653 -0.3003 -1.8275 -1.5113
13573TIP3   OH262209   1.955   1.831  13.335  0.0372  0.2064  0.5309
13573TIP3    H162210   1.892   1.895  13.304  0.6995  1.0070  0.8341
13573TIP3    H262211   1.908   1.747  13.331 -0.9409  0.7551  0.4843
13574TIP3   OH262212   5.384   0.640  11.767  0.2193  0.7583 -0.2452
13574TIP3    H162213   5.305   0.662  11.817  1.5696 -0.8698  2.7299
13574TIP3    H262214   5.395   0.546  11.780  1.8445  0.6912 -1.8743
13575TIP3   OH262215   0.644   1.421  10.305  0.5376 -0.0504 -0.0171
13575TIP3    H162216   0.596   1.503  10.293 -0.2624 -0.3981  0.7324
13575TIP3    H262217   0.635   1.401  10.398 -0.0550 -1.4457 -0.3551
13576TIP3   OH262218   2.747   2.244  13.659  0.1410 -0.3003 -0.3324
13576TIP3    H162219   2.749   2.198  13.743 -0.7923 -0.5587 -0.4415
13576TIP3    H262220   2.744   2.337  13.682 -0.9703 -0.3933 -0.0547
13577TIP3   OH262221   0.022   0.965   3.366  0.1678  0.7872  0.0850
13577TIP3    H162222  -0.052   1.023   3.383  0.2413  1.0963 -0.6107
13577TIP3    H262223   0.009   0.936   3.276  0.4553  0.1966  0.2326
13578TIP3   OH262224   2.661   5.097  12.487 -0.2049  0.7906  0.2749
13578TIP3    H162225   2.735   5.147  12.453 -0.3085  0.8126  0.0779
13578TIP3    H262226   2.637   5.141  12.568 -0.0045  0.7859  0.3367
13579TIP3   OH262227   3.138   2.750   4.237  0.1200 -0.6677 -0.1832
13579TIP3    H162228   3.068   2.768   4.174  0.0975 -0.9456 -0.2422
13579TIP3    H262229   3.204   2.816   4.220  0.2899 -0.9839 -0.7722
13580TIP3   OH262230   0.188   4.484  13.904 -0.6247  0.3988  0.5855
13580TIP3    H162231   0.162   4.422  13.973 -0.3514  1.2807  1.4899
13580TIP3    H262232   0.170   4.570  13.941  1.3541  0.9561  0.3243
13581TIP3   OH262233   3.163   3.129  16.938  0.7231  0.4540  0.0528
13581TIP3    H162234   3.105   3.089  17.003 -0.6186  0.8039 -0.9294
13581TIP3    H262235   3.189   3.057  16.881  0.4620  0.4756 -0.0960
13582TIP3   OH262236   0.757   0.675   6.576 -0.5775  0.1684 -0.3159
13582TIP3    H162237   0.762   0.702   6.668  1.5818  0.4914 -0.5001
13582TIP3    H262238   0.796   0.588   6.575 -0.1461  0.3693 -0.9993
13583TIP3   OH262239   0.097   6.574  16.353 -0.2683  0.1706 -0.1811
13583TIP3    H162240   0.087   6.657  16.307  0.5895  0.8002  0.7557
13583TIP3    H262241   0.133   6.598  16.438  4.2306 -1.5017 -1.4643
13584TIP3   OH262242   2.420   2.533  12.407 -0.1216 -0.0968  0.2736
13584TIP3    H162243   2.417   2.628  12.391 -0.5300  0.1946  1.9667
13584TIP3    H262244   2.358   2.496  12.344 -0.7664  0.8688  0.3284
13585TIP3   OH262245   4.519   1.366   5.525  0.0608  0.7846  0.0089
13585TIP3    H162246   4.585   1.337   5.589  0.5143  2.9435  0.5716
13585TIP3    H262247   4.555   1.446   5.488 -1.9754  1.6956 -0.0999
13586TIP3   OH262248   3.587   1.579   2.237  0.2675  0.3273  0.4522
13586TIP3    H162249   3.520   1.514   2.258 -0.2913  1.2854  1.6426
13586TIP3    H262250   3.539   1.656   2.209  0.9302  0.4139 -0.4968
13587TIP3   OH262251   6.432   5.371  15.159 -0.1591  0.2739 -0.6547
13587TIP3    H162252   6.499   5.319  15.203 -0.2632  1.4610  0.9843
13587TIP3    H262253   6.475   5.455  15.142 -0.7254  0.4812 -1.0823
13588TIP3   OH262254   3.685   4.167  14.485 -0.2905  0.0876  0.3563
13588TIP3    H162255   3.760   4.147  14.429 -0.0107  0.8300  0.4596
13588TIP3    H262256   3.639   4.084  14.494 -1.8889  0.5004 -3.2467
13589TIP3   OH262257   0.890   3.143   3.466 -0.8031  0.0608  0.6120
13589TIP3    H162258   0.981   3.113   3.457 -0.8584 -0.0616  0.4750
13589TIP3    H262259   0.891   3.232   3.428 -0.9122 -0.2358 -0.0952
13590TIP3   OH262260   2.034   6.304   4.895  0.5935 -0.0003 -0.0889
13590TIP3    H162261   2.026   6.392   4.858 -0.3946 -0.3952 -0.8403
13590TIP3    H262262   2.084   6.255   4.830  1.5713  0.1259  0.5546
13591TIP3   OH262263   4.836   2.409  16.133 -0.1337 -0.5176  0.5452
13591TIP3    H162264   4.772   2.448  16.191 -0.6902  0.4436 -0.6841
13591TIP3    H262265   4.838   2.316  16.157 -2.7698 -0.7784 -0.1232
13592TIP3   OH262266   0.191   3.074   1.426  0.1794  0.1006 -0.1544
13592TIP3    H162267   0.281   3.100   1.442 -0.4141  2.1367 -0.0411
13592TIP3    H262268   0.143   3.156   1.419 -1.5613 -0.9533 -0.8379
13593TIP3   OH262269   2.243   6.363  14.036  0.0631  0.2999  0.2378
13593TIP3    H162270   2.247   6.277  13.993  1.8277  0.1141  0.7097
13593TIP3    H262271   2.221   6.343  14.127  0.5747  0.3143  0.3716
13594TIP3   OH262272   0.603   2.906  12.059  0.1879  0.1462  0.4040
13594TIP3    H162273   0.530   2.931  12.002  0.3193  0.4756  0.3827
13594TIP3    H262274   0.677   2.959  12.028  1.2189 -2.2791 -1.5180
13595TIP3   OH262275   2.658   4.217   2.105 -0.3181  0.5527 -0.1009
13595TIP3    H162276   2.593   4.265   2.054  0.2918  1.8456  0.3301
13595TIP3    H262277   2.681   4.142   2.050 -0.8670  1.0526 -1.0190
13596TIP3   OH262278   5.103   5.058   3.746  0.2921  0.1185  0.5642
13596TIP3    H162279   5.113   5.139   3.695 -0.1805 -0.9995 -1.3390
13596TIP3    H262280   5.119   5.085   3.837 -0.4483  2.4714  0.0328
13597TIP3   OH262281   2.424   2.491  11.154  0.1781 -0.3880 -0.4494
13597TIP3    H162282   2.475   2.508  11.075  0.1985 -2.0241 -0.7945
13597TIP3    H262283   2.339   2.461  11.122 -0.2733  0.2473  0.1426
13598TIP3   OH262284   1.673   2.709   4.049  0.3005 -0.1942 -0.0579
13598TIP3    H162285   1.667   2.616   4.027 -3.4389  0.4647 -2.2669
13598TIP3    H262286   1.669   2.753   3.964  0.8819  2.0483  1.0539
13599TIP3   OH262287   0.522   5.850  11.704 -0.1443  0.2433 -0.1481
13599TIP3    H162288   0.602   5.891  11.738 -0.3340 -0.3738  1.0464
13599TIP3    H262289   0.527   5.759  11.733 -2.1911  0.6353  1.5551
13600TIP3   OH262290   1.016   3.039  14.021 -0.3576 -0.0259 -0.3725
13600TIP3    H162291   0.954   2.982  14.068 -0.6487  0.7858  0.2640
13600TIP3    H262292   1.057   2.983  13.956 -0.4146 -1.0353  0.4447
13601TIP3   OH262293   4.011   5.297  11.619  0.1916  0.6145 -0.2016
13601TIP3    H162294   4.016   5.228  11.686 -0.3744 -0.8747 -1.6415
13601TIP3    H262295   3.955   5.259  11.551  1.0076  1.9786 -1.6520
13602TIP3   OH262296   4.172   1.597   5.090 -0.0879  0.0638 -0.0119
13602TIP3    H162297   4.203   1.685   5.111  1.1913 -0.5085  0.5299
13602TIP3    H262298   4.097   1.611   5.032 -0.2056  1.5171  0.4770
13603TIP3   OH262299   6.622   1.406   0.084 -0.4718 -0.0890  0.3799
13603TIP3    H162300   6.652   1.473   0.022  0.4660  1.8386  2.8563
13603TIP3    H262301   6.666   1.326   0.056  2.6779  1.4928  0.5668
13604TIP3   OH262302   4.091   3.363   5.534 -0.1963  0.0472  0.0129
13604TIP3    H162303   4.053   3.421   5.468  0.5536  0.9927  0.4039
13604TIP3    H262304   4.026   3.359   5.604 -0.9616 -0.8948 -0.7230
13605TIP3   OH262305   1.596   5.748   0.357 -0.2059  0.5268 -0.1126
13605TIP3    H162306   1.676   5.698   0.373  0.1774  1.3378  0.5253
13605TIP3    H262307   1.525   5.687   0.379  0.2250 -0.3069 -1.0051
13606TIP3   OH262308   6.490   3.779  14.988 -0.2684  0.4748  0.2494
13606TIP3    H162309   6.559   3.803  15.050 -0.5797  1.4943  0.2176
13606TIP3    H262310   6.536   3.768  14.905 -0.0550  0.5722  0.3535
13607TIP3   OH262311   0.318   4.343   0.522  0.2410  0.0541 -0.2067
13607TIP3    H162312   0.329   4.278   0.453  0.0432  0.8107 -0.9517
13607TIP3    H262313   0.249   4.401   0.490  0.0152  0.3017  0.7030
13608TIP3   OH262314   4.917   4.044  10.663  0.4425 -0.1432  0.5843
13608TIP3    H162315   4.889   3.992  10.588  0.9895 -0.3816  0.5451
13608TIP3    H262316   4.835   4.079  10.700  0.2259  0.6594 -0.6133
13609TIP3   OH262317   5.608   3.865   4.873 -0.4915  0.6942 -0.2002
13609TIP3    H162318   5.555   3.788   4.892  0.8236 -0.2373 -0.2081
13609TIP3    H262319   5.553   3.920   4.817 -1.6163 -0.0072  0.2080
13610TIP3   OH262320   1.317   5.032   1.001 -0.3727 -1.5274  0.4429
13610TIP3    H162321   1.222   5.025   1.002 -0.4704 -0.7057 -1.6044
13610TIP3    H262322   1.347   4.953   0.956 -0.1014 -1.6935  0.9137
13611TIP3   OH262323   2.209   4.351   0.625 -0.1397  0.4375 -0.4169
13611TIP3    H162324   2.120   4.380   0.602 -0.2568  1.2780  1.0240
13611TIP3    H262325   2.196   4.289   0.696  0.3733 -0.2674 -0.9340
13612TIP3   OH262326   4.379   2.492  16.762  0.0720 -0.0748 -0.0020
13612TIP3    H162327   4.378   2.498  16.858  0.0386 -1.0078  0.0640
13612TIP3    H262328   4.305   2.435  16.741 -1.3150  1.9374 -0.7372
13613TIP3   OH262329   4.507   5.908  17.176  0.0788  0.1444  0.3577
13613TIP3    H162330   4.535   5.923  17.086  1.0144 -2.2050  0.2358
13613TIP3    H262331   4.486   5.995  17.209  2.0221  1.3005 -1.3642
13614TIP3   OH262332   5.000   0.041  11.687 -0.2605 -0.2369  0.5753
13614TIP3    H162333   5.040   0.069  11.605 -1.4156  1.9652  0.7385
13614TIP3    H262334   5.073   0.016  11.742  0.7090  1.1013 -0.0947
13615TIP3   OH262335   6.576   3.002   6.584 -0.0487  0.1149  0.6391
13615TIP3    H162336   6.485   2.978   6.570 -0.2151 -0.6660  2.9458
13615TIP3    H262337   6.622   2.919   6.596  1.3188  0.3819 -2.2656
13616TIP3   OH262338   1.391   4.532  11.775  0.2416 -0.1014 -0.4630
13616TIP3    H162339   1.383   4.440  11.749  0.7098 -0.2362 -0.1437
13616TIP3    H262340   1.407   4.528  11.869 -2.7191  0.4339  0.1006
13617TIP3   OH262341   0.407   0.263  17.171  0.3057 -0.1692 -0.1388
13617TIP3    H162342   0.493   0.303  17.184 -0.3075  1.4362 -0.8986
13617TIP3    H262343   0.356   0.330  17.126 -0.4437 -2.1842 -2.3994
13618TIP3   OH262344   6.418   2.896  11.162  0.9087 -0.3250  0.3129
13618TIP3    H162345   6.419   2.893  11.258  1.4515 -0.8984  0.2900
13618TIP3    H262346   6.442   2.987  11.141 -2.7805  0.8434  0.7654
13619TIP3   OH262347   6.764   1.113   5.565 -0.4466  0.4092 -0.5260
13619TIP3    H162348   6.708   1.137   5.492  0.5272 -0.3347 -1.5211
13619TIP3    H262349   6.804   1.030   5.539  0.5841  0.5836  0.4625
13620TIP3   OH262350   0.901   1.905   3.238 -0.1093  0.5156  0.4810
13620TIP3    H162351   0.924   1.998   3.239 -0.1337  0.6213 -2.6609
13620TIP3    H262352   0.806   1.903   3.243  0.0013  0.5289  2.9911
13621TIP3   OH262353   3.076   6.036   1.453 -1.1273  0.1654  0.4056
13621TIP3    H162354   3.042   5.986   1.528 -3.3464  0.8993 -0.0934
13621TIP3    H262355   3.040   6.123   1.464 -0.1454  0.7170 -0.6810
13622TIP3   OH262356   0.175   4.355   3.381 -0.0578  0.2918 -0.2291
13622TIP3    H162357   0.247   4.297   3.406  1.2858  2.5822  1.3302
13622TIP3    H262358   0.199   4.387   3.294  0.5803  0.6549  0.0750
13623TIP3   OH262359   1.205   2.940  13.432  0.1060 -0.0065  0.5309
13623TIP3    H162360   1.149   2.988  13.493 -0.0695 -1.4105  1.5076
13623TIP3    H262361   1.171   2.962  13.345 -0.8202  0.5559  1.0270
13624TIP3   OH262362   2.787   0.649  12.851 -0.3313 -0.1514  0.1041
13624TIP3    H162363   2.869   0.600  12.845 -1.2669 -1.7666  0.2061
13624TIP3    H262364   2.727   0.602  12.793 -0.7794  1.8906 -1.1363
13625TIP3   OH262365   5.564   3.015  12.243  0.0905 -0.0976  0.4350
13625TIP3    H162366   5.519   3.041  12.324 -0.5468  0.4703 -0.0953
13625TIP3    H262367   5.548   3.088  12.183  1.0448 -0.2599 -0.0201
13626TIP3   OH262368   5.325   0.338   4.141 -0.0125  0.0746  0.2554
13626TIP3    H162369   5.415   0.331   4.110  0.5315  2.6363  1.1916
13626TIP3    H262370   5.272   0.324   4.062  1.1991 -0.8316 -0.4164
13627TIP3   OH262371   0.839   1.501   4.080 -0.0246 -0.0828  0.2093
13627TIP3    H162372   0.881   1.586   4.091 -2.0672  0.9085  0.5917
13627TIP3    H262373   0.866   1.451   4.157 -0.4794  0.9318  1.0370
13628TIP3   OH262374   5.605   6.399  13.764  0.0302  0.5989 -0.3151
13628TIP3    H162375   5.656   6.337  13.816  1.3798  1.2370 -0.8454
13628TIP3    H262376   5.528   6.349  13.736  0.2694 -0.3330  0.6366
13629TIP3   OH262377   1.075   1.440  14.088  0.8727  0.2056  0.5726
13629TIP3    H162378   1.011   1.479  14.029  0.0329 -1.1421  0.5802
13629TIP3    H262379   1.154   1.494  14.078  0.6567  0.1299 -1.5986
13630TIP3   OH262380   6.640   1.051  13.098  0.0467 -0.0031  0.2545
13630TIP3    H162381   6.571   1.097  13.049  0.6803  1.6795  0.8801
13630TIP3    H262382   6.634   1.088  13.187 -0.1403 -1.9600  1.0853
13631TIP3   OH262383   1.637   2.773  13.292 -0.3122  0.2818  0.0329
13631TIP3    H162384   1.568   2.816  13.242 -0.5015  0.3049  0.3118
13631TIP3    H262385   1.678   2.713  13.230  0.5130  1.4713 -0.5882
13632TIP3   OH262386   0.010   4.374   5.549  0.1193 -0.4438  0.1912
13632TIP3    H162387   0.051   4.444   5.499 -0.5521 -0.8065 -0.8745
13632TIP3    H262388   0.044   4.385   5.638  1.6385 -0.0574 -0.4275
13633TIP3   OH262389   5.611   5.866  14.970 -0.3559  0.1313  0.1720
13633TIP3    H162390   5.603   5.945  15.024  0.3954  0.2072  0.1731
13633TIP3    H262391   5.560   5.886  14.891 -0.7904  0.3268  0.5013
13634TIP3   OH262392   5.098   4.908  12.078  0.2870  0.0891  0.4454
13634TIP3    H162393   5.066   4.862  12.001  0.4821  1.2196 -0.3302
13634TIP3    H262394   5.019   4.934  12.125  0.1823 -1.3006  1.0565
13635TIP3   OH262395   2.377   5.239  16.930 -0.1673  0.1483 -0.3912
13635TIP3    H162396   2.472   5.238  16.916 -0.3623 -0.0863 -1.8075
13635TIP3    H262397   2.353   5.146  16.936 -0.4447  0.1674 -1.1176
13636TIP3   OH262398   6.190   4.279   3.456 -0.0372 -0.1309  0.4199
13636TIP3    H162399   6.177   4.277   3.550 -3.0103  1.5171  0.1085
13636TIP3    H262400   6.254   4.349   3.442 -0.2136  0.1743  1.1479
13637TIP3   OH262401   4.033   3.038  15.505 -0.3885  0.2827 -0.3321
13637TIP3    H162402   4.097   3.061  15.437  0.0375 -0.2317 -0.1107
13637TIP3    H262403   4.000   2.952  15.480 -0.6221  0.3261 -0.1754
13638TIP3   OH262404   6.099   0.253  13.872  0.0287 -0.4921 -0.2190
13638TIP3    H162405   6.046   0.248  13.951  1.2314  1.7755  0.7765
13638TIP3    H262406   6.124   0.162  13.853  0.4723 -0.9689  2.5086
13639TIP3   OH262407   3.498   2.314   0.459  0.5180 -0.8928  0.4147
13639TIP3    H162408   3.544   2.231   0.472  1.3321 -0.7647 -1.4717
13639TIP3    H262409   3.498   2.327   0.365 -0.9376  0.5189  0.5905
13640TIP3   OH262410   0.063   0.879  14.017  0.3019  0.3491  0.1643
13640TIP3    H162411   0.138   0.929  13.987  0.8643 -0.5243  0.1167
13640TIP3    H262412   0.046   0.816  13.948 -1.0680  1.1448 -0.2627
13641TIP3   OH262413   5.989   1.099   5.169  0.0822  0.0990 -0.1927
13641TIP3    H162414   5.936   1.079   5.247 -0.9405 -0.3565 -0.9991
13641TIP3    H262415   6.047   1.169   5.198 -0.4952  0.1431  0.9087
13642TIP3   OH262416   0.959   6.034   4.705  0.1153 -0.0956  1.0368
13642TIP3    H162417   1.027   5.976   4.738  0.4122  0.1695  0.9014
13642TIP3    H262418   1.007   6.111   4.674 -0.1179 -0.4943 -0.3638
13643TIP3   OH262419   2.362   4.591  15.326 -0.1610 -0.1755  0.5084
13643TIP3    H162420   2.282   4.564  15.369 -0.0910  0.0255  0.7712
13643TIP3    H262421   2.417   4.626  15.397 -1.1140  2.7004 -0.1041
13644TIP3   OH262422   1.450   4.869  16.683 -0.1249 -0.0941 -0.4139
13644TIP3    H162423   1.511   4.904  16.618 -0.1132  0.0250 -0.3383
13644TIP3    H262424   1.420   4.786  16.646  1.0512 -0.7648  0.1365
13645TIP3   OH262425   1.971   3.553  16.254 -0.2215  0.1443  0.1733
13645TIP3    H162426   2.039   3.532  16.191  0.8016  1.1179  0.9139
13645TIP3    H262427   1.919   3.474  16.262  1.4658 -0.9748  0.3744
13646TIP3   OH262428   3.017   2.186   4.633  0.3471 -0.0655  0.5865
13646TIP3    H162429   2.934   2.195   4.678  0.6979 -0.4158  1.3153
13646TIP3    H262430   3.032   2.091   4.629  0.5678 -0.0162  0.2036
13647TIP3   OH262431   4.755   2.889  12.880 -0.3722  0.0622 -0.0651
13647TIP3    H162432   4.770   2.796  12.899  2.6165  0.3788 -0.7248
13647TIP3    H262433   4.699   2.889  12.802  0.8400 -1.1950 -0.9552
13648TIP3   OH262434   0.753   3.005   2.507 -0.1508 -0.0611 -0.5021
13648TIP3    H162435   0.749   3.073   2.439 -1.1583 -0.4500 -0.8366
13648TIP3    H262436   0.663   2.999   2.540  0.1271 -0.5871  0.1662
13649TIP3   OH262437   2.356   2.773  12.269 -0.0416  0.2676  0.0682
13649TIP3    H162438   2.376   2.841  12.333  1.6812  0.5044 -0.7075
13649TIP3    H262439   2.371   2.815  12.184  1.4029 -1.1900 -0.4146
13650TIP3   OH262440   3.078   6.353   3.221 -0.0312 -0.8450 -0.2818
13650TIP3    H162441   3.003   6.413   3.220  1.7778  1.6646  2.7777
13650TIP3    H262442   3.106   6.352   3.313  2.3949 -3.3466 -0.9852
13651TIP3   OH262443   4.836   5.485  12.535 -0.3505  0.5620 -0.1261
13651TIP3    H162444   4.818   5.410  12.591  1.4773  0.3893  0.2428
13651TIP3    H262445   4.882   5.547  12.591  0.9984  0.6233 -1.2666
13652TIP3   OH262446   6.223   6.420   0.329 -0.3924 -0.1865  0.1330
13652TIP3    H162447   6.164   6.355   0.291 -0.7686 -0.1014  0.5686
13652TIP3    H262448   6.266   6.461   0.254  1.4872 -2.4658 -0.0657
13653TIP3   OH262449   6.094   5.538  12.832 -0.0719 -0.4506 -0.1736
13653TIP3    H162450   6.044   5.615  12.860 -1.0697 -1.3509  0.5794
13653TIP3    H262451   6.031   5.466  12.837  1.6743 -1.8726  2.1312
13654TIP3   OH262452   2.997   0.540  11.946 -0.0381  0.2863 -0.3411
13654TIP3    H162453   2.971   0.482  11.874 -1.9251  0.2015  0.3801
13654TIP3    H262454   3.050   0.485  12.003  0.0068 -0.1254 -0.7739
13655TIP3   OH262455   4.525   2.667  14.960  0.0596  0.0063 -0.4503
13655TIP3    H162456   4.444   2.705  14.996  0.9107  1.0471  0.3781
13655TIP3    H262457   4.538   2.587  15.010  0.4588  0.7156  0.6150
13656TIP3   OH262458   6.449   6.359   0.739 -0.0025 -0.6718  0.0170
13656TIP3    H162459   6.433   6.361   0.645 -0.6263 -0.7685  0.1185
13656TIP3    H262460   6.443   6.450   0.767  3.7178 -0.1512 -0.5985
13657TIP3   OH262461   6.529   6.570  15.914 -0.3887  0.0788 -0.5398
13657TIP3    H162462   6.441   6.531  15.920 -0.4984  0.3843 -0.1936
13657TIP3    H262463   6.558   6.578  16.004  0.5999 -1.3882 -0.7164
13658TIP3   OH262464   0.317   3.321  16.647  0.0411 -0.0106 -0.7903
13658TIP3    H162465   0.409   3.334  16.670  0.4044  0.0772 -2.2513
13658TIP3    H262466   0.316   3.244  16.591 -0.6999  0.3651 -1.3071
13659TIP3   OH262467   6.639   3.075  11.088  0.3062  0.6495  0.0334
13659TIP3    H162468   6.584   3.097  11.013 -0.2104 -0.1106  0.1837
13659TIP3    H262469   6.682   2.993  11.063  0.2518  0.4757  0.5074
13660TIP3   OH262470   6.690   6.102  14.108  0.0677 -0.6233  0.4414
13660TIP3    H162471   6.621   6.038  14.125  0.0911 -1.3126 -1.8693
13660TIP3    H262472   6.665   6.143  14.025 -0.6169  3.3434  2.4963
13661TIP3   OH262473   1.692   4.766  15.585 -0.1820  0.0174 -0.0495
13661TIP3    H162474   1.630   4.792  15.653 -0.9964 -1.8074 -0.0680
13661TIP3    H262475   1.655   4.687  15.547  2.3351 -1.3342  0.1876
13662TIP3   OH262476   0.165   4.397   1.327 -0.2928  0.1003  0.5474
13662TIP3    H162477   0.256   4.373   1.346 -0.4444  0.6251  1.9726
13662TIP3    H262478   0.132   4.323   1.275  2.1830  1.8090 -3.7829
13663TIP3   OH262479   3.940   6.770   3.944  0.0770 -0.6575  0.1166
13663TIP3    H162480   3.967   6.861   3.929  0.9118 -0.9062  0.1040
13663TIP3    H262481   3.845   6.772   3.935  0.0237  0.3489  0.7910
13664TIP3   OH262482   1.519   0.327  15.970  0.5156  0.0599 -0.9860
13664TIP3    H162483   1.502   0.296  15.881 -1.3563  2.6989 -1.6134
13664TIP3    H262484   1.436   0.365  15.999  1.4477  0.3782  1.4119
13665TIP3   OH262485   5.671   3.831   3.734 -0.1115 -0.1993 -0.7856
13665TIP3    H162486   5.592   3.825   3.682 -1.0556 -0.9169  0.6853
13665TIP3    H262487   5.696   3.923   3.729 -1.2873  0.1185 -0.9114
13666TIP3   OH262488   0.061   3.304  16.753 -0.1783 -0.2705 -0.0067
13666TIP3    H162489   0.154   3.314  16.738 -0.0839 -1.2885 -0.1254
13666TIP3    H262490   0.025   3.393  16.747  1.1951  0.5378  2.8480
13667TIP3   OH262491   4.015   3.730  14.475 -0.3821  0.4019 -0.0340
13667TIP3    H162492   4.109   3.717  14.479 -0.2233  1.0976 -1.3109
13667TIP3    H262493   3.980   3.679  14.549  0.9738  0.0967  0.4013
13668TIP3   OH262494   3.132   0.119   4.491  0.2337 -0.1864  0.3587
13668TIP3    H162495   3.094   0.154   4.411 -1.1735 -0.0992  1.0478
13668TIP3    H262496   3.161   0.031   4.468  0.2198 -0.0043 -0.3489
13669TIP3   OH262497   4.867   6.803   0.180  0.2538  0.0355  0.4607
13669TIP3    H162498   4.860   6.880   0.123 -0.8319 -0.3689  0.0219
13669TIP3    H262499   4.844   6.835   0.267 -1.3385 -0.0090  0.0794
13670TIP3   OH262500   3.005   5.207  11.992  0.2744 -0.2696  0.5299
13670TIP3    H162501   2.985   5.258  11.913 -0.1393 -0.3429  0.5846
13670TIP3    H262502   3.083   5.248  12.028  1.3340 -1.1303 -0.7195
13671TIP3   OH262503   4.036   3.828  16.454 -0.0054  0.5766 -0.2422
13671TIP3    H162504   4.015   3.750  16.506  3.2383  0.4395  0.9522
13671TIP3    H262505   3.985   3.898  16.495  0.8437  0.0380  1.7737
13672TIP3   OH262506   3.729   2.900   3.212 -0.3459  0.3052 -0.3948
13672TIP3    H162507   3.636   2.894   3.232 -0.3007 -2.0813 -0.7598
13672TIP3    H262508   3.771   2.843   3.276  0.8783  1.3570 -0.2413
13673TIP3   OH262509   5.730   3.868   3.090  0.2705 -0.1885  0.1380
13673TIP3    H162510   5.742   3.956   3.053 -1.6009  0.4804  0.9972
13673TIP3    H262511   5.711   3.884   3.182 -0.4781 -1.4638  0.2203
13674TIP3   OH262512   0.687   6.148  10.637 -0.4364  0.0848 -0.1667
13674TIP3    H162513   0.617   6.211  10.620 -0.1813  0.1609 -0.9496
13674TIP3    H262514   0.662   6.106  10.719  0.5052  2.7479  1.5545
13675TIP3   OH262515   0.478   0.782  13.668  0.1145 -0.2954  0.2002
13675TIP3    H162516   0.459   0.868  13.706 -1.1280  0.6382 -2.3925
13675TIP3    H262517   0.428   0.721  13.722 -1.7698  1.0217  0.0228
13676TIP3   OH262518   3.969   4.244  16.350 -0.1137 -0.3305 -0.1698
13676TIP3    H162519   3.943   4.334  16.332  0.1727 -0.1016  0.5396
13676TIP3    H262520   4.009   4.214  16.269  0.5293  0.4500 -0.1460
13677TIP3   OH262521   3.263   3.254   0.692 -0.8790 -0.6529  0.2368
13677TIP3    H162522   3.234   3.344   0.676 -1.1238 -0.7276  0.2656
13677TIP3    H262523   3.211   3.226   0.767  1.4547  0.2949  2.3015
13678TIP3   OH262524   5.207   6.575   5.176 -0.3314  0.9888 -0.0092
13678TIP3    H162525   5.153   6.520   5.233  0.3414 -0.5895 -0.8588
13678TIP3    H262526   5.279   6.603   5.232 -1.2957  2.0113  0.7589
13679TIP3   OH262527   0.763   3.538  14.651  0.2978  0.4297 -0.3259
13679TIP3    H162528   0.806   3.511  14.570 -0.1192  0.0417 -0.4191
13679TIP3    H262529   0.834   3.545  14.714  0.5757  0.3443 -0.6277
13680TIP3   OH262530   0.529   2.561  16.048  0.3995 -0.6238  0.2457
13680TIP3    H162531   0.561   2.529  15.964 -0.1425 -1.6575  0.4284
13680TIP3    H262532   0.446   2.605  16.028  1.2716  0.9339 -0.0424
13681TIP3   OH262533   2.973   1.399   0.375  0.0251 -0.0998  0.5498
13681TIP3    H162534   3.009   1.442   0.453  1.1989 -0.7252  0.3734
13681TIP3    H262535   3.042   1.408   0.309 -1.2843  1.1306 -0.6807
13682TIP3   OH262536   2.316   1.765   3.600 -0.2464 -0.0485  0.2599
13682TIP3    H162537   2.235   1.764   3.549  0.9030 -2.3426 -1.5871
13682TIP3    H262538   2.374   1.824   3.552 -0.1415  0.0828  0.5418
13683TIP3   OH262539   6.125   4.990   0.517  0.5657 -0.1865 -0.1942
13683TIP3    H162540   6.193   5.004   0.451  1.6509 -0.0733  0.9176
13683TIP3    H262541   6.130   4.897   0.537  1.3044  0.0591  0.8317
13684TIP3   OH262542   2.143   0.102  14.097  0.3178 -0.2591 -0.3157
13684TIP3    H162543   2.184   0.052  14.026  1.0690 -1.5074  0.9870
13684TIP3    H262544   2.049   0.092  14.082  0.4705 -1.1006 -0.7323
13685TIP3   OH262545   1.793   1.425   3.446  0.1785 -0.1805  0.4547
13685TIP3    H162546   1.735   1.452   3.375  1.0564  0.3228 -0.0759
13685TIP3    H262547   1.735   1.383   3.510 -0.6886 -0.1610 -0.3137
13686TIP3   OH262548   3.756   2.866  15.655 -0.2732  0.3763  0.1863
13686TIP3    H162549   3.706   2.941  15.623  1.1688  0.8297 -1.0808
13686TIP3    H262550   3.829   2.904  15.703 -1.3947 -0.2873  2.4673
13687TIP3   OH262551   3.804   0.066  14.900  0.0191  0.1649  0.5219
13687TIP3    H162552   3.837   0.004  14.965 -0.0260 -0.1840  0.2129
13687TIP3    H262553   3.797   0.015  14.819  0.2511  0.6415  0.1980
13688TIP3   OH262554   5.900   1.222  14.947  0.3085 -0.0668 -0.3824
13688TIP3    H162555   5.947   1.285  14.893 -1.4603  2.4300  0.8593
13688TIP3    H262556   5.898   1.262  15.034 -3.2664 -0.4251 -0.2033
13689TIP3   OH262557   1.902   3.331   5.123 -0.4542 -0.3748 -0.3058
13689TIP3    H162558   1.865   3.418   5.133  1.0779  0.2479 -0.1015
13689TIP3    H262559   1.905   3.295   5.211 -1.9353 -1.0056 -0.4883
13690TIP3   OH262560   6.630   1.108  15.292  0.2846  0.2785  0.1645
13690TIP3    H162561   6.633   1.014  15.314 -0.6762 -0.1018 -1.2956
13690TIP3    H262562   6.543   1.136  15.320  0.3374  0.5945  0.0074
13691TIP3   OH262563   6.557   2.007   2.492  0.3999 -0.0646  0.3147
13691TIP3    H162564   6.649   1.994   2.514  0.4042 -0.6182 -0.0249
13691TIP3    H262565   6.524   1.920   2.473 -0.3208  0.0728  0.8976
13692TIP3   OH262566   5.524   3.629  13.808  0.9006  0.1041 -0.5433
13692TIP3    H162567   5.505   3.568  13.736 -0.2054 -0.1910 -0.0020
13692TIP3    H262568   5.616   3.652  13.795  1.2554 -1.4536 -0.9224
13693TIP3   OH262569   2.661   5.785   2.122  0.3708 -0.5199  0.2233
13693TIP3    H162570   2.613   5.717   2.075 -0.3179 -0.6771  1.1255
13693TIP3    H262571   2.705   5.739   2.193  1.9529 -0.3859 -0.6405
13694TIP3   OH262572   1.795   3.376   4.382 -0.1617 -0.6657 -0.5240
13694TIP3    H162573   1.842   3.320   4.320  1.4621 -1.3409  1.2418
13694TIP3    H262574   1.741   3.316   4.433  1.1661 -0.5972  1.0104
13695TIP3   OH262575   6.368   5.688   0.691  0.5949 -0.3899 -0.0813
13695TIP3    H162576   6.361   5.594   0.710 -1.2317  0.2003  2.3680
13695TIP3    H262577   6.321   5.700   0.609 -0.6550 -1.3716  0.4755
13696TIP3   OH262578   5.885   2.987  10.553 -0.0663  0.8307 -0.2321
13696TIP3    H162579   5.827   2.953  10.621  1.8829  0.5670  1.3454
13696TIP3    H262580   5.955   2.922  10.547  1.7332  2.6739  0.1819
13697TIP3   OH262581   0.956   6.748   1.054 -0.7835  0.0581  0.1376
13697TIP3    H162582   0.953   6.825   0.998 -0.1728 -2.0495 -2.9358
13697TIP3    H262583   0.865   6.722   1.066 -0.8374 -0.9286 -2.0863
13698TIP3   OH262584   2.522   5.976   5.237 -0.2718  0.0825 -0.0921
13698TIP3    H162585   2.464   5.913   5.193  2.7591 -2.4236 -0.7107
13698TIP3    H262586   2.526   5.945   5.328 -0.0775  0.3666 -0.0041
13699TIP3   OH262587   0.440   4.774   4.310  0.3743  0.3075  0.1708
13699TIP3    H162588   0.471   4.684   4.317  1.4635  0.6068 -0.6861
13699TIP3    H262589   0.392   4.777   4.227  1.8341  0.9308 -0.6780
13700TIP3   OH262590   4.423   0.935   0.325  0.1108 -0.1143  0.3418
13700TIP3    H162591   4.444   0.843   0.313  1.2273  0.2555 -0.6843
13700TIP3    H262592   4.453   0.956   0.413  0.0026 -0.6894  0.5159
13701TIP3   OH262593   5.981   5.222  14.814 -0.0711 -0.4886 -0.2246
13701TIP3    H162594   6.041   5.296  14.819  1.6916 -1.6916 -2.6691
13701TIP3    H262595   6.034   5.150  14.779 -2.8327 -1.7011 -2.0890
13702TIP3   OH262596   0.106   4.487  17.191  0.0810 -0.0931 -0.4112
13702TIP3    H162597   0.078   4.566  17.237  0.7775  0.1742 -0.4392
13702TIP3    H262598   0.065   4.415  17.239  0.7057  0.1892  0.5557
13703TIP3   OH262599   0.468   2.333   3.525  0.3001  1.0494 -0.0247
13703TIP3    H162600   0.381   2.357   3.492 -0.3698 -0.6137  0.5136
13703TIP3    H262601   0.523   2.409   3.503 -1.6900  2.9633  1.3426
13704TIP3   OH262602   2.086   3.585   0.368  0.0916  0.3147 -0.0487
13704TIP3    H162603   2.146   3.624   0.432  0.5293 -0.8301  0.2690
13704TIP3    H262604   2.059   3.502   0.409 -1.0715  0.4420 -0.5493
13705TIP3   OH262605   5.671   2.659  14.999 -0.1036 -0.7503  0.2070
13705TIP3    H162606   5.693   2.566  15.006  0.3980 -0.5446  1.4891
13705TIP3    H262607   5.747   2.705  15.034 -1.0902  0.0774  1.3390
13706TIP3   OH262608   2.258   5.552   0.018  0.4026  0.3772 -0.0293
13706TIP3    H162609   2.313   5.532  -0.057  0.3563 -0.4994  0.1650
13706TIP3    H262610   2.214   5.633  -0.005  1.4460  0.8563 -0.3671
13707TIP3   OH262611   5.557   2.259   4.071  0.3147 -0.3066 -0.2153
13707TIP3    H162612   5.498   2.290   4.140  0.1177 -1.6658  0.2412
13707TIP3    H262613   5.598   2.339   4.038 -2.1995  0.7277 -0.9600
13708TIP3   OH262614   0.489   5.710  12.187 -0.7097 -0.1142  0.4080
13708TIP3    H162615   0.554   5.746  12.247  0.6225  2.8208 -2.6075
13708TIP3    H262616   0.495   5.616  12.198  1.4549  0.2639  2.8415
13709TIP3   OH262617   4.551   4.744   2.200 -0.0937 -0.1544 -0.0927
13709TIP3    H162618   4.504   4.744   2.283 -0.4469  0.5132 -0.2828
13709TIP3    H262619   4.624   4.685   2.214  0.2115  0.4375  0.9084
13710TIP3   OH262620   0.715   2.821  14.489 -0.2700 -0.9273 -0.2889
13710TIP3    H162621   0.701   2.775  14.572  1.0518 -0.8420 -0.0043
13710TIP3    H262622   0.761   2.901  14.513 -0.6973 -0.4550 -1.0126
13711TIP3   OH262623   0.830   3.043   6.189  0.2666 -0.6069  0.0563
13711TIP3    H162624   0.897   2.981   6.161  0.1789 -0.2817 -0.8995
13711TIP3    H262625   0.859   3.127   6.154  0.0514 -0.2222  0.7931
13712TIP3   OH262626   3.014   6.274  16.670  0.4653 -0.4265 -0.4726
13712TIP3    H162627   2.988   6.268  16.762 -1.2831  0.6177 -0.8822
13712TIP3    H262628   3.093   6.221  16.664 -0.3108 -1.8147  1.2844
13713TIP3   OH262629   5.409   4.465  14.909  0.2774  0.2040  0.1562
13713TIP3    H162630   5.478   4.529  14.891  0.5965 -0.0895  0.3180
13713TIP3    H262631   5.328   4.516  14.910  0.1599  0.1475 -2.7089
13714TIP3   OH262632   4.442   5.876  16.848  0.2711 -0.1572  0.3848
13714TIP3    H162633   4.410   5.966  16.838 -2.3475 -1.2508 -1.4532
13714TIP3    H262634   4.488   5.858  16.766 -1.0851 -1.2313 -0.1399
13715TIP3   OH262635   2.101   3.573   2.043  0.2318  0.1372 -0.2882
13715TIP3    H162636   2.046   3.582   1.965  1.2373 -0.5193 -1.0742
13715TIP3    H262637   2.090   3.656   2.089 -0.3023  0.5613 -1.1574
13716TIP3   OH262638   2.235   1.770  12.870 -0.1625  0.1137 -0.2273
13716TIP3    H162639   2.194   1.853  12.893  0.1397  0.4232 -0.7913
13716TIP3    H262640   2.176   1.731  12.805  0.7678  0.8689 -1.5400
13717TIP3   OH262641   4.970   3.134  15.388 -0.6849  0.1644  0.2749
13717TIP3    H162642   5.031   3.086  15.445 -1.6630 -2.0995 -0.5089
13717TIP3    H262643   5.025   3.197  15.342  0.9113 -1.1705  0.3074
13718TIP3   OH262644   1.976   2.352  14.031  0.0282 -0.0857 -0.0907
13718TIP3    H162645   1.895   2.305  14.050  0.3560 -0.6597 -0.1185
13718TIP3    H262646   2.028   2.292  13.978  0.5046  0.2529 -0.0186
13719TIP3   OH262647   1.877   4.208   5.901 -0.6329  0.1589 -0.3896
13719TIP3    H162648   1.816   4.138   5.923 -0.6119 -0.2369 -1.5961
13719TIP3    H262649   1.963   4.166   5.905 -0.8221 -0.7284 -4.3094
13720TIP3   OH262650   3.475   5.962  16.592  0.2961 -0.1406  0.2519
13720TIP3    H162651   3.521   6.045  16.604  2.1489 -1.4973  2.7432
13720TIP3    H262652   3.531   5.912  16.533 -0.9283  0.4005 -1.4246
13721TIP3   OH262653   3.598   0.725   2.547 -0.6747  0.0873  0.3036
13721TIP3    H162654   3.530   0.729   2.481  0.9048  0.8995 -1.3070
13721TIP3    H262655   3.555   0.752   2.628 -1.8416  2.2542 -1.0190
13722TIP3   OH262656   3.374   6.708  15.361 -0.5527  0.0394 -0.3777
13722TIP3    H162657   3.465   6.680  15.358  0.0393  1.7963  0.6775
13722TIP3    H262658   3.324   6.626  15.357  1.1596 -1.3982  4.0252
13723TIP3   OH262659   1.357   2.906  11.947  0.5002  0.1860 -0.3912
13723TIP3    H162660   1.412   2.959  11.890  0.8635  0.7079  0.4475
13723TIP3    H262661   1.379   2.934  12.036 -0.8654  0.1499 -0.0394
13724TIP3   OH262662   4.705   4.379   4.179 -0.4470 -0.0953 -0.0125
13724TIP3    H162663   4.762   4.425   4.118 -1.6959  0.0183 -1.1096
13724TIP3    H262664   4.764   4.323   4.230  0.9458  1.7767  0.4992
13725TIP3   OH262665   2.248   6.356   0.645  0.0058 -0.5370  0.0601
13725TIP3    H162666   2.189   6.400   0.706  0.1401 -0.4954  0.1583
13725TIP3    H262667   2.270   6.422   0.580  0.7743 -0.2564  0.6038
13726TIP3   OH262668   4.929   0.901   0.675 -0.1455  0.3588 -0.2820
13726TIP3    H162669   4.912   0.983   0.722  0.7588 -0.6429  1.8572
13726TIP3    H262670   4.874   0.837   0.719  0.3465 -0.4980 -0.9118
13727TIP3   OH262671   0.203   4.519   0.357  0.4333 -0.0227  0.4209
13727TIP3    H162672   0.261   4.564   0.296 -0.9444  0.2520 -0.7014
13727TIP3    H262673   0.154   4.590   0.399 -1.7672 -0.4695 -1.3714
13728TIP3   OH262674   0.655   0.915   4.585  0.2572  0.7604 -0.2483
13728TIP3    H162675   0.640   1.000   4.627 -3.5513  0.1288 -0.1419
13728TIP3    H262676   0.701   0.863   4.651 -0.3431  1.7008  0.9236
13729TIP3   OH262677   0.638   5.617   1.152 -0.4210  0.0077  0.0807
13729TIP3    H162678   0.724   5.588   1.121 -0.3783  0.2129  0.0095
13729TIP3    H262679   0.576   5.556   1.112 -0.5962  1.7194 -2.3734
13730TIP3   OH262680   2.759   5.593  10.780  0.0822  0.3091 -0.1926
13730TIP3    H162681   2.684   5.626  10.731 -0.2925 -0.7216 -0.3161
13730TIP3    H262682   2.755   5.498  10.769  0.4308  0.1313  1.2151
13731TIP3   OH262683   5.897   3.063  11.517 -0.7087  0.0100  0.0168
13731TIP3    H162684   5.918   2.979  11.557 -2.0445 -0.2722  0.1505
13731TIP3    H262685   5.935   3.128  11.576 -2.6298 -0.3995  1.7811
13732TIP3   OH262686   1.039   6.212   0.115  0.3618  0.2036 -0.2997
13732TIP3    H162687   1.028   6.229   0.208 -0.8006  1.8453 -0.7158
13732TIP3    H262688   1.132   6.229   0.098  0.4743  0.3619  0.4560
13733TIP3   OH262689   5.506   6.726   2.174  0.1899  0.3442 -0.5247
13733TIP3    H162690   5.539   6.652   2.123  0.2329 -0.0246  0.0392
13733TIP3    H262691   5.414   6.704   2.191  0.4333  0.0097  0.3853
13734TIP3   OH262692   5.101   4.919   0.332 -0.2085 -0.1820 -0.5536
13734TIP3    H162693   5.172   4.886   0.388  0.5901  1.5102 -0.5544
13734TIP3    H262694   5.124   4.889   0.244 -1.1686 -2.3582 -0.0967
13735TIP3   OH262695   0.312   6.024   1.001 -0.0103  0.4049  0.2638
13735TIP3    H162696   0.261   6.100   1.028  0.6831  0.7605  0.5907
13735TIP3    H262697   0.400   6.058   0.987 -0.1585  0.0778 -1.6833
13736TIP3   OH262698   5.093   3.248   1.441 -0.1905 -0.1597 -0.1385
13736TIP3    H162699   5.114   3.232   1.532 -0.4970 -1.1249 -0.2385
13736TIP3    H262700   5.176   3.275   1.401 -0.0575  0.2480  0.4156
13737TIP3   OH262701   1.385   0.542  13.142  0.2619  0.0807  0.4918
13737TIP3    H162702   1.392   0.608  13.073 -3.3384  0.1366  0.0700
13737TIP3    H262703   1.402   0.590  13.223  0.1134  0.9914 -0.0074
13738TIP3   OH262704   5.881   1.237  17.226  0.2672 -0.4003 -0.5174
13738TIP3    H162705   5.969   1.260  17.195 -0.3201  2.4800 -0.2132
13738TIP3    H262706   5.883   1.259  17.319 -0.6898 -0.6006 -0.4502
13739TIP3   OH262707   4.884   0.110   2.037 -0.3253  0.2005  0.1980
13739TIP3    H162708   4.914   0.138   2.123  0.8220 -2.9536  0.8889
13739TIP3    H262709   4.829   0.033   2.054 -0.3999 -0.2381 -1.8458
13740TIP3   OH262710   3.587   4.605   0.623  0.0245  0.1107  0.4518
13740TIP3    H162711   3.633   4.649   0.551 -0.5198  1.7807  1.0883
13740TIP3    H262712   3.496   4.605   0.595 -0.1527  0.5471  1.0293
13741TIP3   OH262713   4.076   6.296   2.861  0.4786  0.3700 -0.6897
13741TIP3    H162714   4.153   6.245   2.885  1.9458  2.5467 -0.5751
13741TIP3    H262715   4.109   6.361   2.798 -1.6536  0.0823 -2.1489
13742TIP3   OH262716   3.911   2.727  15.109  0.2913 -0.0827  0.1216
13742TIP3    H162717   4.003   2.708  15.090  0.6233  0.9178  0.7076
13742TIP3    H262718   3.891   2.803  15.055  0.2564  0.6438  1.1411
13743TIP3   OH262719   5.635   6.819  13.340 -0.0886  0.1845 -0.2979
13743TIP3    H162720   5.546   6.805  13.374 -0.7519  0.1591 -1.9915
13743TIP3    H262721   5.622   6.864  13.256  1.5849  1.8056  0.2615
13744TIP3   OH262722   2.523   0.922   4.978 -0.0470  0.2984 -0.1192
13744TIP3    H162723   2.448   0.871   4.945  0.5103 -0.2765 -0.5041
13744TIP3    H262724   2.525   0.902   5.072 -2.6957  3.2828  0.6850
13745TIP3   OH262725   2.505   0.854   5.250 -0.4332 -0.1235  0.0070
13745TIP3    H162726   2.597   0.840   5.229 -0.3742  0.5453 -0.1789
13745TIP3    H262727   2.501   0.846   5.345  0.1306  1.6024  0.1952
13746TIP3   OH262728   2.303   5.226   3.785 -0.3673  0.0076 -0.5641
13746TIP3    H162729   2.247   5.181   3.722  0.3774  0.7645 -1.7893
13746TIP3    H262730   2.389   5.231   3.743  0.1101  0.6675  0.4364
13747TIP3   OH262731   1.232   1.729   6.152  0.1549 -0.6649  0.1304
13747TIP3    H162732   1.253   1.701   6.062 -2.2369 -0.1592 -0.6220
13747TIP3    H262733   1.143   1.763   6.146  0.0981 -0.2915  2.6534
13748TIP3   OH262734   3.201   2.679   0.750  0.8547 -0.3648 -0.4946
13748TIP3    H162735   3.221   2.678   0.843  0.8862  1.8800 -0.4685
13748TIP3    H262736   3.277   2.637   0.709  1.0947 -0.8437  0.4161
13749TIP3   OH262737   5.798   6.386   4.213  0.2812  0.3430 -0.3616
13749TIP3    H162738   5.876   6.387   4.157  0.1406  0.0082 -0.5618
13749TIP3    H262739   5.804   6.468   4.263  0.1598  0.8833 -1.2198
13750TIP3   OH262740   3.842   4.764   0.484 -0.0394 -0.1585  0.0657
13750TIP3    H162741   3.904   4.730   0.420  0.1894  0.4111 -0.0152
13750TIP3    H262742   3.889   4.761   0.567 -0.1224 -0.3243  0.1056
13751TIP3   OH262743   5.562   5.041   6.137 -0.5209 -0.0097  0.0432
13751TIP3    H162744   5.501   4.983   6.183  0.6387 -0.5080  0.9725
13751TIP3    H262745   5.594   4.988   6.063  0.5535 -0.5791  0.9039
13752TIP3   OH262746   4.047   2.238   2.435  0.2911  0.3378  0.0877
13752TIP3    H162747   4.058   2.237   2.340 -0.2900 -1.3930  0.0181
13752TIP3    H262748   4.107   2.170   2.467  0.9841  1.3556  1.0341
13753TIP3   OH262749   2.639   3.395   4.323  0.0063  0.2310 -0.4683
13753TIP3    H162750   2.551   3.395   4.360 -0.7814 -1.5492 -2.2890
13753TIP3    H262751   2.675   3.310   4.346  0.4453  0.1022 -1.6008
13754TIP3   OH262752   3.081   3.756  13.587  0.2360 -0.2460  0.0709
13754TIP3    H162753   3.019   3.717  13.649 -1.1846  2.6604  0.5837
13754TIP3    H262754   3.150   3.794  13.642 -0.4902  1.4334 -0.1405
13755TIP3   OH262755   2.671   2.520   5.718  0.7970 -0.6034 -0.0977
13755TIP3    H162756   2.688   2.529   5.625 -1.4019  2.6349 -0.2492
13755TIP3    H262757   2.715   2.595   5.758 -2.0730  0.6469  0.8817
13756TIP3   OH262758   2.485   4.651  17.143 -0.3455  0.0971  0.0671
13756TIP3    H162759   2.558   4.694  17.098  0.8157 -1.7795  0.0733
13756TIP3    H262760   2.500   4.667  17.236 -0.6621  0.8207 -0.0096
13757TIP3   OH262761   2.178   0.339   2.008  0.3461 -0.4274 -0.0999
13757TIP3    H162762   2.165   0.365   1.917  0.2451 -1.0272 -0.2583
13757TIP3    H262763   2.264   0.376   2.031  0.2077  0.0441 -0.3177
13758TIP3   OH262764   5.503   6.263   5.407 -0.3479 -0.0965 -0.0793
13758TIP3    H162765   5.598   6.259   5.409 -0.3646 -0.5853 -0.2783
13758TIP3    H262766   5.482   6.353   5.432  0.1617 -0.0066  0.0192
13759TIP3   OH262767   0.970   5.384  15.760  0.1332 -0.1053 -0.1951
13759TIP3    H162768   0.877   5.365  15.753 -0.0985  0.6736  0.6896
13759TIP3    H262769   0.986   5.393  15.854  1.1866 -0.6552 -0.3086
13760TIP3   OH262770   4.890   4.479  13.068  0.5462 -0.4280  0.4165
13760TIP3    H162771   4.976   4.512  13.040  0.0840  0.5720  0.1584
13760TIP3    H262772   4.875   4.521  13.153  0.7569 -1.3988  0.9515
13761TIP3   OH262773   2.077   2.506   5.969 -0.4351 -0.1840  0.5095
13761TIP3    H162774   2.125   2.491   5.888  0.8526 -0.5516  1.3384
13761TIP3    H262775   2.004   2.564   5.943  0.7453  0.8136 -0.6389
13762TIP3   OH262776   3.297   3.624   5.397 -0.5369 -0.6406  0.1613
13762TIP3    H162777   3.232   3.613   5.466 -0.1556  0.1855  0.6587
13762TIP3    H262778   3.380   3.602   5.439 -0.0217  1.9432  0.5998
13763TIP3   OH262779   4.012   3.157   1.445  0.2507 -0.2240 -0.1346
13763TIP3    H162780   4.077   3.139   1.376  0.0713  0.7808 -0.5803
13763TIP3    H262781   4.064   3.160   1.526  1.0611  2.1583 -0.6781
13764TIP3   OH262782   1.891   1.122   6.219 -0.4558  0.6121 -0.7629
13764TIP3    H162783   1.877   1.204   6.264  2.9488  0.2418  1.1824
13764TIP3    H262784   1.874   1.054   6.285 -1.3843 -0.1675 -1.7865
13765TIP3   OH262785   1.020   4.196   2.629 -0.1434 -0.2979 -0.3418
13765TIP3    H162786   1.078   4.188   2.704 -0.5332 -1.4278 -0.1472
13765TIP3    H262787   1.028   4.287   2.602 -0.4222  0.2604  1.4082
13766TIP3   OH262788   2.860   2.990  11.975  0.1113  0.0758 -0.0612
13766TIP3    H162789   2.908   3.026  11.901  0.1864  0.5567  0.2155
13766TIP3    H262790   2.920   2.998  12.049  0.4292 -1.3666 -0.1505
13767TIP3   OH262791   0.615   5.114  16.177 -0.1654 -0.6006 -0.1027
13767TIP3    H162792   0.624   5.207  16.159  1.1521 -0.4222  1.3867
13767TIP3    H262793   0.705   5.081  16.179 -0.6598 -2.1349 -1.7307
13768TIP3   OH262794   5.005   0.825  10.203 -0.1606  0.4284 -0.1457
13768TIP3    H162795   5.095   0.837  10.172  0.0216 -1.7697 -0.5368
13768TIP3    H262796   5.014   0.806  10.296 -0.4069  2.4940  0.3308
13769TIP3   OH262797   3.431   1.456  11.650 -0.5315  0.4422 -0.2297
13769TIP3    H162798   3.416   1.545  11.681 -0.3335  0.0740  0.9530
13769TIP3    H262799   3.403   1.400  11.723  0.6090 -0.4124 -0.4243
13770TIP3   OH262800   3.759   4.357   2.138 -0.1437  0.1964 -0.4612
13770TIP3    H162801   3.686   4.342   2.198  0.4225 -0.4310  0.0864
13770TIP3    H262802   3.831   4.385   2.195  0.5081 -0.7789 -0.7895
13771TIP3   OH262803   5.455   1.260   1.028 -0.3385  0.1120  0.1579
13771TIP3    H162804   5.526   1.322   1.014 -1.4165  1.7069  1.5560
13771TIP3    H262805   5.403   1.265   0.948  0.1189  0.2574 -0.1348
13772TIP3   OH262806   0.765   5.233   1.657  0.1446  0.1390 -0.0335
13772TIP3    H162807   0.748   5.262   1.747  2.6649 -1.1922  0.9138
13772TIP3    H262808   0.860   5.241   1.647  0.2726 -2.6984 -1.5238
13773TIP3   OH262809   1.667   5.091   4.623 -0.0559  0.7598  0.2498
13773TIP3    H162810   1.666   5.018   4.685 -1.6137  1.3407  0.9494
13773TIP3    H262811   1.574   5.113   4.611  0.2058  0.5230 -2.4760
13774TIP3   OH262812   2.653   2.837  16.015  0.4867 -0.6236  0.2097
13774TIP3    H162813   2.706   2.810  16.090  0.4639 -0.0928  0.4132
13774TIP3    H262814   2.715   2.852  15.945  0.4428 -1.9449 -0.1247
13775TIP3   OH262815   0.922   1.508  10.927  0.0212 -0.3138 -0.4381
13775TIP3    H162816   0.912   1.599  10.900 -0.1340 -0.5549 -1.1901
13775TIP3    H262817   0.876   1.457  10.860  1.0266 -1.0206 -0.6156
13776TIP3   OH262818   4.424   0.282  11.070  0.0461 -0.4935  0.0708
13776TIP3    H162819   4.454   0.372  11.054 -1.1260 -0.4496 -2.1181
13776TIP3    H262820   4.362   0.291  11.142  2.3630 -0.0535  2.0828
13777TIP3   OH262821   4.734   2.512   5.049 -0.5257  0.0336  0.6742
13777TIP3    H162822   4.640   2.516   5.030 -0.6186 -0.7316  0.9685
13777TIP3    H262823   4.764   2.602   5.036 -0.6473 -0.3558 -2.7068
13778TIP3   OH262824   4.056   5.479  16.820  0.1726 -0.4853  0.0809
13778TIP3    H162825   4.034   5.544  16.887 -0.6233 -0.3626 -0.2960
13778TIP3    H262826   4.147   5.455  16.839  0.7947  1.4516 -0.3635
13779TIP3   OH262827   0.338   5.400  12.630 -0.0870 -0.3186  0.5308
13779TIP3    H162828   0.401   5.471  12.614 -0.2219 -0.0393  1.2475
13779TIP3    H262829   0.382   5.342  12.692 -0.2980 -0.4496  0.5574
13780TIP3   OH262830   5.321   2.313  12.213  0.2182  0.0634  0.2799
13780TIP3    H162831   5.329   2.309  12.118 -1.9648  1.0167  0.0224
13780TIP3    H262832   5.411   2.323  12.245  0.9425 -0.1199 -1.6824
13781TIP3   OH262833   0.967   4.836  14.422 -0.1542 -0.5944  0.3179
13781TIP3    H162834   1.035   4.850  14.488 -0.7679  0.5562  0.7160
13781TIP3    H262835   0.919   4.759  14.453 -0.6330  0.1292  1.3651
13782TIP3   OH262836   6.561   4.202  11.952  1.0223  1.1945 -0.8234
13782TIP3    H162837   6.622   4.144  11.999 -1.0892 -0.0493  0.4907
13782TIP3    H262838   6.529   4.149  11.879  0.5119  1.3724 -0.7259
13783TIP3   OH262839   0.532   0.128   1.512  0.0959 -0.2824 -0.0363
13783TIP3    H162840   0.446   0.164   1.530 -0.6403 -2.2958  0.6035
13783TIP3    H262841   0.590   0.172   1.574 -0.6339  0.4119  0.1521
13784TIP3   OH262842   4.861   4.696  17.017  0.8752  0.1577 -0.0351
13784TIP3    H162843   4.871   4.662  16.928 -0.5218  0.4253 -0.2966
13784TIP3    H262844   4.950   4.693  17.053  1.1719 -1.5614 -0.8354
13785TIP3   OH262845   2.788   2.551  15.920  0.2511 -0.1521 -0.3637
13785TIP3    H162846   2.791   2.464  15.961  1.2537  0.7739  1.5773
13785TIP3    H262847   2.864   2.597  15.956  2.1213  0.1804 -4.5293
13786TIP3   OH262848   2.820   5.493  13.648 -0.1779 -0.3162 -1.0652
13786TIP3    H162849   2.852   5.472  13.561 -0.7857 -1.2060 -1.0763
13786TIP3    H262850   2.899   5.518  13.697  0.2378 -0.3683 -1.7022
13787TIP3   OH262851   6.528   3.089   6.201  0.1809  0.0480 -0.2888
13787TIP3    H162852   6.513   3.064   6.110  0.8381 -0.6579 -0.2101
13787TIP3    H262853   6.440   3.099   6.238 -0.0890  0.4900 -1.0381
13788TIP3   OH262854   0.218   2.150  12.580  0.5703 -0.1547 -0.7035
13788TIP3    H162855   0.240   2.243  12.593  0.6981 -0.3932  0.8081
13788TIP3    H262856   0.141   2.152  12.523  0.9946  0.8558 -1.2567
13789TIP3   OH262857   4.179   6.329  16.634  0.0086 -0.4606  0.1410
13789TIP3    H162858   4.241   6.291  16.573  1.2417 -0.4056  1.3357
13789TIP3    H262859   4.094   6.292  16.609  0.4157 -0.1395 -1.8271
13790TIP3   OH262860   0.293   4.836  14.209  0.0091 -0.0265 -0.0354
13790TIP3    H162861   0.245   4.830  14.291  0.8418  1.3299  0.5580
13790TIP3    H262862   0.273   4.923  14.175  2.7517  0.9222  0.6833
13791TIP3   OH262863   1.290   2.023  12.825  0.5896 -0.1320  0.1994
13791TIP3    H162864   1.195   2.026  12.811  0.3030 -1.9727  1.5098
13791TIP3    H262865   1.300   2.026  12.920  1.9391  1.5514  0.0296
13792TIP3   OH262866   5.123   4.279  14.548  0.1682  0.1216 -0.3200
13792TIP3    H162867   5.158   4.208  14.602 -0.6834  1.1460  1.5918
13792TIP3    H262868   5.201   4.319  14.509  0.6757 -1.6869 -1.2507
13793TIP3   OH262869   4.562   6.733  13.633  0.2295  0.4943 -0.3573
13793TIP3    H162870   4.655   6.752  13.622  0.4042  0.4663  1.0350
13793TIP3    H262871   4.528   6.808  13.682 -0.5840  0.7309 -1.2611
13794TIP3   OH262872   3.011   2.716  15.982 -0.9859  0.5565  0.3033
13794TIP3    H162873   3.099   2.724  15.944 -0.5093 -0.7090  1.0960
13794TIP3    H262874   2.953   2.752  15.916 -0.0712 -0.6396 -1.1909
13795TIP3   OH262875   2.991   2.830   1.759  0.5184 -0.6303 -0.0850
13795TIP3    H162876   3.042   2.787   1.827 -2.1215 -0.5991  2.0330
13795TIP3    H262877   3.036   2.913   1.743  2.5811 -1.7489 -0.2551
13796TIP3   OH262878   2.794   3.644   1.149 -0.0130  0.4002  0.2485
13796TIP3    H162879   2.792   3.557   1.188 -0.1819 -0.9769 -2.6944
13796TIP3    H262880   2.718   3.647   1.091  0.6069  2.0897 -0.5336
13797TIP3   OH262881   5.945   1.185  11.119 -0.5043  0.2750  0.2548
13797TIP3    H162882   6.016   1.129  11.087 -0.9987 -0.0510 -0.3013
13797TIP3    H262883   5.952   1.265  11.066 -0.0092  0.6031  0.8129
13798TIP3   OH262884   4.350   4.356  16.376  0.1083  0.2015  0.4554
13798TIP3    H162885   4.284   4.369  16.307  2.9340  2.4463 -1.9980
13798TIP3    H262886   4.350   4.262  16.393 -2.2294 -0.0927 -1.0332
13799TIP3   OH262887   1.492   2.056  11.387  0.8133  0.4106 -0.7120
13799TIP3    H162888   1.587   2.061  11.380  0.7071  1.7203 -1.3391
13799TIP3    H262889   1.460   2.129  11.334 -0.5672 -0.4743 -1.1348
13800TIP3   OH262890   3.792   2.775  11.474 -0.9300  0.2564  0.1575
13800TIP3    H162891   3.842   2.821  11.541  1.7832 -1.1501 -0.8224
13800TIP3    H262892   3.709   2.752  11.517 -0.6074  2.3027  1.9406
13801TIP3   OH262893   3.631   3.288  12.580  0.0506 -0.3234 -0.2075
13801TIP3    H162894   3.661   3.285  12.671  0.4143 -0.4333 -0.3343
13801TIP3    H262895   3.547   3.242  12.582  0.6534 -1.4260 -0.1640
13802TIP3   OH262896   1.303   3.543  17.238 -0.9551  0.1317 -0.2592
13802TIP3    H162897   1.272   3.456  17.214  1.6109 -0.9306  0.1654
13802TIP3    H262898   1.225   3.589  17.269 -2.0708 -2.5176  0.9790
13803TIP3   OH262899   1.796   3.804   6.402  0.0937  0.4201  0.6955
13803TIP3    H162900   1.847   3.870   6.449  1.3087 -1.5118  2.1577
13803TIP3    H262901   1.857   3.767   6.338 -0.2643  0.0095  0.5886
13804TIP3   OH262902   3.366   6.110  14.076  0.4816 -0.0812 -0.2069
13804TIP3    H162903   3.310   6.187  14.077  1.4729  0.6520  1.5850
13804TIP3    H262904   3.306   6.036  14.082 -0.3310  0.6781  1.3444
13805TIP3   OH262905   2.275   3.154   0.968  0.1284 -0.1618  0.4071
13805TIP3    H162906   2.251   3.233   1.017  1.1520  1.1298 -1.0759
13805TIP3    H262907   2.201   3.138   0.910  0.8318  1.0765 -0.8799
13806TIP3   OH262908   2.485   4.305   2.585  0.2681  0.0348 -0.5088
13806TIP3    H162909   2.426   4.243   2.544  2.8633 -0.3658 -3.8603
13806TIP3    H262910   2.519   4.259   2.662 -1.1406 -0.9911 -0.4907
13807TIP3   OH262911   1.971   5.489   0.742 -0.0579  0.0573  0.0607
13807TIP3    H162912   1.980   5.579   0.712 -1.9772  0.1899 -0.1565
13807TIP3    H262913   1.993   5.436   0.666  1.7615  0.3053  0.3796
13808TIP3   OH262914   1.740   1.381   3.145 -0.4227  0.2321  0.4877
13808TIP3    H162915   1.685   1.456   3.166  0.4367  0.8455  0.6003
13808TIP3    H262916   1.812   1.417   3.093  1.0005 -0.1780  2.1148
13809TIP3   OH262917   0.187   6.478   3.874  0.0300  0.0548 -0.1596
13809TIP3    H162918   0.096   6.449   3.871 -0.0877  0.4253 -0.2194
13809TIP3    H262919   0.238   6.397   3.881 -0.0926 -0.4034 -3.6200
13810TIP3   OH262920   3.441   1.371  16.664  0.2570  0.5337 -0.4514
13810TIP3    H162921   3.442   1.450  16.718  1.3603 -0.0789  0.4403
13810TIP3    H262922   3.400   1.304  16.719 -0.6371  0.4512 -1.1911
13811TIP3   OH262923   5.959   0.797  12.598 -0.1235  0.7020  0.3241
13811TIP3    H162924   5.932   0.823  12.686  1.9582  1.3807  0.7929
13811TIP3    H262925   5.887   0.825  12.542 -1.6602 -0.0910  1.8376
13812TIP3   OH262926   1.255   5.014  15.799  0.1833 -0.2423  0.5229
13812TIP3    H162927   1.313   5.088  15.817 -0.0925 -0.0815  0.7662
13812TIP3    H262928   1.307   4.955  15.746  0.3069  0.2726  0.0689
13813TIP3   OH262929   2.345   1.172   2.180 -0.2528  0.0336 -0.0088
13813TIP3    H162930   2.321   1.229   2.253  0.4637 -1.3402  1.3332
13813TIP3    H262931   2.268   1.115   2.168 -0.5431  0.5480 -0.6310
13814TIP3   OH262932   0.596   6.031  16.356 -0.3958  0.2051  0.5503
13814TIP3    H162933   0.688   6.038  16.328 -0.8158 -1.7567 -1.4801
13814TIP3    H262934   0.547   6.021  16.274 -2.2048 -0.7213  1.7163
13815TIP3   OH262935   0.066   5.641  13.171  0.2018 -0.1206 -0.4363
13815TIP3    H162936   0.138   5.702  13.155 -0.9564  1.7881  1.4122
13815TIP3    H262937   0.110   5.561  13.200  1.6052  1.0151  0.6732
13816TIP3   OH262938   5.647   0.165   5.583  0.2458  0.5795 -0.6456
13816TIP3    H162939   5.555   0.155   5.558  0.6261 -0.6796 -1.5861
13816TIP3    H262940   5.660   0.259   5.588 -0.7548  0.7975 -1.8432
13817TIP3   OH262941   6.651   2.629   1.186 -0.6177 -0.4644 -0.6981
13817TIP3    H162942   6.612   2.628   1.098  0.0737 -0.8386 -1.0049
13817TIP3    H262943   6.604   2.698   1.232 -0.8661 -0.1397 -1.4245
13818TIP3   OH262944   0.023   4.856   3.407  0.3062  0.2676 -0.4605
13818TIP3    H162945   0.025   4.829   3.499  0.0618  0.7601 -0.3122
13818TIP3    H262946  -0.069   4.855   3.383  0.2631  1.2836 -0.3608
13819TIP3   OH262947   6.758   5.265  16.558 -0.3422 -0.0279  0.1461
13819TIP3    H162948   6.738   5.280  16.650  1.4421  1.9905  0.2394
13819TIP3    H262949   6.676   5.285  16.512 -1.1419 -0.7036  1.2413
13820TIP3   OH262950   5.862   0.823  12.854 -0.2626  0.2688 -0.0398
13820TIP3    H162951   5.840   0.862  12.938 -2.0239  0.8843 -0.7651
13820TIP3    H262952   5.780   0.822  12.806  0.3085 -1.9909 -0.9979
13821TIP3   OH262953   2.358   3.212   0.737 -0.0194 -0.2386 -0.1770
13821TIP3    H162954   2.308   3.293   0.738 -2.0804 -1.4470 -2.3734
13821TIP3    H262955   2.351   3.179   0.826 -3.5649 -0.6054 -0.5195
13822TIP3   OH262956   0.265   5.512   1.238  0.0229  0.5937 -0.3440
13822TIP3    H162957   0.268   5.596   1.191 -1.4738  0.3695 -0.8560
13822TIP3    H262958   0.205   5.526   1.311  0.1546  0.1121 -0.1381
13823TIP3   OH262959   3.194   3.424  17.013  0.1112  0.6108  0.1193
13823TIP3    H162960   3.271   3.370  17.029  0.8499  1.8962  0.9712
13823TIP3    H262961   3.123   3.381  17.060  0.3135 -0.5422 -0.6156
13824TIP3   OH262962   1.592   5.473   5.042  0.4815 -0.1745  0.0387
13824TIP3    H162963   1.525   5.404   5.038  0.9389 -0.5577 -1.2866
13824TIP3    H262964   1.652   5.452   4.970  1.1955  1.0216  0.2746
13825TIP3   OH262965   3.208   3.990  15.002 -0.7404 -0.6210 -0.8666
13825TIP3    H162966   3.138   3.955  15.059 -0.7713 -3.5901 -2.6350
13825TIP3    H262967   3.163   4.016  14.922 -0.3575  1.4459 -0.4538
13826TIP3   OH262968   0.869   0.363  15.381  0.2515 -0.4203 -0.1669
13826TIP3    H162969   0.895   0.447  15.341  0.3322 -0.5589 -0.4057
13826TIP3    H262970   0.791   0.384  15.433 -0.5673 -0.4780 -1.3587
13827TIP3   OH262971   6.017   6.060  14.491 -0.3791 -0.1894 -0.2599
13827TIP3    H162972   6.097   6.064  14.544 -0.9057  2.2153  0.4328
13827TIP3    H262973   6.038   5.998  14.421  1.9313  0.0319  0.1758
13828TIP3   OH262974   0.079   0.091  17.123  0.3658  0.2329  0.5585
13828TIP3    H162975   0.147   0.121  17.063  1.2883 -0.6736  1.1420
13828TIP3    H262976   0.122   0.085  17.208 -0.3476 -0.7031  0.8672
13829TIP3   OH262977   2.644   3.280  13.024  0.1942 -0.3310 -0.4614
13829TIP3    H162978   2.670   3.312  13.111  1.2945  0.3664 -1.0424
13829TIP3    H262979   2.721   3.233  12.992  0.4179  0.9530 -1.8153
13830TIP3   OH262980   3.805   5.013   2.080  0.5035 -0.3097 -0.4442
13830TIP3    H162981   3.793   5.038   1.988 -0.3634 -1.6010 -0.6943
13830TIP3    H262982   3.894   4.978   2.084  1.0522  1.0269 -0.4811
13831TIP3   OH262983   5.977   5.938   2.885 -0.0831  0.0193  0.1298
13831TIP3    H162984   6.012   5.852   2.906 -0.4851 -0.1645  0.0416
13831TIP3    H262985   5.884   5.924   2.868  0.1370  0.2252 -1.3568
13832TIP3   OH262986   2.037   4.958  13.644  0.5617 -0.5431 -0.3214
13832TIP3    H162987   2.088   4.941  13.565 -0.6169 -1.1578 -0.9652
13832TIP3    H262988   2.099   4.943  13.716  1.1201 -1.9147 -1.0667
13833TIP3   OH262989   2.017   0.281  12.384  0.2213  0.8415  0.0283
13833TIP3    H162990   1.941   0.269  12.326  0.8830  1.3280 -0.9609
13833TIP3    H262991   1.999   0.225  12.459 -0.8917  0.5774 -0.4215
13834TIP3   OH262992   4.546   5.861   1.038  0.2316  0.4208  0.3293
13834TIP3    H162993   4.638   5.840   1.054 -0.6416 -2.3024  2.1021
13834TIP3    H262994   4.533   5.946   1.081  1.8504  0.7346  0.2333
13835TIP3   OH262995   6.780   3.128   3.642  0.7386 -0.3217  0.3991
13835TIP3    H162996   6.832   3.086   3.574  1.2491  2.1421 -0.8189
13835TIP3    H262997   6.695   3.144   3.600  0.2223 -1.0557  1.1687
13836TIP3   OH262998   3.079   1.489   5.702  0.2225  0.2473 -0.0417
13836TIP3    H162999   3.035   1.431   5.640  0.3758  1.1995 -1.0667
13836TIP3    H263000   3.153   1.525   5.652  1.8610 -0.9414  1.4917
13837TIP3   OH263001   1.825   3.612   2.581 -0.4995 -0.1092  0.1866
13837TIP3    H163002   1.802   3.611   2.674 -1.2242  0.6750  0.0227
13837TIP3    H263003   1.798   3.699   2.551 -0.9257 -0.6257 -0.9253
13838TIP3   OH263004   0.314   4.880   0.081  0.2303  0.5439 -0.1031
13838TIP3    H163005   0.319   4.836  -0.004 -1.3676 -1.6525  0.8723
13838TIP3    H263006   0.405   4.901   0.102  0.6495  1.0516 -2.3098
13839TIP3   OH263007   5.410   2.258   0.393 -0.1507 -0.0214 -0.3680
13839TIP3    H163008   5.379   2.240   0.304 -2.8785  0.6287  0.3993
13839TIP3    H263009   5.486   2.201   0.404 -1.1869 -1.8334 -2.2953
13840TIP3   OH263010   5.071   3.550   0.308 -0.5471  0.2046  0.2560
13840TIP3    H163011   4.997   3.498   0.338 -1.1134  0.1385 -1.1743
13840TIP3    H263012   5.051   3.639   0.338 -0.2764 -0.1362  1.4740
13841TIP3   OH263013   2.970   4.941  16.256 -0.1576  0.1014  0.2496
13841TIP3    H163014   2.878   4.916  16.246  0.1364 -1.2157  0.6810
13841TIP3    H263015   2.997   4.968  16.168 -1.0157  0.7142  0.1709
13842TIP3   OH263016   2.546   3.285  12.313  0.2046  0.5268 -0.2002
13842TIP3    H163017   2.604   3.210  12.304  0.0723  0.3530  0.3586
13842TIP3    H263018   2.515   3.302  12.224  0.1448 -0.1537 -0.3147
13843TIP3   OH263019   3.438   2.679  16.575  0.5610 -0.4839 -0.1272
13843TIP3    H163020   3.463   2.729  16.498  1.8927 -1.1960 -0.1772
13843TIP3    H263021   3.373   2.615  16.542 -1.6430  1.5751  0.0669
13844TIP3   OH263022   1.353   0.924  12.640  0.0066  0.5148 -0.4088
13844TIP3    H163023   1.293   0.980  12.591 -0.3546  1.3351  0.9445
13844TIP3    H263024   1.393   0.982  12.704 -1.4295 -1.0226  1.9858
13845TIP3   OH263025   3.384   6.415   6.644 -0.0043  0.1749 -0.2314
13845TIP3    H163026   3.291   6.415   6.668 -0.4299  0.3968 -1.8277
13845TIP3    H263027   3.414   6.327   6.666 -0.6455  0.0319  0.0870
13846TIP3   OH263028   1.198   6.673   1.024  0.1807 -0.6321 -0.2697
13846TIP3    H163029   1.243   6.660   1.108  0.7250  1.0621 -0.2971
13846TIP3    H263030   1.110   6.703   1.048  0.5156  0.3914 -0.3125
13847TIP3   OH263031   1.854   0.999   3.575  0.2992 -0.6570  0.4230
13847TIP3    H163032   1.776   0.947   3.590 -0.7482  0.6114 -0.5476
13847TIP3    H263033   1.840   1.040   3.490  2.0468 -0.4503  0.2126
13848TIP3   OH263034   5.505   3.517  14.861 -0.2057 -0.2983  0.1530
13848TIP3    H163035   5.570   3.585  14.877  0.8411 -0.7598 -2.0264
13848TIP3    H263036   5.422   3.557  14.886  0.4707  1.5720 -0.5358
13849TIP3   OH263037   1.555   6.471   4.707  0.5151 -0.3026  0.1240
13849TIP3    H163038   1.540   6.542   4.644 -0.5383  0.9578  1.7490
13849TIP3    H263039   1.529   6.508   4.791  0.5994 -2.4091  1.1063
13850TIP3   OH263040   4.707   1.251  15.974  0.6896  0.3713  0.6513
13850TIP3    H163041   4.711   1.159  16.000  1.0489  0.2532  0.2009
13850TIP3    H263042   4.700   1.248  15.878 -0.5087  0.7917  0.7168
13851TIP3   OH263043   5.607   2.237   5.484 -0.2336 -0.5682 -0.2883
13851TIP3    H163044   5.568   2.183   5.416 -1.1992 -0.4606  0.1688
13851TIP3    H263045   5.535   2.291   5.516  0.0063 -1.1965  1.3804
13852TIP3   OH263046   0.025   4.288   4.269  0.4851  0.0336 -0.3167
13852TIP3    H163047   0.043   4.350   4.339  2.4649  1.0828 -1.7223
13852TIP3    H263048   0.058   4.204   4.302 -0.1805  0.1638  0.6911
13853TIP3   OH263049   4.126   4.033  15.340 -0.3993  0.1026  0.4772
13853TIP3    H163050   4.186   3.980  15.287 -0.4182  1.1470 -0.6343
13853TIP3    H263051   4.114   4.113  15.288 -2.1047  0.2474  1.0826
13854TIP3   OH263052   5.098   6.677  12.591 -0.2984  0.5101 -0.5004
13854TIP3    H163053   5.024   6.731  12.561  0.1688  0.4668 -1.7807
13854TIP3    H263054   5.162   6.740  12.623 -1.0197  0.5305  0.9255
13855TIP3   OH263055   5.934   6.114   3.938  0.2910 -0.1808  0.1391
13855TIP3    H163056   5.957   6.021   3.935  0.1311 -0.1993 -0.5711
13855TIP3    H263057   5.979   6.147   4.015  0.4019 -0.8345  0.3613
13856TIP3   OH263058   2.728   4.052  17.210  1.0036 -0.5649 -0.1239
13856TIP3    H163059   2.646   4.006  17.195 -0.2712  1.5503  0.0866
13856TIP3    H263060   2.729   4.069  17.304  1.2707  0.0944 -0.2381
13857TIP3   OH263061   4.688   1.285  17.291  0.2813 -0.0186  0.4645
13857TIP3    H163062   4.644   1.202  17.310 -0.5910  0.6251  1.3435
13857TIP3    H263063   4.655   1.345  17.358  0.1383  1.3001 -0.7637
13858TIP3   OH263064   0.580   3.082   3.962 -1.3713 -0.1340  0.1281
13858TIP3    H163065   0.531   3.011   3.922 -1.9375  0.3180  0.0108
13858TIP3    H263066   0.560   3.076   4.055  0.2535 -1.4270  0.4272
13859TIP3   OH263067   3.079   1.749  10.712 -0.1066 -0.2168  0.4702
13859TIP3    H163068   3.074   1.844  10.717  2.2048  0.2733 -3.8719
13859TIP3    H263069   3.172   1.729  10.722 -0.1094 -1.6745 -2.0292
13860TIP3   OH263070   4.471   6.201   4.604 -0.3329 -0.4681  0.0029
13860TIP3    H163071   4.446   6.173   4.691  2.4501 -0.5252  0.8188
13860TIP3    H263072   4.519   6.127   4.567 -0.1422  0.1315 -0.9783
13861TIP3   OH263073   1.073   2.921   3.147  0.4224  0.1733  0.1699
13861TIP3    H163074   1.120   2.987   3.095 -0.3302 -0.9197 -1.9706
13861TIP3    H263075   1.138   2.853   3.163  1.5505  1.8774  3.4106
13862TIP3   OH263076   4.949   2.777  10.511 -0.1898 -0.0861  0.4333
13862TIP3    H163077   5.034   2.811  10.482 -0.6445  1.2793  0.6513
13862TIP3    H263078   4.905   2.750  10.430  0.2770 -0.3898  0.2808
13863TIP3   OH263079   5.951   5.802   1.730  0.0789  0.6159  0.3890
13863TIP3    H163080   5.895   5.727   1.709  0.8642  0.2970 -0.5928
13863TIP3    H263081   5.933   5.820   1.822 -1.4497  0.3569  0.1544
13864TIP3   OH263082   3.901   5.599  13.177 -0.2917  0.0302  0.2829
13864TIP3    H163083   3.863   5.536  13.238  0.1398  0.1242  0.6466
13864TIP3    H263084   3.830   5.660  13.159 -0.9069 -0.9070 -0.5545
13865TIP3   OH263085   5.449   6.251  12.907  0.0402 -0.7679  0.5075
13865TIP3    H163086   5.375   6.263  12.966 -0.1415 -1.0665  0.3408
13865TIP3    H263087   5.411   6.253  12.819  0.6200  2.2033  0.2638
13866TIP3   OH263088   6.144   4.196   2.997 -0.6556 -0.2312 -0.0444
13866TIP3    H163089   6.154   4.274   3.051 -3.1358 -0.7076  1.1994
13866TIP3    H263090   6.062   4.210   2.950 -0.9080 -1.8891 -0.1247
13867TIP3   OH263091   0.993   4.883   2.627  0.4126  0.2519  0.0388
13867TIP3    H163092   0.908   4.926   2.629  0.3411  0.1142 -0.0201
13867TIP3    H263093   1.056   4.953   2.609  0.2283  0.2118 -0.7529
13868TIP3   OH263094   2.991   4.396   4.849 -0.6600 -0.1680 -0.9109
13868TIP3    H163095   2.952   4.314   4.820  1.4077 -1.7269  0.5463
13868TIP3    H263096   3.074   4.370   4.890  0.7093  2.7810 -1.6882
13869TIP3   OH263097   1.646   2.787   2.406 -0.4247  0.4174  0.2963
13869TIP3    H163098   1.717   2.848   2.385  0.8983 -0.8173  1.1114
13869TIP3    H263099   1.635   2.735   2.326  0.0624  0.1405  0.4114
13870TIP3   OH263100   2.491   2.873   2.720 -0.5216 -0.2167  0.5886
13870TIP3    H163101   2.444   2.798   2.684 -0.1286 -0.3966  0.4561
13870TIP3    H263102   2.564   2.836   2.769 -0.1843  0.0837  0.3212
13871TIP3   OH263103   3.990   0.007   4.203 -0.2445  0.4701 -0.1383
13871TIP3    H163104   4.054  -0.048   4.250 -0.6356  1.0730  1.1355
13871TIP3    H263105   3.988  -0.029   4.115 -1.2396 -2.2272  0.9322
13872TIP3   OH263106   5.234   1.670  15.074  0.0466  0.5141  0.2814
13872TIP3    H163107   5.307   1.716  15.116  1.3256 -0.3509 -0.9484
13872TIP3    H263108   5.175   1.649  15.146  1.5531  0.2483  1.4807
13873TIP3   OH263109   2.278   2.507   1.434  0.0446 -0.2722  0.7761
13873TIP3    H163110   2.195   2.463   1.450 -1.9093  2.3392 -1.7886
13873TIP3    H263111   2.319   2.455   1.365  0.0811 -0.9601  1.3093
13874TIP3   OH263112   1.569   6.013  15.185  0.0428 -0.9450  0.2125
13874TIP3    H163113   1.531   6.018  15.098 -0.7565  0.0109  0.6101
13874TIP3    H263114   1.663   6.028  15.172 -0.1961  0.0653 -0.3928
13875TIP3   OH263115   0.479   2.330   6.002 -0.1290 -0.0767  0.1421
13875TIP3    H163116   0.542   2.342   6.073  0.7347  0.6389 -0.7323
13875TIP3    H263117   0.394   2.344   6.043  0.1727 -2.2294  1.6085
13876TIP3   OH263118   0.649   4.264  13.336 -0.1938 -0.6291 -0.1505
13876TIP3    H163119   0.722   4.322  13.354 -0.5355 -0.3483  0.3476
13876TIP3    H263120   0.580   4.321  13.303  0.2053 -1.0557 -1.7284
13877TIP3   OH263121   2.703   6.399  14.074 -0.0646 -0.3815 -0.2881
13877TIP3    H163122   2.695   6.482  14.121 -0.0944  0.0110 -0.9808
13877TIP3    H263123   2.759   6.345  14.130 -1.3529 -0.4699  0.9488
13878TIP3   OH263124   5.529   6.599  14.665 -0.0790  0.1241  0.1660
13878TIP3    H163125   5.462   6.647  14.616  0.3679  0.0267 -0.5623
13878TIP3    H263126   5.481   6.556  14.735 -0.7640  0.1527 -0.2737
13879TIP3   OH263127   3.650   0.216   5.271 -0.4882  0.3128  0.1689
13879TIP3    H163128   3.622   0.304   5.296  0.3863  0.4979  0.5105
13879TIP3    H263129   3.617   0.205   5.181 -1.3236  0.6575  0.4241
13880TIP3   OH263130   0.223   1.807   2.758  0.2257 -0.0701 -0.0994
13880TIP3    H163131   0.317   1.824   2.754  0.1441  0.3069 -0.5226
13880TIP3    H263132   0.191   1.826   2.670 -0.3973  0.7529  0.2871
13881TIP3   OH263133   1.494   4.569  15.106 -0.4732 -0.1683 -0.1557
13881TIP3    H163134   1.518   4.661  15.116  0.9396 -0.6711  1.3155
13881TIP3    H263135   1.437   4.567  15.029  0.3529  1.7709 -0.8422
13882TIP3   OH263136   4.617   4.548  16.569 -0.3663  0.4694 -0.6888
13882TIP3    H163137   4.682   4.532  16.500  2.1289  0.2662  1.6256
13882TIP3    H263138   4.566   4.467  16.572 -0.8777  0.6842 -2.6361
13883TIP3   OH263139   4.586   5.547   4.776  0.3938  0.3575  1.2758
13883TIP3    H163140   4.642   5.511   4.845  0.6878 -2.3056 -0.2861
13883TIP3    H263141   4.583   5.479   4.710 -1.7387  1.9591 -0.3441
13884TIP3   OH263142   4.833   3.420   3.807 -0.2283  0.1908  0.4998
13884TIP3    H163143   4.781   3.492   3.843  2.3911  1.6171  1.6081
13884TIP3    H263144   4.795   3.341   3.845 -1.2004  1.2549  1.7662
13885TIP3   OH263145   1.271   0.025  14.593  0.6045 -0.2279 -0.3149
13885TIP3    H163146   1.223   0.098  14.554 -1.5498  0.2798  3.1235
13885TIP3    H263147   1.347   0.066  14.635  0.6251 -0.2548 -0.3258
13886TIP3   OH263148   3.856   5.293   6.721 -0.0393 -1.0650  0.1163
13886TIP3    H163149   3.800   5.262   6.649  0.0560  0.8920 -0.8491
13886TIP3    H263150   3.931   5.334   6.677 -0.0455  0.2814  1.3240
13887TIP3   OH263151   3.778   2.564  14.688 -0.0395 -0.7290 -0.3848
13887TIP3    H163152   3.806   2.557  14.780  1.4389 -1.3170 -0.8711
13887TIP3    H263153   3.751   2.655  14.678 -1.0558 -0.8740  0.8604
13888TIP3   OH263154   0.675   4.103  12.248  0.0904 -0.6452  1.0391
13888TIP3    H163155   0.764   4.088  12.281 -0.2280 -2.3655  1.1733
13888TIP3    H263156   0.681   4.086  12.154  0.2649  0.8935  0.7736
13889TIP3   OH263157   5.407   0.678  11.029  0.4546 -0.1863 -0.1955
13889TIP3    H163158   5.490   0.701  10.988  0.1055  0.5489 -0.4899
13889TIP3    H263159   5.424   0.684  11.123  0.5932  0.4778 -0.2579
13890TIP3   OH263160   2.507   4.124  13.937 -0.1036 -0.3123 -0.2768
13890TIP3    H163161   2.483   4.213  13.965 -2.3027 -0.4977 -1.4392
13890TIP3    H263162   2.581   4.137  13.878  0.0661  0.6879  0.1350
13891TIP3   OH263163   0.222   0.727  11.667 -0.1450 -0.0757 -0.6706
13891TIP3    H163164   0.194   0.808  11.708  0.3393  0.5244 -1.5069
13891TIP3    H263165   0.216   0.745  11.573  2.3613 -0.1638 -0.8632
13892TIP3   OH263166   1.981   5.722  13.331  0.0608  0.5826  0.3387
13892TIP3    H163167   1.890   5.728  13.302 -0.2270  3.0529  1.6268
13892TIP3    H263168   2.031   5.702  13.252 -1.7997 -2.9528 -0.0241
13893TIP3   OH263169   6.062   0.296   1.877  0.0731  0.3523 -0.0586
13893TIP3    H163170   6.057   0.270   1.969 -0.8655  1.4390  0.2113
13893TIP3    H263171   6.143   0.256   1.845 -0.0283 -0.7394  1.0057
13894TIP3   OH263172   3.074   6.222  15.383  0.7464  0.0027 -0.5224
13894TIP3    H163173   3.030   6.191  15.304  1.4914  0.2971 -1.0568
13894TIP3    H263174   3.140   6.154  15.402 -0.1267 -0.5912  0.4512
13895TIP3   OH263175   2.930   3.011  15.938 -0.3127  0.2396  0.4663
13895TIP3    H163176   2.888   3.008  16.023  0.8248  1.7156  1.1142
13895TIP3    H263177   3.004   3.071  15.950  0.9048 -0.8965 -1.0940
13896TIP3   OH263178   4.113   2.316   3.608 -0.3800 -0.3161  0.5622
13896TIP3    H163179   4.059   2.256   3.556  0.7668 -0.4072 -0.5505
13896TIP3    H263180   4.117   2.275   3.695 -0.4935 -1.3211  0.1085
13897TIP3   OH263181   1.105   6.766  16.179 -0.3315  0.6525 -0.3567
13897TIP3    H163182   1.154   6.848  16.182  1.3946 -0.3099 -1.2931
13897TIP3    H263183   1.093   6.749  16.085 -0.0744 -0.5057 -0.1818
13898TIP3   OH263184   1.405   5.293   0.327 -0.0708  0.0721 -0.5769
13898TIP3    H163185   1.403   5.224   0.393  1.7658 -0.8400 -1.4282
13898TIP3    H263186   1.342   5.265   0.261 -0.1510 -0.2313 -0.3705
13899TIP3   OH263187   3.342   3.617   2.417 -0.0913 -0.2710  1.2346
13899TIP3    H163188   3.295   3.701   2.414 -0.2299 -0.3345 -3.8130
13899TIP3    H263189   3.434   3.641   2.410 -0.1308 -0.4878 -0.1908
13900TIP3   OH263190   0.466   4.116  17.101 -0.3995  0.0642 -0.3050
13900TIP3    H163191   0.473   4.085  17.191  0.0637  0.0499 -0.3451
13900TIP3    H263192   0.387   4.171  17.100 -0.9444 -0.7018 -0.1132
13901TIP3   OH263193   0.074   3.760   1.093 -0.0284  0.5399  0.2534
13901TIP3    H163194   0.016   3.766   1.169  0.0022  0.4916  0.2805
13901TIP3    H263195   0.162   3.756   1.130 -0.0903 -0.8569  0.2652
13902TIP3   OH263196   2.402   0.722  13.903  0.3085 -0.5167 -0.5183
13902TIP3    H163197   2.408   0.639  13.856  1.5088 -0.5466 -0.3099
13902TIP3    H263198   2.484   0.729  13.952  0.8199  1.4393 -1.5922
13903TIP3   OH263199   1.000   3.374   0.541  0.1330 -0.3662 -0.3418
13903TIP3    H163200   0.904   3.382   0.548  0.3423  1.9612  0.3047
13903TIP3    H263201   1.014   3.336   0.455 -1.3436  0.6697 -1.0707
13904TIP3   OH263202   5.688   3.272   3.182 -0.1777  0.1285  0.1228
13904TIP3    H163203   5.626   3.200   3.191  1.0661 -1.1678 -1.5020
13904TIP3    H263204   5.713   3.272   3.089 -0.6624  3.0761 -0.0747
13905TIP3   OH263205   3.596   3.960   4.628  0.3515 -0.0195 -0.4330
13905TIP3    H163206   3.642   4.043   4.612 -1.6572  1.5450  1.5605
13905TIP3    H263207   3.518   3.965   4.574  0.0680 -0.4778 -0.0728
13906TIP3   OH263208   6.098   3.618  11.954  0.1401  0.4470  0.3437
13906TIP3    H163209   6.109   3.686  12.021 -0.7879 -0.5939  1.5735
13906TIP3    H263210   6.005   3.623  11.930  0.6062  1.2606 -1.3779
13907TIP3   OH263211   1.308   3.969  11.950  0.0892  0.0183 -0.4392
13907TIP3    H163212   1.224   4.013  11.965  0.3698  0.6000 -0.5871
13907TIP3    H263213   1.367   4.038  11.920  0.9349 -0.1614  0.7829
13908TIP3   OH263214   0.867   1.765  12.655  0.0320  0.9056 -0.0538
13908TIP3    H163215   0.851   1.853  12.622  0.7982  0.4155 -1.7785
13908TIP3    H263216   0.961   1.763  12.672 -0.0311  0.4986  0.2558
13909TIP3   OH263217   5.608   3.872   4.479  0.7432  0.3690 -0.0870
13909TIP3    H163218   5.578   3.962   4.471 -3.6233 -0.8539  0.5700
13909TIP3    H263219   5.604   3.836   4.390 -1.7361 -0.2865  0.2460
13910TIP3   OH263220   2.757   6.208   0.290 -0.1047  0.1473  0.1619
13910TIP3    H163221   2.737   6.282   0.348 -1.8021 -0.9033  0.9323
13910TIP3    H263222   2.847   6.225   0.261  0.5297  1.0515  2.5579
13911TIP3   OH263223   1.631   0.254   6.635 -0.2894 -0.0017  0.1231
13911TIP3    H163224   1.680   0.232   6.714 -2.4523  0.7180  1.7123
13911TIP3    H263225   1.559   0.309   6.666 -0.9602  0.6127 -2.4037
13912TIP3   OH263226   0.949   0.611   0.170  0.8881  0.3255 -0.1780
13912TIP3    H163227   0.865   0.583   0.206  1.4160  0.9797  1.6373
13912TIP3    H263228   0.928   0.685   0.114  0.2244  0.4170  0.1849
13913TIP3   OH263229   3.897   4.876   3.259  0.1577 -0.7421 -0.2372
13913TIP3    H163230   3.932   4.789   3.237 -0.6259 -1.2028  0.3310
13913TIP3    H263231   3.882   4.873   3.353 -0.3593 -0.1569 -0.2994
13914TIP3   OH263232   1.126   5.823  16.894 -0.1377 -0.1230 -0.0417
13914TIP3    H163233   1.082   5.739  16.882 -1.8562  0.5769  1.0239
13914TIP3    H263234   1.146   5.826  16.988 -0.3820  0.7755 -0.0146
13915TIP3   OH263235   6.050   1.219  13.387 -0.2932 -0.0127 -0.4342
13915TIP3    H163236   6.043   1.312  13.366  2.1862  0.5643  1.0238
13915TIP3    H263237   6.015   1.212  13.476 -1.3537 -0.6433 -0.9004
13916TIP3   OH263238   3.672   6.571   4.701  0.5660  0.7588  0.2469
13916TIP3    H163239   3.699   6.480   4.715  1.1363  0.7722 -0.7164
13916TIP3    H263240   3.580   6.573   4.726  1.3433  0.6574  3.4004
13917TIP3   OH263241   1.012   6.715  13.260 -0.4762  0.7734 -0.0268
13917TIP3    H163242   1.006   6.629  13.218 -0.5490  0.0414  1.4612
13917TIP3    H263243   1.017   6.696  13.353  0.7061  2.3528  0.2488
13918TIP3   OH263244   2.422   2.118   2.034 -0.6189 -0.5314  0.6200
13918TIP3    H163245   2.454   2.170   2.108  0.7692 -1.6637  0.8493
13918TIP3    H263246   2.433   2.176   1.958  0.3539 -0.2505  0.9579
13919TIP3   OH263247   5.376   4.334   2.759 -0.5187  0.0604 -0.5922
13919TIP3    H163248   5.429   4.353   2.837 -0.5928  1.6747 -0.9204
13919TIP3    H263249   5.301   4.393   2.767  1.1981  2.7882 -3.6272
13920TIP3   OH263250   0.129   6.351   2.625 -0.2020  0.0573  0.2661
13920TIP3    H163251   0.177   6.334   2.706  0.5778 -1.0360 -0.4056
13920TIP3    H263252   0.108   6.444   2.628 -0.7898 -0.1299  2.0424
13921TIP3   OH263253   2.225   3.465  12.974  0.2274  1.0132  0.0965
13921TIP3    H163254   2.256   3.545  12.931  1.3159  0.7074  0.2943
13921TIP3    H263255   2.134   3.456  12.945  0.3264  1.9143 -0.5217
13922TIP3   OH263256   4.707   1.328  12.391 -0.2861 -0.0813  0.3013
13922TIP3    H163257   4.614   1.327  12.366 -0.5757 -0.1114  1.3772
13922TIP3    H263258   4.736   1.237  12.379 -0.4396 -0.1126  0.1588
13923TIP3   OH263259   5.974   2.843  16.981  0.0545  0.4652  0.4811
13923TIP3    H163260   5.922   2.840  17.062  0.9510 -1.8730  1.0078
13923TIP3    H263261   6.061   2.869  17.010  0.5346 -0.9867  0.3626
13924TIP3   OH263262   6.187   3.165  11.312  0.3920 -0.4418 -0.6783
13924TIP3    H163263   6.260   3.171  11.250  1.3441 -3.7264  0.0235
13924TIP3    H263264   6.110   3.188  11.261  1.5202 -0.1611 -2.2996
13925TIP3   OH263265   4.614   1.260   5.073  0.2614  0.4695 -0.2453
13925TIP3    H163266   4.669   1.209   5.014  0.6483  0.6053 -0.0046
13925TIP3    H263267   4.525   1.249   5.039  0.2756 -0.8008  0.1308
13926TIP3   OH263268   2.241   1.224   0.003  0.3806  0.4064 -0.0229
13926TIP3    H163269   2.285   1.275   0.071  2.3841 -2.4248  0.8917
13926TIP3    H263270   2.213   1.144   0.047 -0.0384 -0.6234 -2.0991
13927TIP3   OH263271   3.280   3.597  15.588  0.2489 -0.3631 -0.1019
13927TIP3    H163272   3.242   3.533  15.649 -3.6757 -0.7950 -2.8078
13927TIP3    H263273   3.318   3.544  15.518 -1.0672  0.2226 -1.2682
13928TIP3   OH263274   3.289   0.547   6.573  0.0300  0.1157 -0.9848
13928TIP3    H163275   3.348   0.550   6.648  2.2344 -1.2628 -2.6409
13928TIP3    H263276   3.216   0.492   6.603  1.2863 -1.1112 -0.1251
13929TIP3   OH263277   3.529   6.317  14.530  0.6562 -0.4115 -0.1184
13929TIP3    H163278   3.606   6.334  14.476  1.3112 -1.9575  0.3068
13929TIP3    H263279   3.507   6.226  14.513 -0.4850 -0.2621  0.5167
13930TIP3   OH263280   2.600   4.170   0.206  0.1556 -0.5288 -0.0265
13930TIP3    H163281   2.590   4.232   0.278 -1.0946  1.0304 -1.5028
13930TIP3    H263282   2.550   4.208   0.134  1.0840 -2.2271 -1.6224
13931TIP3   OH263283   4.707   5.212  16.319 -0.1315  0.3257 -0.6482
13931TIP3    H163284   4.627   5.256  16.289  0.0252  0.2670 -1.1680
13931TIP3    H263285   4.676   5.131  16.359 -0.3188  0.1866 -1.0669
13932TIP3   OH263286   3.829   6.004   1.946 -0.0519 -0.7308 -0.3175
13932TIP3    H163287   3.763   5.980   2.011  1.0945  0.2991  1.2811
13932TIP3    H263288   3.894   5.934   1.950  0.3906 -0.2998  0.2015
13933TIP3   OH263289   4.738   0.175   1.438 -0.1270  0.3041 -0.2572
13933TIP3    H163290   4.657   0.161   1.487  0.4564 -1.6434  0.2139
13933TIP3    H263291   4.743   0.100   1.379  2.8331 -1.2947  1.8736
13934TIP3   OH263292   6.693   0.106   5.130  0.1851  0.0134  0.7355
13934TIP3    H163293   6.744   0.094   5.050 -1.0374 -0.7389  0.0577
13934TIP3    H263294   6.753   0.152   5.190  1.6763 -0.9039 -0.0119
13935TIP3   OH263295   0.859   5.880   6.234  0.2089  0.4136  0.4691
13935TIP3    H163296   0.773   5.894   6.273  0.0490  0.2924  0.1579
13935TIP3    H263297   0.844   5.816   6.165  0.1957  1.8545 -0.8951
13936TIP3   OH263298   4.649   3.612  13.914  0.1104  0.3055 -0.3734
13936TIP3    H163299   4.725   3.665  13.893  0.6280 -0.0254  0.6074
13936TIP3    H263300   4.626   3.567  13.833  1.2836  0.0032 -0.5364
13937TIP3   OH263301   1.410   0.330   0.142 -0.9043  0.4416 -0.1655
13937TIP3    H163302   1.350   0.379   0.086  0.2767 -0.1374 -2.0296
13937TIP3    H263303   1.373   0.336   0.230 -2.6311  1.6959 -0.9533
13938TIP3   OH263304   1.328   6.548   4.141 -0.0872  0.0057 -0.5003
13938TIP3    H163305   1.342   6.481   4.208 -0.6381 -1.3620 -1.7497
13938TIP3    H263306   1.381   6.520   4.067 -0.8153  0.6298 -1.2622
13939TIP3   OH263307   4.597   2.722  11.394 -0.3368 -0.6594  0.3734
13939TIP3    H163308   4.565   2.725  11.484  0.5902 -1.2552  0.7241
13939TIP3    H263309   4.693   2.726  11.402 -0.1891 -2.2780 -0.5077
13940TIP3   OH263310   5.014   5.953   3.364 -0.2914 -0.4784 -0.4041
13940TIP3    H163311   5.030   5.941   3.270 -1.8773  1.3595 -0.9403
13940TIP3    H263312   4.978   6.042   3.371  1.0300 -0.0994  2.1041
13941TIP3   OH263313   4.322   1.683  14.142 -0.8002 -0.4125 -0.0424
13941TIP3    H163314   4.320   1.743  14.216  0.3814 -1.1729  0.6252
13941TIP3    H263315   4.232   1.652  14.133 -0.7599 -1.1095  1.7433
13942TIP3   OH263316   4.916   6.223   3.354  0.4521 -0.6223 -0.7272
13942TIP3    H163317   4.846   6.199   3.293 -1.5023  0.6242  0.9503
13942TIP3    H263318   4.930   6.316   3.339  0.7749 -0.5614 -0.0808
13943TIP3   OH263319   1.963   3.458   0.968 -0.0046  0.6478 -0.0983
13943TIP3    H163320   1.939   3.539   1.013 -2.6937 -0.8675  1.3093
13943TIP3    H263321   2.053   3.441   0.996 -0.2872  1.8047  1.5670
13944TIP3   OH263322   3.108   3.328  12.213  0.2789  0.3611  0.2750
13944TIP3    H163323   3.162   3.392  12.166  0.5614 -0.6852 -0.8473
13944TIP3    H263324   3.019   3.344  12.183  0.1597  1.1134  1.0149
13945TIP3   OH263325   4.022   1.533   3.855 -0.2883  0.4848  0.0904
13945TIP3    H163326   4.116   1.548   3.869  0.0867 -0.2028 -1.5804
13945TIP3    H263327   3.991   1.612   3.810 -0.3771  0.4291  0.0534
13946TIP3   OH263328   3.348   1.449  15.599  0.6978 -0.4523  0.1964
13946TIP3    H163329   3.337   1.533  15.553 -0.0528  0.5272  2.0953
13946TIP3    H263330   3.434   1.457  15.640 -0.6306  0.6904  2.8876
13947TIP3   OH263331   2.537   0.738   0.682 -0.3873 -0.3123  0.6288
13947TIP3    H163332   2.571   0.754   0.594 -0.4650  2.1174  0.9975
13947TIP3    H263333   2.472   0.669   0.672  0.0294 -0.4560 -1.1169
13948TIP3   OH263334   6.544   1.109   4.953  0.3352 -0.0929 -0.7050
13948TIP3    H163335   6.563   1.199   4.928 -1.0417  1.4715  3.6034
13948TIP3    H263336   6.621   1.080   5.001  0.0347 -0.6246 -0.5386
13949TIP3   OH263337   2.262   1.230   3.909 -0.1130  0.7671 -0.1823
13949TIP3    H163338   2.340   1.176   3.919  0.3756  1.6088  0.5796
13949TIP3    H263339   2.245   1.232   3.815  1.2454  1.2248 -0.4180
13950TIP3   OH263340   3.350   6.416  12.886 -0.7022  0.5573 -0.4119
13950TIP3    H163341   3.341   6.326  12.855 -0.5681  0.6831 -0.8237
13950TIP3    H263342   3.292   6.422  12.962  0.2644 -0.2508  0.4116
13951TIP3   OH263343   6.501   2.906   2.305  0.4669  0.0816 -0.1728
13951TIP3    H163344   6.590   2.935   2.327  0.6735 -1.4331  1.1044
13951TIP3    H263345   6.444   2.967   2.352  0.8071  1.1028 -1.0519
13952TIP3   OH263346   1.272   0.830   1.209 -0.1774 -0.0091  0.3527
13952TIP3    H163347   1.314   0.871   1.133  0.2437  0.0785  0.6360
13952TIP3    H263348   1.199   0.780   1.171 -0.0979  0.2064 -0.0895
13953TIP3   OH263349   5.060   6.035   0.232 -0.2002  0.0444  0.1220
13953TIP3    H163350   5.062   6.112   0.290 -0.5844 -0.9159  1.4284
13953TIP3    H263351   5.057   5.960   0.292 -1.4588 -0.9373 -1.1613
13954TIP3   OH263352   6.095   0.050   3.267  0.0808 -0.0452 -0.3566
13954TIP3    H163353   6.040  -0.003   3.209 -0.5973 -0.3307  0.5271
13954TIP3    H263354   6.058   0.035   3.354  0.1041  1.6092 -0.0520
13955TIP3   OH263355   3.098   1.425  14.084  0.1314 -0.5061  0.0540
13955TIP3    H163356   3.166   1.460  14.027 -0.9797  0.2920 -0.7952
13955TIP3    H263357   3.021   1.479  14.067 -0.8871 -1.7387  0.6002
13956TIP3   OH263358   3.257   1.867  13.582  0.8207  0.9851  0.5535
13956TIP3    H163359   3.265   1.962  13.576  0.7267  0.9304 -0.4776
13956TIP3    H263360   3.346   1.836  13.596  0.9526  1.1670  0.1149
13957TIP3   OH263361   2.161   1.283  16.201  0.5588 -0.5302 -0.3265
13957TIP3    H163362   2.140   1.373  16.228  1.9710  0.1969 -1.5948
13957TIP3    H263363   2.103   1.266  16.127 -0.3840 -1.0177  0.5170
13958TIP3   OH263364   1.749   6.345   4.978 -0.1456 -0.2351  0.5410
13958TIP3    H163365   1.715   6.434   4.972  1.9150  0.4689 -1.6604
13958TIP3    H263366   1.840   6.352   4.947  0.6174 -2.7840  2.0392
13959TIP3   OH263367   4.536   6.818   5.134  0.3059  0.0429  0.0564
13959TIP3    H163368   4.458   6.806   5.080 -0.0096  2.0619  0.0120
13959TIP3    H263369   4.563   6.729   5.157 -1.5009 -0.7221 -0.6379
13960TIP3   OH263370   5.656   0.092   4.340  0.5941  0.5006  0.2804
13960TIP3    H163371   5.610   0.102   4.423  1.3901  0.9531  0.6605
13960TIP3    H263372   5.732   0.038   4.360  0.7513  0.5554 -0.1639
13961TIP3   OH263373   2.828   2.924   1.052  0.4768  0.0793 -0.1521
13961TIP3    H163374   2.788   2.857   1.108  0.7020  1.4472  1.7051
13961TIP3    H263375   2.866   2.875   0.979  0.6407 -1.8028  1.1667
13962TIP3   OH263376   0.440   0.887  16.471  0.6715  0.3552  0.3178
13962TIP3    H163377   0.445   0.807  16.524 -1.4897 -0.2126 -0.3134
13962TIP3    H263378   0.456   0.857  16.381  1.0956  0.8246  0.2339
13963TIP3   OH263379   6.718   5.563   2.237  0.2925 -0.4147 -0.6328
13963TIP3    H163380   6.662   5.607   2.172 -0.9309 -1.2098 -0.1363
13963TIP3    H263381   6.675   5.479   2.252  0.9120 -0.4880  0.7605
13964TIP3   OH263382   3.908   2.955   2.717 -0.6512  0.0401 -0.0586
13964TIP3    H163383   3.885   2.986   2.804 -1.0106  1.3793 -0.6243
13964TIP3    H263384   3.916   3.034   2.664 -1.2125 -0.8012 -1.4367
13965TIP3   OH263385   2.694   0.324  14.529 -0.1419  0.3328  0.8729
13965TIP3    H163386   2.778   0.326  14.574  0.4785 -0.4415 -0.2447
13965TIP3    H263387   2.666   0.416  14.525  0.2885  0.5147  1.8871
13966TIP3   OH263388   6.359   5.688  14.020 -0.2673 -0.0192 -0.0110
13966TIP3    H163389   6.327   5.602  13.990 -0.2801 -0.1800  0.4630
13966TIP3    H263390   6.397   5.671  14.106 -0.1098  0.4213  0.0079
13967TIP3   OH263391   0.784   5.145   6.757  0.3179  0.2369  0.2235
13967TIP3    H163392   0.877   5.133   6.774 -0.0902 -0.6385  1.9353
13967TIP3    H263393   0.752   5.192   6.834 -1.1083 -1.5933  0.7689
13968TIP3   OH263394   5.798   2.914   4.059  0.3805 -0.1085  0.2078
13968TIP3    H163395   5.721   2.909   4.116 -0.0332  0.5089 -0.2841
13968TIP3    H263396   5.762   2.927   3.971  0.9635 -2.6504 -0.4459
13969TIP3   OH263397   3.408   5.725   4.959 -0.1159  0.1409  0.0937
13969TIP3    H163398   3.404   5.759   5.048 -1.0771  0.6626 -0.1501
13969TIP3    H263399   3.324   5.749   4.920 -0.6854 -2.1905 -0.1843
13970TIP3   OH263400   2.664   5.215  16.921 -0.5523  0.0499 -0.1785
13970TIP3    H163401   2.669   5.121  16.942  1.1177  0.4773  1.4401
13970TIP3    H263402   2.727   5.256  16.980  0.6193  1.9146 -2.6602
13971TIP3   OH263403   5.787   0.276  13.261 -0.0949 -0.0272  0.3660
13971TIP3    H163404   5.856   0.269  13.194  0.2098  0.2075  0.6533
13971TIP3    H263405   5.832   0.254  13.343 -0.3610  0.1398  0.5557
13972TIP3   OH263406   5.016   3.199   3.695  0.1274 -0.5072  0.2322
13972TIP3    H163407   5.015   3.286   3.734  0.0151  1.0294 -3.0391
13972TIP3    H263408   5.036   3.214   3.603  1.5321 -4.0900 -0.1112
13973TIP3   OH263409   6.701   4.406   2.517 -0.5215  0.2843  0.1722
13973TIP3    H163410   6.701   4.337   2.584  0.9377  0.0492 -0.0627
13973TIP3    H263411   6.785   4.396   2.472 -0.0798  2.5187  0.4421
13974TIP3   OH263412   5.966   5.081   4.067  0.1376  0.3489 -0.0750
13974TIP3    H163413   6.044   5.043   4.105 -0.2686 -0.6732 -0.2551
13974TIP3    H263414   5.915   5.006   4.035 -1.2360  0.9534  0.6574
13975TIP3   OH263415   5.304   1.060  10.943  0.4490  0.2921  0.3074
13975TIP3    H163416   5.340   1.044  11.030  0.5164  1.5783  0.5305
13975TIP3    H263417   5.351   1.000  10.885 -0.9913 -2.0334  1.4389
13976TIP3   OH263418   2.983   6.175  14.978 -0.0075 -0.4742  0.0118
13976TIP3    H163419   2.944   6.148  15.061  0.8848 -0.7372  0.3489
13976TIP3    H263420   2.924   6.242  14.944 -0.0323  0.0981  1.1815
13977TIP3   OH263421   2.657   0.360  12.878 -0.0071  0.3246  0.6493
13977TIP3    H163422   2.607   0.324  12.952 -0.0638 -0.9118  0.0195
13977TIP3    H263423   2.593   0.370  12.808  0.4885 -0.6204  0.0580
13978TIP3   OH263424   0.964   1.665   4.495 -0.5155 -0.5254  0.4131
13978TIP3    H163425   0.949   1.587   4.550  1.3450 -1.3358 -0.1856
13978TIP3    H263426   0.930   1.640   4.409  0.9473 -1.0627 -0.0295
13979TIP3   OH263427   6.442   4.931   6.022 -0.2966 -0.6857 -0.3132
13979TIP3    H163428   6.535   4.914   6.035 -0.3662 -0.7681  0.0888
13979TIP3    H263429   6.398   4.861   6.071 -0.5867  0.7995  1.5783
13980TIP3   OH263430   3.960   1.007   1.534 -0.1215 -0.2944  0.1473
13980TIP3    H163431   4.020   1.023   1.461 -1.1036 -0.6789 -0.7461
13980TIP3    H263432   3.937   0.914   1.528  1.7104 -0.9523  2.4208
13981TIP3   OH263433   6.467   6.400   2.722  0.1208 -0.5419  0.2090
13981TIP3    H163434   6.387   6.401   2.775  0.6393 -0.5426  1.0100
13981TIP3    H263435   6.475   6.309   2.693 -0.8660 -0.2615 -0.9610
13982TIP3   OH263436   1.819   2.796  15.125  0.8402  0.1607  0.2450
13982TIP3    H163437   1.750   2.749  15.172  0.8812  0.9314  1.0936
13982TIP3    H263438   1.811   2.887  15.155  3.7848 -0.1770  2.2190
13983TIP3   OH263439   3.817   5.118  11.074 -0.1090  0.0633 -0.8628
13983TIP3    H163440   3.743   5.057  11.083 -0.4030  0.4861 -0.4074
13983TIP3    H263441   3.789   5.179  11.006 -0.9684  1.3677  0.6407
13984TIP3   OH263442   6.770   0.192   0.375  0.0016 -0.4930 -0.1501
13984TIP3    H163443   6.859   0.174   0.404 -0.5981 -2.4760  0.5671
13984TIP3    H263444   6.759   0.137   0.297 -0.2022  0.6678 -0.9513
13985TIP3   OH263445   5.190   5.786  12.536 -0.0777 -0.0009  0.2014
13985TIP3    H163446   5.255   5.853  12.557  2.4023 -1.9875 -0.8371
13985TIP3    H263447   5.188   5.783  12.440 -0.4359 -1.1037  0.2295
13986TIP3   OH263448   4.647   4.624  14.584 -0.3282 -0.7178  0.3749
13986TIP3    H163449   4.722   4.565  14.589  0.6203  0.4504  0.1347
13986TIP3    H263450   4.667   4.694  14.645 -0.1243  0.8203 -1.3974
13987TIP3   OH263451   3.317   2.096  12.644  0.8241 -0.5230 -0.0854
13987TIP3    H163452   3.283   2.170  12.695  1.6407 -1.0116  1.2085
13987TIP3    H263453   3.366   2.136  12.573 -2.0394  0.1978 -1.7590
13988TIP3   OH263454   5.939   3.140   5.747  0.0654 -0.4521 -0.0439
13988TIP3    H163455   5.858   3.140   5.697 -0.9085 -1.5491  1.4814
13988TIP3    H263456   5.917   3.182   5.830  1.4394  0.5952 -0.1823
13989TIP3   OH263457   5.854   4.692   5.324  0.5016  0.3146  0.3825
13989TIP3    H163458   5.930   4.745   5.303 -0.8068  2.0081 -0.1856
13989TIP3    H263459   5.835   4.711   5.415 -0.6610  1.7368 -0.1428
13990TIP3   OH263460   1.938   5.221  12.713 -0.2593 -0.0420  0.2441
13990TIP3    H163461   1.983   5.180  12.639 -0.5878 -1.4785  0.8106
13990TIP3    H263462   2.008   5.247  12.772  0.0385  1.7272 -0.8721
13991TIP3   OH263463   0.226   3.843   1.946 -0.1717 -0.0980  0.5408
13991TIP3    H163464   0.178   3.925   1.942 -0.8414 -0.4859  0.5812
13991TIP3    H263465   0.160   3.777   1.967  0.3972 -0.6134  0.7485
13992TIP3   OH263466   5.429   4.997  17.239  0.2709 -0.3455  0.0448
13992TIP3    H163467   5.357   5.014  17.299  1.0431  2.9150  0.1132
13992TIP3    H263468   5.401   5.038  17.157  1.0377 -1.1528 -0.6314
13993TIP3   OH263469   4.357   5.733  15.534  0.3481 -0.9010 -0.1347
13993TIP3    H163470   4.357   5.639  15.553 -1.0015 -0.7091  0.8462
13993TIP3    H263471   4.371   5.775  15.619 -1.8194 -0.1389 -0.1317
13994TIP3   OH263472   5.884   3.807   4.829 -0.6518 -0.2729  0.2587
13994TIP3    H163473   5.806   3.850   4.863 -0.5923  0.9415 -1.1012
13994TIP3    H263474   5.953   3.873   4.837  0.7095 -1.9167  3.1310
13995TIP3   OH263475   1.124   1.206   3.832 -0.2523  0.7493  1.0042
13995TIP3    H163476   1.218   1.202   3.848  0.1298  1.6092 -0.9921
13995TIP3    H263477   1.114   1.180   3.741 -2.1631 -1.4709  1.8126
13996TIP3   OH263478   4.096   5.421   0.245  0.7589  0.0286  0.4106
13996TIP3    H163479   4.013   5.399   0.287 -0.5534  1.2702 -1.4668
13996TIP3    H263480   4.151   5.452   0.317  0.1376 -2.2363  1.9058
13997TIP3   OH263481   0.572   4.302   1.115 -0.1198  0.5318 -0.2651
13997TIP3    H163482   0.660   4.339   1.106 -0.1611  0.6220 -0.2989
13997TIP3    H263483   0.535   4.307   1.027 -1.1814  3.0411  0.2834
13998TIP3   OH263484   2.733   3.478  16.599 -0.0198 -0.0796 -0.0419
13998TIP3    H163485   2.757   3.566  16.627 -0.1485 -0.1514  0.3060
13998TIP3    H263486   2.817   3.433  16.587  0.0467  0.1116 -0.2892
13999TIP3   OH263487   3.667   0.192   5.683 -0.0603 -0.1478  0.7001
13999TIP3    H163488   3.678   0.286   5.667 -0.1140  0.1280  2.1908
13999TIP3    H263489   3.593   0.167   5.628 -0.4278  0.8116  0.7469
14000TIP3   OH263490   5.163   3.254  13.034  0.3367  0.0214 -0.1466
14000TIP3    H163491   5.095   3.308  12.994  1.2292  0.5793 -0.9276
14000TIP3    H263492   5.157   3.275  13.127  0.3170  1.0764 -0.3724
14001TIP3   OH263493   1.522   1.008   4.249  0.3989 -0.4726  0.4661
14001TIP3    H163494   1.526   1.102   4.268 -0.9508  0.1565 -2.0917
14001TIP3    H263495   1.610   0.986   4.219  0.0475  0.5952 -1.4289
14002TIP3   OH263496   2.364   6.592  12.074  0.2109 -0.2590  0.2431
14002TIP3    H163497   2.332   6.630  12.156  0.8706  0.8989 -0.0284
14002TIP3    H263498   2.384   6.501  12.096  2.3687  0.5595  1.9256
14003TIP3   OH263499   1.782   3.357  16.254 -0.4986  0.0785  0.1299
14003TIP3    H163500   1.806   3.301  16.327 -0.9680 -0.5498 -0.1856
14003TIP3    H263501   1.739   3.298  16.191  1.2706  0.3084 -1.3349
14004TIP3   OH263502   0.976   1.731   3.415 -0.3714 -0.2365 -0.2454
14004TIP3    H163503   1.057   1.777   3.440 -0.4340 -0.5729  0.6100
14004TIP3    H263504   0.947   1.775   3.336  0.3426  0.2730 -0.2349
14005TIP3   OH263505   2.337   3.392   0.184  0.8060 -0.2126  0.4803
14005TIP3    H163506   2.291   3.447   0.247  1.1434 -0.8660  1.2924
14005TIP3    H263507   2.394   3.453   0.136  1.4885  0.0899  1.6561
14006TIP3   OH263508   0.361   6.665   2.565 -0.0402 -0.3378  0.3346
14006TIP3    H163509   0.381   6.748   2.608  0.9093 -0.6973  0.6020
14006TIP3    H263510   0.445   6.618   2.564 -0.7719 -1.6753  1.0116
14007TIP3   OH263511   3.775   5.328   0.648  0.2081 -0.0049  0.4110
14007TIP3    H163512   3.827   5.248   0.639 -0.5410 -0.8501  3.0348
14007TIP3    H263513   3.688   5.303   0.618  0.1591  0.0250  0.5268
14008TIP3   OH263514   2.242   6.054   4.734  0.2843 -0.0867 -0.0824
14008TIP3    H163515   2.220   6.131   4.681  0.7619  1.4162  1.8320
14008TIP3    H263516   2.159   6.028   4.774  0.3979  0.4056  0.4874
14009TIP3   OH263517   5.137   4.848   3.032  0.7776 -0.3600  0.0186
14009TIP3    H163518   5.206   4.855   2.967  1.5319 -0.6240  0.7839
14009TIP3    H263519   5.095   4.934   3.031  1.0473 -0.2316 -0.5181
14010TIP3   OH263520   1.374   6.513  11.886  0.3118 -0.4229  0.1531
14010TIP3    H163521   1.316   6.509  11.810  1.9018 -0.0388 -1.1071
14010TIP3    H263522   1.339   6.585  11.939 -2.8616 -2.8784  1.5668
14011TIP3   OH263523   0.817   0.913  11.259 -0.0455  0.5166 -0.0360
14011TIP3    H163524   0.753   0.900  11.189 -0.4021 -0.0585  0.4043
14011TIP3    H263525   0.820   1.009  11.270 -2.3491  0.4798  1.3430
14012TIP3   OH263526   0.917   6.700   4.326 -0.4180 -0.2319 -0.4366
14012TIP3    H163527   0.989   6.657   4.372  1.4197  0.2367 -2.7299
14012TIP3    H263528   0.949   6.710   4.236 -3.4198 -0.1191 -1.5596
14013TIP3   OH263529   0.821   0.589  16.012  0.5804  0.0770  0.1929
14013TIP3    H163530   0.883   0.633  15.953  0.7954 -0.2333  0.1895
14013TIP3    H263531   0.824   0.497  15.985 -1.4600  0.3927 -1.2390
14014TIP3   OH263532   2.565   6.496  14.958 -0.0759  0.1290 -0.3476
14014TIP3    H163533   2.541   6.442  15.033  0.6096  0.8111  0.3771
14014TIP3    H263534   2.522   6.580  14.975 -0.8484 -0.0682 -1.2920
14015TIP3   OH263535   4.000   6.128   4.240 -0.5260 -0.0197  0.6119
14015TIP3    H163536   4.028   6.048   4.196  0.6981  0.6520  0.1429
14015TIP3    H263537   3.904   6.125   4.236 -0.4576 -0.5894 -0.9759
14016TIP3   OH263538   5.308   5.902   1.647 -0.0459  0.0965 -0.0139
14016TIP3    H163539   5.289   5.818   1.605 -0.6363 -0.5299  1.4596
14016TIP3    H263540   5.384   5.883   1.703 -1.0904  0.1528  1.4492
14017TIP3   OH263541   0.638   3.296   3.379 -0.7318  0.4544  0.3347
14017TIP3    H163542   0.584   3.265   3.306  1.3698  0.7359 -1.3653
14017TIP3    H263543   0.615   3.237   3.451 -1.3487 -1.1334 -1.1143
14018TIP3   OH263544   6.044   4.182  16.353  0.0448  0.0731 -0.4361
14018TIP3    H163545   6.055   4.202  16.446  0.4422 -1.7244 -0.0889
14018TIP3    H263546   6.074   4.262  16.309  3.7096 -0.4652  0.8520
14019TIP3   OH263547   5.947   1.668  12.565  0.0144 -0.5409 -0.1010
14019TIP3    H163548   5.923   1.663  12.657  0.4926  0.2705  0.0748
14019TIP3    H263549   5.864   1.663  12.517 -0.4343  1.1779  0.4572
14020TIP3   OH263550   1.446   2.254   2.670  0.3178  0.1118 -0.0120
14020TIP3    H163551   1.386   2.328   2.664 -1.1241 -0.8625  1.7478
14020TIP3    H263552   1.394   2.179   2.641  1.4429 -0.3800 -0.7896
14021TIP3   OH263553   3.154   2.923   5.098 -0.3552 -0.1475 -0.1739
14021TIP3    H163554   3.204   2.845   5.123 -0.4599  0.2580  1.3005
14021TIP3    H263555   3.140   2.970   5.180 -2.0653  0.3885 -0.7649
14022TIP3   OH263556   1.523   4.450   4.307  0.3315 -0.5701  0.0569
14022TIP3    H163557   1.596   4.442   4.246 -0.5232 -3.4228 -0.6719
14022TIP3    H263558   1.488   4.361   4.314 -0.4008 -0.0728  3.7165
14023TIP3   OH263559   0.636   0.015  11.619 -0.4918  0.0088  0.4453
14023TIP3    H163560   0.624   0.104  11.650 -1.7451  0.2286 -0.6373
14023TIP3    H263561   0.592  -0.040  11.684 -0.7997  0.2709  0.4571
14024TIP3   OH263562   4.667   2.080   6.518 -0.1735 -0.1562  0.6136
14024TIP3    H163563   4.651   2.002   6.571 -1.8328 -0.0299  0.3259
14024TIP3    H263564   4.692   2.147   6.581  0.3211 -0.6615  0.9619
14025TIP3   OH263565   6.381   0.445   0.033 -0.0273  0.1794  0.5296
14025TIP3    H163566   6.417   0.534   0.025  2.1887 -0.9316 -2.8594
14025TIP3    H263567   6.313   0.441  -0.035  2.3107 -1.7608 -1.8125
14026TIP3   OH263568   6.547   4.614   4.711  0.4061  0.5208 -0.4941
14026TIP3    H163569   6.491   4.549   4.752  0.0600  0.9441 -0.2820
14026TIP3    H263570   6.554   4.586   4.620 -0.8089  0.8914 -0.7136
14027TIP3   OH263571   4.529   4.289  15.222  0.6386 -0.1498  0.5161
14027TIP3    H163572   4.465   4.315  15.156  0.1559 -0.9564  0.6625
14027TIP3    H263573   4.563   4.372  15.257  0.5170  0.2720 -0.3703
14028TIP3   OH263574   2.318   5.247  17.241 -0.7772  0.3477  0.5570
14028TIP3    H163575   2.326   5.156  17.211 -0.0291  0.4959  0.3067
14028TIP3    H263576   2.239   5.279  17.198  0.1122  0.4663 -1.0466
14029TIP3   OH263577   2.318   1.348   4.613  0.3163  0.0992 -0.4475
14029TIP3    H163578   2.350   1.331   4.525  0.6920  0.2241 -0.3390
14029TIP3    H263579   2.346   1.273   4.665 -2.7081 -1.5545 -1.1073
14030TIP3   OH263580   2.199   1.564  14.685  0.5269  0.7956 -0.3043
14030TIP3    H163581   2.259   1.563  14.611  0.2689  2.2853 -0.5368
14030TIP3    H263582   2.250   1.531  14.758  0.0710 -3.2881 -1.6487
14031TIP3   OH263583   2.340   1.918  16.292  0.3376  0.6640 -0.3975
14031TIP3    H163584   2.353   1.852  16.224  2.4413  1.3519 -0.6970
14031TIP3    H263585   2.378   1.879  16.371 -0.3396  0.6577 -0.0704
14032TIP3   OH263586   2.902   6.529  11.440  0.5064 -0.6590 -0.1542
14032TIP3    H163587   2.876   6.482  11.361 -0.0481  0.9708 -0.9724
14032TIP3    H263588   2.941   6.611  11.408 -0.8521  0.5805  1.2440
14033TIP3   OH263589   3.540   0.283  15.927 -0.2020 -0.0283  0.3610
14033TIP3    H163590   3.504   0.300  16.014 -0.5436  0.3688  0.1432
14033TIP3    H263591   3.474   0.229  15.884 -1.9983  3.1974 -1.1181
14034TIP3   OH263592   4.827   1.166   4.131 -0.1217  0.1106  0.3003
14034TIP3    H163593   4.770   1.133   4.061  1.5399  0.4921 -1.2649
14034TIP3    H263594   4.916   1.147   4.101  0.6950  1.8923  1.4906
14035TIP3   OH263595   0.731   2.830   5.879  0.1845 -0.0455  0.0617
14035TIP3    H163596   0.740   2.785   5.963 -0.3698  0.6468  0.4998
14035TIP3    H263597   0.754   2.921   5.898 -2.9311  0.7694  0.1673
14036TIP3   OH263598   0.745   1.144   5.355  0.1489 -0.0540 -0.2481
14036TIP3    H163599   0.789   1.106   5.279 -0.6431  0.8226 -1.1502
14036TIP3    H263600   0.742   1.073   5.419  0.6568 -0.8489 -1.0990
14037TIP3   OH263601   6.374   0.776  17.033  0.0369  0.6100  0.5900
14037TIP3    H163602   6.292   0.746  16.993 -0.3992  2.9060 -0.2862
14037TIP3    H263603   6.442   0.747  16.973 -0.2704  0.3730  0.3509
14038TIP3   OH263604   4.585   1.490  11.764 -0.6223 -0.2491 -0.2235
14038TIP3    H163605   4.677   1.503  11.741 -0.2479 -0.6649  1.0345
14038TIP3    H263606   4.553   1.578  11.786 -0.9068  0.1121 -1.9851
14039TIP3   OH263607   6.089   0.791   2.386  0.1451 -0.2661 -0.9322
14039TIP3    H163608   6.017   0.826   2.333 -0.2214 -2.8349 -2.1991
14039TIP3    H263609   6.049   0.775   2.472 -0.5746 -0.8833 -1.3756
14040TIP3   OH263610   2.573   4.931  16.721 -0.1501 -0.2706 -0.4000
14040TIP3    H163611   2.517   4.856  16.701  1.4917 -1.3064 -1.2702
14040TIP3    H263612   2.573   4.983  16.640  0.0399 -0.2099 -0.3629
14041TIP3   OH263613   3.547   1.839   1.360 -0.8012  0.0084 -0.0871
14041TIP3    H163614   3.539   1.814   1.452  0.8352  1.1413  0.3872
14041TIP3    H263615   3.506   1.767   1.312  0.4366 -1.7551  1.4145
14042TIP3   OH263616   5.894   6.520  11.938  0.0926  0.0864 -0.1648
14042TIP3    H163617   5.852   6.601  11.964 -0.4562  0.4287 -2.0555
14042TIP3    H263618   5.966   6.547  11.882  0.7235 -0.6754  0.2612
14043TIP3   OH263619   3.785   2.729  13.965 -0.1186  0.3234 -0.6854
14043TIP3    H163620   3.805   2.786  14.038 -0.0081  0.2830 -0.6841
14043TIP3    H263621   3.865   2.727  13.912 -0.0091 -0.0971 -0.5058
14044TIP3   OH263622   1.376   1.742   0.408  0.1532  0.1624  0.3135
14044TIP3    H163623   1.338   1.690   0.479  0.7562 -1.5139 -0.5540
14044TIP3    H263624   1.365   1.688   0.330  2.1099  0.6830 -0.3685
14045TIP3   OH263625   0.171   3.685  14.406  0.2278 -0.0417  0.4681
14045TIP3    H163626   0.078   3.706  14.392  1.2869  4.2234 -1.0590
14045TIP3    H263627   0.170   3.602  14.454 -4.4030  0.7583  2.0435
14046TIP3   OH263628   4.940   3.232   1.699 -0.6742 -0.6960  0.3078
14046TIP3    H163629   4.974   3.145   1.676 -0.2733  0.0911 -2.2385
14046TIP3    H263630   4.989   3.256   1.778  1.3469 -1.5725 -0.6264
14047TIP3   OH263631   2.646   2.970   3.158  0.6114 -0.0864  0.9158
14047TIP3    H163632   2.689   3.052   3.181 -0.3064  0.4460  0.7511
14047TIP3    H263633   2.572   2.996   3.103  0.0087 -0.9786  1.2978
14048TIP3   OH263634   3.515   6.542  15.749  0.0441  0.3417  0.3350
14048TIP3    H163635   3.548   6.468  15.801  1.6226 -1.0023 -2.4468
14048TIP3    H263636   3.496   6.504  15.663 -1.9253  2.6224 -0.2961
14049TIP3   OH263637   5.224   2.160  13.454  0.1562  0.1133 -0.0002
14049TIP3    H163638   5.152   2.112  13.415  1.2857 -2.6446  1.2034
14049TIP3    H263639   5.302   2.132  13.405  0.6565  1.9662 -0.3389
14050TIP3   OH263640   0.971   0.203   2.407  0.2515 -0.1812  0.4637
14050TIP3    H163641   0.975   0.190   2.313  2.5670  0.4977  0.4498
14050TIP3    H263642   0.939   0.293   2.418 -0.5324 -0.4412  0.3497
14051TIP3   OH263643   4.005   2.330   3.872  0.2311  0.4371  0.5809
14051TIP3    H163644   3.957   2.350   3.791 -0.1921 -0.3582  0.6399
14051TIP3    H263645   3.958   2.379   3.940  0.1138  0.4654  0.4797
14052TIP3   OH263646   6.413   0.765  15.723  0.0193 -0.1061 -0.5081
14052TIP3    H163647   6.329   0.721  15.710 -1.0120  1.6297  0.0442
14052TIP3    H263648   6.389   0.855  15.746  2.0587  0.8569 -2.0122
14053TIP3   OH263649   1.148   2.534   3.375  0.3699 -0.4947 -0.1546
14053TIP3    H163650   1.072   2.589   3.393  1.3952  0.9010 -0.0220
14053TIP3    H263651   1.184   2.513   3.461  0.3308 -0.8770 -0.2291
14054TIP3   OH263652   4.297   3.884   0.523 -0.2631  0.1811 -0.0912
14054TIP3    H163653   4.327   3.886   0.433  1.3281  1.3476  0.4389
14054TIP3    H263654   4.351   3.949   0.568 -0.2687 -1.1599  1.9329
14055TIP3   OH263655   3.104   4.716  11.066 -0.1603 -0.0204 -0.7607
14055TIP3    H163656   3.022   4.683  11.029 -0.6637  0.9507 -0.5429
14055TIP3    H263657   3.168   4.708  10.995 -0.8656  0.8291 -1.5043
14056TIP3   OH263658   5.633   4.592   1.200  0.1974 -0.0921 -0.0945
14056TIP3    H163659   5.578   4.539   1.143  1.7363 -0.7667 -0.9994
14056TIP3    H263660   5.707   4.618   1.145 -0.3564  2.7586  0.4109
14057TIP3   OH263661   4.465   6.456   4.883 -0.4802 -0.7155 -0.5905
14057TIP3    H163662   4.389   6.425   4.834 -0.8805 -1.2005  0.3082
14057TIP3    H263663   4.532   6.472   4.817 -1.2287 -0.6914 -1.3513
14058TIP3   OH263664   3.926   6.044   5.130 -0.1677  0.3393  0.2352
14058TIP3    H163665   3.855   6.055   5.067  0.4883  0.4856 -0.4889
14058TIP3    H263666   3.885   6.056   5.215 -0.5917  2.7688 -0.2653
14059TIP3   OH263667   2.106   4.274  13.607  0.3741 -0.3024 -0.6625
14059TIP3    H163668   2.087   4.317  13.690  0.7030  0.8572 -1.1775
14059TIP3    H263669   2.063   4.189  13.614 -0.6321  0.2620  0.2184
14060TIP3   OH263670   3.243   0.792   6.237  0.4085 -0.4496  0.2857
14060TIP3    H163671   3.249   0.834   6.151  1.3019 -0.0820  0.5265
14060TIP3    H263672   3.156   0.817   6.269  0.8634  1.0966  0.3493
14061TIP3   OH263673   3.719   3.175   3.176  0.6716  0.4585  0.6174
14061TIP3    H163674   3.745   3.083   3.183  1.5689  0.6088 -0.5670
14061TIP3    H263675   3.782   3.222   3.230  1.0040  0.5060  0.1911
14062TIP3   OH263676   4.051   1.517   2.574  0.4476  0.3383  0.0552
14062TIP3    H163677   4.146   1.524   2.574  0.5195 -0.4956  1.6130
14062TIP3    H263678   4.022   1.580   2.640 -0.2711  2.4975 -2.2191
14063TIP3   OH263679   0.531   0.472  15.984  0.4627 -0.3143  1.1778
14063TIP3    H163680   0.437   0.482  15.970  0.3502 -2.0222  0.6336
14063TIP3    H263681   0.551   0.532  16.057 -0.8501  0.7753  0.6538
14064TIP3   OH263682   4.636   2.145   0.265  0.2729  0.2520 -0.2578
14064TIP3    H163683   4.548   2.161   0.297 -0.7355 -0.1714 -2.7176
14064TIP3    H263684   4.633   2.167   0.172  3.0349  1.2232 -0.1819
14065TIP3   OH263685   3.800   6.817   3.363  0.2171  0.0070 -0.4966
14065TIP3    H163686   3.779   6.816   3.457  0.6916  5.0569 -0.2320
14065TIP3    H263687   3.883   6.770   3.357  0.3636 -0.0804  1.6526
14066TIP3   OH263688   5.065   1.444  11.627 -0.7200  0.1019 -0.1736
14066TIP3    H163689   5.014   1.397  11.693  0.9233 -0.0660  1.0160
14066TIP3    H263690   5.073   1.533  11.661  0.4190 -0.0722  0.0379
14067TIP3   OH263691   1.341   1.225  12.266  0.5960  0.2265  0.2763
14067TIP3    H163692   1.302   1.304  12.229  0.3311 -0.3652 -0.7287
14067TIP3    H263693   1.351   1.244  12.359 -0.1294  1.1737  0.1627
14068TIP3   OH263694   6.580   1.468   4.197  0.5063  0.3937 -0.1204
14068TIP3    H163695   6.537   1.456   4.112  0.9739 -0.6261 -0.2173
14068TIP3    H263696   6.644   1.397   4.202  0.2840  0.2710  1.2196
14069TIP3   OH263697   2.841   4.741   0.733 -0.3287  0.8098 -0.2805
14069TIP3    H163698   2.817   4.718   0.822 -0.3504 -0.8895 -0.6946
14069TIP3    H263699   2.925   4.786   0.741  1.2589 -2.1168  0.3855
14070TIP3   OH263700   1.764   4.194   5.486 -0.3122 -0.5168  0.5218
14070TIP3    H163701   1.723   4.107   5.487 -1.0773 -0.1516  2.1129
14070TIP3    H263702   1.715   4.245   5.550 -0.3739  1.3436 -0.9467
14071TIP3   OH263703   0.401   4.999   2.433 -0.4883 -0.1145  0.0544
14071TIP3    H163704   0.458   4.930   2.466 -0.4047 -0.1810 -0.2237
14071TIP3    H263705   0.331   5.006   2.498 -0.0337  0.1380  0.5207
14072TIP3   OH263706   0.503   0.408   3.790  0.6228  0.2442 -0.3881
14072TIP3    H163707   0.566   0.478   3.769  0.1132  0.9478  0.3832
14072TIP3    H263708   0.486   0.419   3.883  2.0289 -2.1581  0.1818
14073TIP3   OH263709   4.171   1.829  16.282 -0.0811  0.5497  0.6398
14073TIP3    H163710   4.194   1.921  16.297  0.0744  1.1244 -2.8177
14073TIP3    H263711   4.252   1.781  16.296 -0.1745  0.8766  2.5099
14074TIP3   OH263712   3.439   0.062   2.289  0.2816 -0.0893  0.2309
14074TIP3    H163713   3.378   0.062   2.363  0.4977  0.4230  0.4129
14074TIP3    H263714   3.523   0.039   2.327  0.5601  0.9997  0.2949
14075TIP3   OH263715   2.938   0.761  16.066 -0.3724 -0.0078  0.4916
14075TIP3    H163716   2.867   0.724  16.119 -1.0186  0.2054 -0.2346
14075TIP3    H263717   2.895   0.817  16.002  0.3646 -0.7630 -0.6804
14076TIP3   OH263718   4.509   1.866  15.998 -0.5524  0.2616  0.0840
14076TIP3    H163719   4.493   1.956  15.966  1.1647  0.5796  0.0472
14076TIP3    H263720   4.551   1.822  15.924 -1.6269 -0.6591  0.0145
14077TIP3   OH263721   4.582   1.419   6.655  0.5100 -0.6616  0.0406
14077TIP3    H163722   4.671   1.453   6.663  0.1281  0.2755  0.4218
14077TIP3    H263723   4.547   1.463   6.577  0.1172 -0.4088  0.3563
14078TIP3   OH263724   4.620   0.644  17.211  0.2700  0.3749  0.3246
14078TIP3    H163725   4.550   0.585  17.239 -2.2689  2.4797 -1.2712
14078TIP3    H263726   4.682   0.588  17.164 -0.7593 -1.4126  1.0554
14079TIP3   OH263727   2.690   3.203  15.045  0.4610 -0.2255 -0.2685
14079TIP3    H163728   2.732   3.248  14.972  1.1975 -1.0858 -0.3870
14079TIP3    H263729   2.741   3.230  15.122  0.4561 -0.3024 -0.2390
14080TIP3   OH263730   0.690   0.820   4.336  0.1852 -0.5874 -0.4850
14080TIP3    H163731   0.683   0.879   4.411  0.1834 -0.4251 -0.6116
14080TIP3    H263732   0.745   0.868   4.274 -0.2025 -0.5228 -0.7782
14081TIP3   OH263733   4.513   5.979  12.924  0.3335  0.1664 -0.3416
14081TIP3    H163734   4.504   6.026  13.007 -0.3322 -0.1289 -0.2440
14081TIP3    H263735   4.518   5.887  12.949  2.0783  0.1862 -0.5010
14082TIP3   OH263736   3.962   0.135   0.580  0.2849  0.3557 -0.4300
14082TIP3    H163737   3.966   0.201   0.510 -0.0083 -0.7956 -1.5361
14082TIP3    H263738   3.891   0.165   0.637 -0.5853  0.4033 -1.5364
14083TIP3   OH263739   4.038   1.980  14.952  0.4674 -0.0254 -0.0107
14083TIP3    H163740   4.038   2.047  14.884 -2.8129 -2.2452 -2.3285
14083TIP3    H263741   3.969   2.008  15.013  0.2428 -0.4071 -0.0862
14084TIP3   OH263742   2.518   1.619   5.111 -0.6576 -0.3622 -0.1907
14084TIP3    H163743   2.563   1.685   5.163 -1.5744  0.9411 -1.0297
14084TIP3    H263744   2.544   1.536   5.151  2.3477  0.3497 -0.5580
14085TIP3   OH263745   1.705   2.157   1.188  0.3051  0.4841  0.5420
14085TIP3    H163746   1.730   2.077   1.142  2.6898  0.1895  2.2369
14085TIP3    H263747   1.615   2.173   1.162  0.4336 -1.6705 -1.3533
14086TIP3   OH263748   3.693   5.652  14.668  0.0849  0.4980 -0.1366
14086TIP3    H163749   3.637   5.595  14.616  1.5217 -0.7936 -0.3286
14086TIP3    H263750   3.782   5.629  14.641  0.8273  0.4289  2.2345
14087TIP3   OH263751   6.495   3.860   3.295 -0.0433  0.5986  0.4956
14087TIP3    H163752   6.522   3.874   3.204  3.2291 -0.7085  1.1978
14087TIP3    H263753   6.444   3.937   3.317  0.1916  1.5345 -2.0683
14088TIP3   OH263754   2.131   3.392  14.466  0.0894 -0.5705 -0.3429
14088TIP3    H163755   2.195   3.409  14.397  0.3184 -0.0767 -0.0116
14088TIP3    H263756   2.081   3.317  14.434  0.4775 -0.6188 -0.8472
14089TIP3   OH263757   3.132   3.388   1.154 -0.0684  0.0351 -0.0955
14089TIP3    H163758   3.106   3.311   1.205 -0.5272 -0.3325 -0.8758
14089TIP3    H263759   3.227   3.386   1.153 -0.0645 -0.0603  0.5878
14090TIP3   OH263760   5.619   6.782  12.334 -0.2560  0.3355  0.6994
14090TIP3    H163761   5.536   6.786  12.382 -0.1298 -1.4668  1.1313
14090TIP3    H263762   5.600   6.725  12.259  0.3804  0.5835  0.3465
14091TIP3   OH263763   5.897   6.658  14.002 -0.0949 -0.1780 -0.0987
14091TIP3    H163764   5.950   6.735  13.981 -0.5966 -0.1608 -1.3885
14091TIP3    H263765   5.958   6.597  14.043  1.2226 -0.6049 -2.5674
14092TIP3   OH263766   0.848   2.436  13.615 -0.1961 -0.3428 -0.0927
14092TIP3    H163767   0.842   2.516  13.563  0.8802  0.1544  0.5243
14092TIP3    H263768   0.846   2.466  13.706  1.8710 -0.8556  0.1551
14093TIP3   OH263769   4.787   6.415   2.159  0.0124 -0.0918  0.0696
14093TIP3    H163770   4.723   6.384   2.223  0.3671 -1.4866 -0.2297
14093TIP3    H263771   4.778   6.354   2.086  1.2423  0.0899 -0.2394
14094TIP3   OH263772   4.398   5.726   4.828  0.1149 -0.4104  0.1743
14094TIP3    H163773   4.436   5.786   4.764  0.9532 -0.6001  0.4867
14094TIP3    H263774   4.462   5.655   4.835 -0.6397 -1.0956  0.1725
14095TIP3   OH263775   2.509   2.638   1.795 -0.7195  0.1344  0.2370
14095TIP3    H163776   2.584   2.661   1.851  0.3525 -0.1570 -1.0657
14095TIP3    H263777   2.537   2.559   1.749 -0.8755  1.4084 -2.0951
14096TIP3   OH263778   1.984   6.674  12.163 -0.5302 -0.3824  0.3464
14096TIP3    H163779   2.022   6.604  12.216  0.0905 -0.1436  0.2227
14096TIP3    H263780   1.922   6.630  12.105  0.6596 -0.9862 -0.4969
14097TIP3   OH263781   4.644   5.667   5.141 -0.0498  0.1172 -0.6397
14097TIP3    H163782   4.645   5.577   5.108  0.0685 -0.1175 -0.0048
14097TIP3    H263783   4.629   5.658   5.235  1.0129  0.7055 -0.3987
14098TIP3   OH263784   4.938   5.093  14.073  0.4399 -0.3368  0.0266
14098TIP3    H163785   4.903   5.004  14.077 -1.4906  0.3693 -0.6267
14098TIP3    H263786   4.996   5.093  13.997  1.1934 -1.2834  0.5885
14099TIP3   OH263787   5.802   1.391   5.287  0.2581  0.1700 -0.6078
14099TIP3    H163788   5.745   1.370   5.213  0.1996  0.1392 -0.5543
14099TIP3    H263789   5.797   1.314   5.344 -0.0090  0.3538 -0.3769
14100TIP3   OH263790   1.668   6.680  15.624  0.0051  0.3999  0.2381
14100TIP3    H163791   1.747   6.733  15.619 -0.7474  1.4337 -0.8783
14100TIP3    H263792   1.699   6.590  15.610  1.2123  0.5758  1.6349
14101TIP3   OH263793   4.230   1.118  16.436 -0.1664  0.4691  0.1425
14101TIP3    H163794   4.173   1.174  16.383  1.0954  2.4575  0.8224
14101TIP3    H263795   4.319   1.139  16.406  0.2794 -1.8688 -0.2271
14102TIP3   OH263796   1.159   5.448  12.514 -0.5036 -0.6144  0.0868
14102TIP3    H163797   1.086   5.510  12.515 -0.2625 -0.3454  0.8918
14102TIP3    H263798   1.210   5.469  12.592  1.4048  0.3737 -1.3696
14103TIP3   OH263799   2.123   4.967  16.844  0.3292  0.2162  0.0328
14103TIP3    H163800   2.055   4.905  16.818  1.0377 -0.2117 -0.8225
14103TIP3    H263801   2.176   4.920  16.908 -0.5633  0.7811  1.2191
14104TIP3   OH263802   3.023   3.003  13.995 -0.1641  0.4316  0.1722
14104TIP3    H163803   3.064   2.994  14.081 -2.4965  1.0420  1.3737
14104TIP3    H263804   3.026   2.915  13.958 -0.0967 -0.0567  1.3121
14105TIP3   OH263805   5.865   3.271  11.737 -0.3058 -0.5951 -0.4416
14105TIP3    H163806   5.852   3.364  11.722  0.7056  0.1047  2.6413
14105TIP3    H263807   5.947   3.250  11.694  1.7104  0.9768  2.4574
14106TIP3   OH263808   2.086   5.848  14.007  0.4909 -0.1713 -0.2192
14106TIP3    H163809   2.178   5.864  13.984  0.8631  0.0571  1.3647
14106TIP3    H263810   2.091   5.796  14.087 -0.7665  1.4918  0.9630
14107TIP3   OH263811   6.177   0.456   5.134  0.3724 -0.0456  0.2260
14107TIP3    H163812   6.114   0.484   5.068 -0.1162 -0.2032  0.6154
14107TIP3    H263813   6.261   0.457   5.090  0.0063 -0.4497 -0.4838
14108TIP3   OH263814   2.406   4.239   3.140  0.3779 -0.2400  0.1864
14108TIP3    H163815   2.332   4.196   3.097 -0.5190  1.0887  0.3554
14108TIP3    H263816   2.483   4.190   3.111 -0.4860 -1.1083 -0.6753
14109TIP3   OH263817   3.902   4.275  12.467 -0.1834 -0.1684 -0.0662
14109TIP3    H163818   3.860   4.191  12.487 -0.3393 -0.1259 -0.2062
14109TIP3    H263819   3.969   4.254  12.402  0.4117 -0.3251  0.5985
14110TIP3   OH263820   1.761   1.103   2.021 -0.5213  0.0123 -0.4792
14110TIP3    H163821   1.850   1.119   1.989 -0.4298  0.5192  0.0346
14110TIP3    H263822   1.736   1.020   1.981 -0.1865  0.3600 -1.4109
14111TIP3   OH263823   0.629   3.158  15.101  0.7666 -0.3836 -0.5699
14111TIP3    H163824   0.548   3.122  15.136  0.0466 -0.2412 -2.0363
14111TIP3    H263825   0.689   3.084  15.099  0.4022 -0.6902 -0.2676
14112TIP3   OH263826   1.707   3.986  17.266 -0.5287 -0.1569 -0.6538
14112TIP3    H163827   1.645   4.048  17.305  0.2765 -0.5721  1.3482
14112TIP3    H263828   1.652   3.929  17.212 -1.4195  1.6230 -1.6672
14113TIP3   OH263829   5.751   1.717   0.376  0.6840  0.5044 -0.1797
14113TIP3    H163830   5.836   1.704   0.419  1.1868 -3.1232 -2.0728
14113TIP3    H263831   5.698   1.643   0.406 -1.2439  1.7617 -0.4247
14114TIP3   OH263832   0.125   3.840  13.657  0.0504 -0.1626 -0.4379
14114TIP3    H163833   0.150   3.917  13.709 -1.3045 -0.3027  0.4438
14114TIP3    H263834   0.169   3.767  13.699  1.0294  0.0796 -1.0430
14115TIP3   OH263835   4.760   4.647   2.392 -0.3416  0.2384 -0.1202
14115TIP3    H163836   4.777   4.611   2.479  0.5920  0.4916 -0.1999
14115TIP3    H263837   4.764   4.742   2.403 -1.9081  0.3164 -0.0985
14116TIP3   OH263838   5.608   1.576  10.390 -0.0420  0.9027  0.3004
14116TIP3    H163839   5.619   1.528  10.309 -0.5008  2.0628 -0.4595
14116TIP3    H263840   5.545   1.524  10.441 -1.7585  1.5019 -1.1680
14117TIP3   OH263841   0.948   6.297  11.898 -0.7523 -0.4105  0.0652
14117TIP3    H163842   0.951   6.361  11.827 -2.2792 -2.2529 -1.6968
14117TIP3    H263843   0.855   6.287  11.918 -0.3324  0.4324  2.7105
14118TIP3   OH263844   3.211   2.971   5.418 -0.4173  0.6301  0.1868
14118TIP3    H163845   3.289   2.952   5.366 -0.8880 -0.1243 -0.2411
14118TIP3    H263846   3.188   2.888   5.458 -2.9318  0.0807 -2.2964
14119TIP3   OH263847   4.133   1.055  10.762  0.1857 -0.2057  0.2120
14119TIP3    H163848   4.186   1.123  10.804  1.0571 -1.5350  1.3276
14119TIP3    H263849   4.191   0.978  10.758 -0.9407 -1.0448 -0.5639
14120TIP3   OH263850   2.425   4.079   1.849  0.1642 -0.2540 -0.2583
14120TIP3    H163851   2.385   4.032   1.776 -0.7303  0.6061 -0.3225
14120TIP3    H263852   2.381   4.044   1.927  0.0849 -0.1241 -0.2440
14121TIP3   OH263853   5.077   4.890   4.627  0.6340  0.0296  0.3537
14121TIP3    H163854   5.022   4.863   4.553 -0.7042  0.7756  1.0542
14121TIP3    H263855   5.166   4.892   4.591  0.0571 -0.0205 -1.1257
14122TIP3   OH263856   0.769   0.661  11.379 -0.2461 -0.4139 -0.3328
14122TIP3    H163857   0.695   0.707  11.419  0.1951 -0.0815  0.1179
14122TIP3    H263858   0.814   0.728  11.327 -0.7127 -0.8031 -1.2459
14123TIP3   OH263859   2.568   2.839  14.686 -0.2947 -0.2350 -0.2323
14123TIP3    H163860   2.539   2.921  14.646  1.0259  0.8327  0.9624
14123TIP3    H263861   2.659   2.855  14.711  0.3520 -2.4823 -1.0915
14124TIP3   OH263862   1.127   3.428  11.869 -0.2842 -0.2334 -0.5440
14124TIP3    H163863   1.149   3.475  11.790 -1.9250  1.0949 -0.2529
14124TIP3    H263864   1.037   3.455  11.889 -0.7160 -2.2693  0.5158
14125TIP3   OH263865   4.424   1.088   4.875  0.4151  0.1699 -0.6134
14125TIP3    H163866   4.469   1.027   4.932  0.4311 -2.1405 -3.0321
14125TIP3    H263867   4.343   1.043   4.849 -1.2916  2.5538  0.3018
14126TIP3   OH263868   3.029   2.081   6.245  0.1047  0.0207 -0.1611
14126TIP3    H163869   3.061   2.003   6.289  1.8692  0.1052 -1.2416
14126TIP3    H263870   3.065   2.075   6.156 -0.3645  1.6678 -0.4897
14127TIP3   OH263871   6.748   5.950   3.604 -0.2825  0.4095  0.0148
14127TIP3    H163872   6.811   5.988   3.542 -1.5129  1.8439 -0.3992
14127TIP3    H263873   6.709   5.877   3.556 -1.0838  1.3914 -0.8389
14128TIP3   OH263874   2.240   1.482   0.884 -0.1317  0.5160  0.2988
14128TIP3    H163875   2.242   1.574   0.910 -1.0733  0.9442 -1.0784
14128TIP3    H263876   2.147   1.462   0.876  0.1124  0.2550 -2.1357
14129TIP3   OH263877   6.473   2.629  14.950  0.0743 -0.5192  0.0643
14129TIP3    H163878   6.378   2.634  14.955  0.1528  1.1302  0.1538
14129TIP3    H263879   6.491   2.540  14.922 -1.4945 -0.8730  0.1476
14130TIP3   OH263880   2.183   0.575   0.599  0.0208 -0.1520 -0.5408
14130TIP3    H163881   2.159   0.616   0.682  2.1277 -1.5833  0.8399
14130TIP3    H263882   2.228   0.644   0.550  1.2272 -0.0499  0.6762
14131TIP3   OH263883   4.482   4.702  15.903 -0.5776  0.7439 -0.3153
14131TIP3    H163884   4.489   4.784  15.951 -0.3869  0.1853  0.6241
14131TIP3    H263885   4.400   4.663  15.932  0.1839 -0.2352  0.5814
14132TIP3   OH263886   5.512   5.381   4.753 -0.6523 -0.0820 -0.3946
14132TIP3    H163887   5.517   5.395   4.659 -2.0555 -1.6089 -0.7146
14132TIP3    H263888   5.457   5.303   4.763  1.1999 -1.1897  1.5916
14133TIP3   OH263889   5.789   4.153  15.749 -0.2346 -0.6007  0.0538
14133TIP3    H163890   5.698   4.125  15.735 -0.8680  1.9137 -1.0209
14133TIP3    H263891   5.784   4.216  15.820  0.5566  0.1682 -0.5609
14134TIP3   OH263892   6.479   4.099   6.602 -0.6529  0.4327 -0.0667
14134TIP3    H163893   6.479   4.170   6.538  0.0771  1.0155  0.5704
14134TIP3    H263894   6.410   4.040   6.572 -0.6612  0.9555 -1.1008
14135TIP3   OH263895   4.706   1.284   1.774  0.7990 -0.1448 -0.5313
14135TIP3    H163896   4.631   1.344   1.777  1.3291  0.5235 -0.3690
14135TIP3    H263897   4.755   1.303   1.854 -0.0294 -2.1526  0.4766
14136TIP3   OH263898   0.503   4.017  15.560 -0.3726  0.0373  0.2848
14136TIP3    H163899   0.558   4.010  15.637  1.1810  0.8824 -0.7266
14136TIP3    H263900   0.493   3.927  15.529 -0.1944 -0.1968  0.9083
14137TIP3   OH263901   0.995   0.703   0.875  0.0169 -0.1199  0.2851
14137TIP3    H163902   1.020   0.781   0.925 -0.6429 -0.8179  1.7238
14137TIP3    H263903   1.042   0.712   0.792 -1.0660  2.4637 -0.0979
14138TIP3   OH263904   1.567   0.717  15.587 -0.1743  0.0953  1.0166
14138TIP3    H163905   1.483   0.745  15.623  0.2192  0.4776  1.6363
14138TIP3    H263906   1.598   0.650  15.647  0.9655  1.4582  1.9717
14139TIP3   OH263907   0.043   1.634  16.839 -0.1272  0.3325  0.4761
14139TIP3    H163908   0.134   1.645  16.811  0.4487 -1.2929  1.6465
14139TIP3    H263909   0.005   1.722  16.831  1.5281  1.0248 -0.0514
14140TIP3   OH263910   1.571   3.435  11.257  0.2181 -0.2062 -0.2385
14140TIP3    H163911   1.528   3.467  11.178 -0.4351 -1.8520 -0.5724
14140TIP3    H263912   1.655   3.481  11.259 -0.9525  2.0002 -0.3195
14141TIP3   OH263913   4.519   6.754   3.785 -0.4974  0.2832  0.2061
14141TIP3    H163914   4.476   6.710   3.712 -1.0781  1.4075 -0.1286
14141TIP3    H263915   4.447   6.784   3.841 -0.1194  1.3733  0.1096
14142TIP3   OH263916   0.011   0.196  13.794 -0.3523 -0.0000  1.0624
14142TIP3    H163917   0.005   0.259  13.866  0.5798  0.5535  0.6561
14142TIP3    H263918  -0.058   0.221  13.734  1.0165  1.6350  0.1261
14143TIP3   OH263919   1.700   0.815   3.891 -0.3798 -0.6714 -0.7664
14143TIP3    H163920   1.734   0.730   3.919 -0.0462 -0.7221 -1.3279
14143TIP3    H263921   1.678   0.803   3.799  1.0253  0.2694 -1.2311
14144TIP3   OH263922   4.928   0.514   2.564  0.6976 -0.0894  1.0442
14144TIP3    H163923   4.911   0.455   2.490 -0.3561 -1.1756  2.1193
14144TIP3    H263924   4.842   0.524   2.606  0.9029  2.1002  0.9726
14145TIP3   OH263925   6.334   3.315   0.182  0.7252 -0.2363  0.1577
14145TIP3    H163926   6.245   3.329   0.214  0.9623  1.3877  0.1130
14145TIP3    H263927   6.381   3.278   0.256  0.1155 -0.7501  0.2933
14146TIP3   OH263928   5.528   1.108  12.286 -0.1621 -0.6942 -0.1266
14146TIP3    H163929   5.549   1.019  12.258 -0.4386 -0.1993 -1.9306
14146TIP3    H263930   5.450   1.098  12.341 -1.6834 -1.3252 -2.3384
14147TIP3   OH263931   3.150   2.953   2.173 -0.6969  0.3514 -0.3173
14147TIP3    H163932   3.113   2.878   2.219 -0.0889 -1.0894 -2.1293
14147TIP3    H263933   3.197   3.001   2.241  1.0864 -2.3177  0.4129
14148TIP3   OH263934   0.344   4.551   2.758 -0.7182  0.6144 -0.0794
14148TIP3    H163935   0.435   4.556   2.786 -0.1894  3.5650 -2.1622
14148TIP3    H263936   0.347   4.520   2.668 -1.9879 -2.1858  0.8070
14149TIP3   OH263937   2.022   2.632   0.749 -0.6331 -0.1555 -0.0948
14149TIP3    H163938   2.117   2.645   0.752 -0.6308  0.6388 -2.5207
14149TIP3    H263939   1.991   2.665   0.833  1.1703  0.2475  0.4403
14150TIP3   OH263940   1.855   2.147  11.087 -0.4403 -0.4256 -0.2828
14150TIP3    H163941   1.849   2.226  11.033  0.2841  0.8096  1.3935
14150TIP3    H263942   1.933   2.160  11.140 -0.8589 -1.8289  0.7083
14151TIP3   OH263943   4.359   4.873  10.501  0.0068 -0.6634  0.6508
14151TIP3    H163944   4.386   4.964  10.511 -0.6609 -0.4547  0.5816
14151TIP3    H263945   4.287   4.876  10.438  0.2500 -1.2830  0.3498
14152TIP3   OH263946   2.208   4.966   3.940  0.2882  0.2118 -0.2604
14152TIP3    H163947   2.156   5.041   3.912  0.1109 -0.2901 -1.3424
14152TIP3    H263948   2.259   4.997   4.014 -0.9304  0.9517  0.2720
14153TIP3   OH263949   5.632   6.381  11.654 -0.2104  0.0336 -0.0530
14153TIP3    H163950   5.588   6.299  11.633  1.5160 -0.7027 -0.7974
14153TIP3    H263951   5.576   6.449  11.615 -0.6619 -0.8951 -1.0396
14154TIP3   OH263952   4.738   0.694  11.033  0.0258  0.1083  0.0530
14154TIP3    H163953   4.736   0.693  11.129 -0.3215  1.3984  0.0665
14154TIP3    H263954   4.786   0.614  11.010  0.1243 -0.2102  1.2972
14155TIP3   OH263955   4.077   4.817  14.700 -0.1487  0.1169 -0.5818
14155TIP3    H163956   3.998   4.765  14.696 -0.9448  1.3459 -1.1790
14155TIP3    H263957   4.054   4.893  14.753  0.9074  0.0182  0.0419
14156TIP3   OH263958   3.024   4.476   2.054  0.0147  0.5941 -0.1777
14156TIP3    H163959   2.972   4.532   2.112 -1.5799  0.3829 -1.3743
14156TIP3    H263960   3.061   4.537   1.990  1.1012  0.7180  0.5589
14157TIP3   OH263961   0.330   1.322  12.691  0.1935  0.4502 -0.1806
14157TIP3    H163962   0.349   1.316  12.785  1.8185 -0.4592 -0.5627
14157TIP3    H263963   0.403   1.278  12.648  0.1568  2.0498 -1.9477
14158TIP3   OH263964   2.479   4.978  13.815 -0.2563 -0.0572  0.6213
14158TIP3    H163965   2.483   4.884  13.796 -2.5848  0.3127 -2.0591
14158TIP3    H263966   2.449   5.018  13.733  1.9263  3.1916  1.3078
14159TIP3   OH263967   2.003   3.038  13.196  0.4802 -0.5374  0.0841
14159TIP3    H163968   2.057   2.996  13.263  0.7325  2.1077  1.6298
14159TIP3    H263969   1.919   3.053  13.239  0.2041 -0.0337 -0.6292
14160TIP3   OH263970   3.287   1.777   3.445 -0.9120 -0.3092  0.7416
14160TIP3    H163971   3.195   1.751   3.450 -0.8428 -0.4519  1.3429
14160TIP3    H263972   3.335   1.697   3.466 -0.6340 -0.3981 -0.2253
14161TIP3   OH263973   3.905   1.780   5.640 -0.6707  0.3279 -0.5289
14161TIP3    H163974   3.852   1.727   5.700 -0.5498 -0.3186 -0.9782
14161TIP3    H263975   3.960   1.833   5.697  0.6834 -1.5401 -0.0311
14162TIP3   OH263976   3.754   5.126  14.435  0.3287  0.2544 -0.0955
14162TIP3    H163977   3.779   5.218  14.424 -1.6883  1.0316  1.5056
14162TIP3    H263978   3.676   5.115  14.381  0.5808 -0.5282 -0.3038
14163TIP3   OH263979   4.932   2.058   0.062 -0.4698 -0.1648  0.1081
14163TIP3    H163980   4.899   2.091  -0.022  0.8876 -2.5106 -1.3944
14163TIP3    H263981   4.939   1.963   0.050 -0.2705 -0.5464  2.8963
14164TIP3   OH263982   3.308   5.131   2.881 -0.1790 -0.9590 -0.3276
14164TIP3    H163983   3.371   5.064   2.855 -0.0374 -0.8515 -0.2665
14164TIP3    H263984   3.224   5.102   2.844  0.1697 -0.3967 -1.6202
14165TIP3   OH263985   0.295   2.473  14.542  0.1591 -0.0412 -0.1563
14165TIP3    H163986   0.347   2.527  14.482  1.3919 -0.6658  0.3222
14165TIP3    H263987   0.204   2.490  14.517  0.5347  1.8782 -0.3383
14166TIP3   OH263988   4.432   1.729   3.655  0.0897  0.2849  0.1138
14166TIP3    H163989   4.369   1.789   3.616 -1.3317  0.7367  2.9413
14166TIP3    H263990   4.507   1.730   3.596 -1.0892  2.5787 -1.4061
14167TIP3   OH263991   2.791   4.022  16.862 -0.6313 -0.1515  0.7206
14167TIP3    H163992   2.696   4.037  16.866 -0.6877 -0.2564 -0.0899
14167TIP3    H263993   2.828   4.109  16.849 -0.6989 -0.2401 -0.1056
14168TIP3   OH263994   1.121   0.064   5.421 -0.6041  0.8480 -0.4096
14168TIP3    H163995   1.205   0.111   5.427 -0.6714  0.9043  0.1854
14168TIP3    H263996   1.091   0.079   5.332  0.1916  0.5399 -0.7367
14169TIP3   OH263997   3.088   2.268  15.491 -0.1466  0.2920  0.1175
14169TIP3    H163998   3.005   2.258  15.445 -0.1240 -0.2621  0.1929
14169TIP3    H263999   3.149   2.212  15.443 -0.0924 -0.1990  0.7445
14170TIP3   OH264000   0.065   1.711  13.342 -0.8134 -0.2228  0.1122
14170TIP3    H164001   0.000   1.767  13.384 -1.2146  1.4313 -2.6308
14170TIP3    H264002   0.020   1.673  13.267  1.3569  0.9659 -1.8678
14171TIP3   OH264003   4.126   1.912  11.460  0.4085  0.1756 -0.0896
14171TIP3    H164004   4.033   1.892  11.447  0.5552 -0.1662 -0.6084
14171TIP3    H264005   4.133   1.934  11.553 -0.2513  0.5277 -0.1219
14172TIP3   OH264006   0.515   4.060   3.031 -0.4654  0.2511  0.8759
14172TIP3    H164007   0.455   4.120   2.987 -2.3936 -1.9089  0.4802
14172TIP3    H264008   0.482   3.973   3.010  1.3290 -0.9288  2.7532
14173TIP3   OH264009   5.362   0.861   0.047 -0.4316  0.0960  0.1402
14173TIP3    H164010   5.343   0.774   0.082 -0.5109  0.2920  0.5868
14173TIP3    H264011   5.438   0.848  -0.010  0.6665  0.0453  1.6102
14174TIP3   OH264012   5.132   3.461  14.639 -0.3626  0.3001  0.3797
14174TIP3    H164013   5.170   3.384  14.682  2.3891  2.1568  1.3649
14174TIP3    H264014   5.149   3.447  14.545 -1.8280 -1.3147  0.3374
14175TIP3   OH264015   2.025   4.823   0.440 -0.2830 -0.1994 -0.0537
14175TIP3    H164016   2.001   4.817   0.533 -0.0612 -2.8195 -0.1109
14175TIP3    H264017   1.958   4.878   0.401 -1.5458 -0.7248  1.3182
14176TIP3   OH264018   2.379   5.612  16.562  0.0035 -0.0055  0.3367
14176TIP3    H164019   2.385   5.610  16.658  0.7460 -3.2191  0.2517
14176TIP3    H264020   2.461   5.651  16.534 -0.0904  0.6772  0.9813
14177TIP3   OH264021   6.711   3.769  15.184 -0.2170 -0.0648  0.4411
14177TIP3    H164022   6.744   3.794  15.269  0.9414 -0.1799  0.0300
14177TIP3    H264023   6.741   3.679  15.172 -0.2252  0.0089 -0.1600
14178TIP3   OH264024   5.506   0.828   4.740  0.1621  0.2793  0.1282
14178TIP3    H164025   5.570   0.827   4.668 -1.0858  0.9582 -1.0163
14178TIP3    H264026   5.440   0.763   4.714  0.5257 -0.6488  1.4523
14179TIP3   OH264027   5.031   2.331   4.058 -0.2049 -0.0281  0.6943
14179TIP3    H164028   5.083   2.401   4.098  3.0840  0.5663 -4.1635
14179TIP3    H264029   4.987   2.372   3.985 -0.3129 -2.4468 -0.6599
14180TIP3   OH264030   1.902   3.262   5.377  0.3748  0.5827  0.3857
14180TIP3    H164031   1.881   3.169   5.373 -0.8214  0.8999 -1.3342
14180TIP3    H264032   1.927   3.277   5.469 -1.2418 -1.0517  1.1313
14181TIP3   OH264033   5.994   5.259  13.489 -0.6152 -0.6000 -0.1911
14181TIP3    H164034   5.983   5.265  13.394 -2.7996  0.5945  0.1133
14181TIP3    H264035   6.074   5.309  13.506 -0.6884 -0.0786 -1.3059
14182TIP3   OH264036   1.336   1.627   6.574  0.1477  0.0424 -0.8380
14182TIP3    H164037   1.347   1.592   6.662 -0.8625 -0.6688 -0.9877
14182TIP3    H264038   1.421   1.614   6.532  1.1055  1.7470  0.4990
14183TIP3   OH264039   4.208   5.620   1.150 -0.0019 -0.0773  0.1898
14183TIP3    H164040   4.288   5.638   1.102  0.5808 -0.2858  1.0609
14183TIP3    H264041   4.228   5.543   1.203  0.2387  1.6490  2.6922
14184TIP3   OH264042   4.945   4.363   4.372 -0.5736 -0.2779  0.4069
14184TIP3    H164043   5.038   4.383   4.362 -0.2956 -0.9685  1.4610
14184TIP3    H264044   4.941   4.268   4.371 -1.1170 -0.2734  1.6003
14185TIP3   OH264045   4.424   4.499  11.049  0.1190 -0.2336  0.2365
14185TIP3    H164046   4.503   4.525  11.001 -0.1587 -1.4996 -0.9251
14185TIP3    H264047   4.430   4.404  11.056 -0.7096 -0.2195  1.2052
14186TIP3   OH264048   6.415   6.243   3.415 -0.8253 -0.3734 -0.2046
14186TIP3    H164049   6.379   6.325   3.451 -3.5501 -1.3292 -0.6418
14186TIP3    H264050   6.458   6.202   3.490  0.5363  1.3986  0.0370
14187TIP3   OH264051   2.270   1.913   4.939  0.0678  0.3869  0.1336
14187TIP3    H164052   2.263   1.820   4.958 -1.6583  0.8352  1.7304
14187TIP3    H264053   2.195   1.953   4.983  0.3375  2.4317 -1.1987
14188TIP3   OH264054   0.085   0.317  12.467 -0.4782  0.2234  0.1914
14188TIP3    H164055   0.068   0.233  12.511 -0.0601  0.4373  0.7545
14188TIP3    H264056   0.180   0.325  12.466 -0.4496 -0.0707 -1.3135
14189TIP3   OH264057   2.679   2.083  14.188  0.4793  0.2890 -0.4871
14189TIP3    H164058   2.677   2.154  14.252  0.2255 -1.1945  1.2033
14189TIP3    H264059   2.587   2.073  14.162  0.7443  1.7355 -2.0911
14190TIP3   OH264060   3.840   5.239  12.741  0.6133  0.0744 -0.3720
14190TIP3    H164061   3.832   5.293  12.819  0.6747 -0.8120  0.2604
14190TIP3    H264062   3.870   5.299  12.673 -2.5646  1.5668 -0.5481
14191TIP3   OH264063   1.751   0.613  13.290  0.0122  0.0509 -0.5994
14191TIP3    H164064   1.694   0.686  13.313  1.9555  0.8155  2.0309
14191TIP3    H264065   1.838   0.652  13.283  1.0329 -1.9261  0.5556
14192TIP3   OH264066   1.589   5.734  12.402 -0.2861  0.0883 -0.3306
14192TIP3    H164067   1.507   5.702  12.364 -1.2139  0.3973  1.3979
14192TIP3    H264068   1.601   5.821  12.362 -1.6688  0.7419  0.6420
14193TIP3   OH264069   6.041   6.232  15.904  0.2303  0.5064  0.0274
14193TIP3    H164070   6.126   6.232  15.860 -1.2091  0.6999 -2.8786
14193TIP3    H264071   5.990   6.166  15.856 -2.4695  3.0857 -0.7660
14194TIP3   OH264072   6.395   4.442  16.633  0.2996  0.3941 -0.8002
14194TIP3    H164073   6.348   4.417  16.713  1.0797 -0.3914 -0.5713
14194TIP3    H264074   6.484   4.407  16.646 -0.2769 -2.1774 -3.1699
14195TIP3   OH264075   2.187   5.663   1.640 -0.0255 -0.4460  0.3387
14195TIP3    H164076   2.116   5.606   1.669 -1.9568  2.5097  1.6364
14195TIP3    H264077   2.172   5.746   1.686  1.8905  1.5729 -2.4763
14196TIP3   OH264078   0.530   4.375  11.737  0.5635  0.0260  0.0118
14196TIP3    H164079   0.621   4.369  11.707  0.3492 -4.0980 -0.1541
14196TIP3    H264080   0.530   4.328  11.820 -1.2338  0.9243  0.5313
14197TIP3   OH264081   3.220   6.473   1.306  0.4981  0.4078 -0.0865
14197TIP3    H164082   3.208   6.427   1.222  0.5736 -0.2952  0.2878
14197TIP3    H264083   3.242   6.404   1.368  1.7558  1.0921  0.2462
14198TIP3   OH264084   5.595   2.464  12.530 -0.2315  0.4336 -0.8414
14198TIP3    H164085   5.664   2.523  12.561 -0.1700  1.9903 -3.7512
14198TIP3    H264086   5.520   2.484  12.586  0.4933  1.6237 -0.2634
14199TIP3   OH264087   2.136   4.586   1.804  0.1924  0.3091 -0.1176
14199TIP3    H164088   2.159   4.585   1.897  0.7743 -1.1776 -0.2703
14199TIP3    H264089   2.177   4.507   1.768 -1.1710  0.1529 -1.3587
14200TIP3   OH264090   4.176   6.467  14.996  0.1434  0.1807  0.3505
14200TIP3    H164091   4.204   6.541  14.942 -1.8253  1.1448  0.6107
14200TIP3    H264092   4.209   6.390  14.950 -0.6690  1.0445 -1.7228
14201TIP3   OH264093   3.244   1.361   5.322  0.7053 -0.0342 -0.6854
14201TIP3    H164094   3.218   1.275   5.290 -0.5381  0.1902 -0.3076
14201TIP3    H264095   3.213   1.363   5.413  0.5474  0.8782 -0.7567
14202TIP3   OH264096   4.418   0.513   2.213 -0.0791 -0.1702  0.2330
14202TIP3    H164097   4.452   0.540   2.298 -3.4024  0.0118  1.5646
14202TIP3    H264098   4.423   0.591   2.158  1.0572  0.0021  0.5759
14203TIP3   OH264099   1.241   3.802   2.159 -0.1996  0.2923  0.2571
14203TIP3    H164100   1.170   3.804   2.222  0.0954 -1.3155  0.6670
14203TIP3    H264101   1.314   3.762   2.206  0.1495 -0.5606 -0.9712
14204TIP3   OH264102   4.764   1.546   6.277 -0.1619  0.1781  0.2995
14204TIP3    H164103   4.748   1.626   6.326  0.9394  0.1033  0.7899
14204TIP3    H264104   4.709   1.480   6.320 -1.7104  0.8450 -0.6314
14205TIP3   OH264105   6.271   2.751  11.535  0.2016  0.0646 -0.1188
14205TIP3    H164106   6.290   2.842  11.513 -1.1780  0.3542 -0.1576
14205TIP3    H264107   6.202   2.725  11.475 -0.1808 -0.6717  0.6168
14206TIP3   OH264108   1.739   1.267  12.315  0.3467  0.1931 -0.0049
14206TIP3    H164109   1.710   1.315  12.238  0.3376 -0.0578 -0.1586
14206TIP3    H264110   1.789   1.193  12.280  0.0943 -0.0850  0.2185
14207TIP3   OH264111   4.754   6.221   1.976 -0.1239 -0.0576  0.2265
14207TIP3    H164112   4.686   6.223   1.909 -0.0962  0.2619  0.2063
14207TIP3    H264113   4.733   6.145   2.030 -1.5288  1.0494  1.2839
14208TIP3   OH264114   2.134   5.289   0.942  0.3840 -0.3835 -0.6049
14208TIP3    H164115   2.066   5.356   0.934  0.6666  0.1597  1.1162
14208TIP3    H264116   2.140   5.250   0.856  0.2099  1.8278 -1.6671
14209TIP3   OH264117   1.952   0.327  11.709 -0.1836  0.1959 -0.4840
14209TIP3    H164118   2.025   0.303  11.765  0.0390 -1.4986 -1.4526
14209TIP3    H264119   1.875   0.288  11.752  0.1019 -1.8824 -1.7505
14210TIP3   OH264120   5.047   1.473   0.693 -0.2435  0.2275 -0.2329
14210TIP3    H164121   5.023   1.435   0.608 -0.4799  0.0562 -0.0936
14210TIP3    H264122   5.078   1.561   0.673 -2.2127  0.9475 -0.3196
14211TIP3   OH264123   5.128   0.055  13.464 -0.7107  0.4936  0.1205
14211TIP3    H164124   5.217   0.020  13.463 -0.1620  1.8466 -1.7531
14211TIP3    H264125   5.125   0.113  13.540 -0.2090 -0.0560  0.5657
14212TIP3   OH264126   5.578   1.407   2.291 -0.4870  0.5437  0.3331
14212TIP3    H164127   5.624   1.484   2.258  1.6080 -1.2836 -1.2363
14212TIP3    H264128   5.499   1.401   2.238  0.2972  0.5700 -0.8567
14213TIP3   OH264129   6.197   3.673  14.192 -0.1045  0.4540  0.6324
14213TIP3    H164130   6.103   3.677  14.206 -0.3592  0.2646 -1.0449
14213TIP3    H264131   6.209   3.689  14.099  1.5493  0.8503  0.8959
14214TIP3   OH264132   4.532   0.504  15.329 -0.3486 -0.8905 -0.7919
14214TIP3    H164133   4.524   0.592  15.293  3.1436 -1.2329 -2.6165
14214TIP3    H264134   4.571   0.517  15.416 -0.5824 -0.6027 -0.7285
14215TIP3   OH264135   5.881   6.772   2.273 -0.2829  0.0253 -0.1943
14215TIP3    H164136   5.930   6.735   2.347 -2.6092 -1.0245  0.8699
14215TIP3    H264137   5.874   6.699   2.211 -1.7887 -0.2688  0.3189
14216TIP3   OH264138   1.958   6.390   5.180 -0.7049 -0.2519  0.0073
14216TIP3    H164139   1.966   6.385   5.085 -0.7926 -0.8335  0.0313
14216TIP3    H264140   1.895   6.322   5.203  0.2420 -0.9367  0.5976
14217TIP3   OH264141   3.470   0.849   2.311 -0.6685 -0.3760  0.6204
14217TIP3    H164142   3.478   0.898   2.230  0.9576  0.5543  1.3119
14217TIP3    H264143   3.453   0.916   2.378 -2.5752 -1.1852  0.9663
14218TIP3   OH264144   5.494   3.424   4.072  0.1330  0.5010 -0.2883
14218TIP3    H164145   5.447   3.490   4.021 -0.2869 -0.9010 -1.7654
14218TIP3    H264146   5.442   3.344   4.063 -0.3544  0.3750  3.0084
14219TIP3   OH264147   6.096   3.015   5.036  0.2116  0.3291  0.0462
14219TIP3    H164148   6.110   2.922   5.016  0.2306  0.4111 -0.3274
14219TIP3    H264149   6.181   3.047   5.065  0.4718  0.4901 -0.8738
14220TIP3   OH264150   4.027   1.762   0.949  0.6833 -0.4366 -0.1022
14220TIP3    H164151   4.045   1.710   1.028  0.7733 -1.3734 -0.7406
14220TIP3    H264152   3.975   1.836   0.981  0.8102 -0.7501  0.8535
14221TIP3   OH264153   2.089   1.751  14.262 -0.0393  0.0760 -0.2816
14221TIP3    H164154   2.178   1.716  14.266 -0.4854 -0.9643  0.6356
14221TIP3    H264155   2.033   1.673  14.260 -0.9493  0.7291 -0.3954
14222TIP3   OH264156   0.167   2.616  10.878 -0.3024  0.1580  0.0961
14222TIP3    H164157   0.150   2.709  10.862 -0.2767  0.0392 -0.6193
14222TIP3    H264158   0.158   2.575  10.792  4.5254  0.2111 -0.5876
14223TIP3   OH264159   2.002   6.703  12.737 -0.0545 -1.3699  0.1949
14223TIP3    H164160   1.947   6.718  12.814 -0.7476 -0.5756 -0.4525
14223TIP3    H264161   2.079   6.658  12.771  0.7139  1.0268  1.7193
14224TIP3   OH264162   5.273   1.398  12.012 -0.0904  0.0529  0.0566
14224TIP3    H164163   5.355   1.395  12.061 -0.8980 -1.5340  1.3555
14224TIP3    H264164   5.270   1.486  11.976  1.6907  0.4556  0.8410
14225TIP3   OH264165   2.765   2.972   5.161  0.2344  0.1467 -0.1755
14225TIP3    H164166   2.678   2.935   5.144 -0.7242  1.8314  0.8827
14225TIP3    H264167   2.812   2.902   5.205  0.0841 -1.4542 -2.4832
14226TIP3   OH264168   5.923   1.477   1.428 -0.3590 -0.6349 -0.6574
14226TIP3    H164169   5.897   1.399   1.378 -0.3190 -0.5264 -0.8509
14226TIP3    H264170   5.841   1.513   1.461 -0.4475 -0.3655 -1.1590
14227TIP3   OH264171   2.414   0.008   6.405  0.3350 -0.0688  0.2869
14227TIP3    H164172   2.415   0.102   6.386  0.2431 -0.1674 -0.2077
14227TIP3    H264173   2.461   0.000   6.488  0.4184  0.4056  0.2864
14228TIP3   OH264174   0.859   3.855   0.514  0.2686  0.6281  0.6420
14228TIP3    H164175   0.881   3.948   0.516  0.6435  0.5666 -0.5512
14228TIP3    H264176   0.922   3.815   0.575  1.9329  0.7830 -0.9425
14229TIP3   OH264177   3.259   1.083   0.232 -0.5064 -0.3761  0.3561
14229TIP3    H164178   3.354   1.087   0.245 -0.2270  1.6646 -1.8844
14229TIP3    H264179   3.245   1.007   0.176 -0.3171 -1.2626  1.4980
14230TIP3   OH264180   2.508   5.270  10.548 -0.2069  0.9980 -0.1199
14230TIP3    H164181   2.599   5.285  10.523 -0.3413 -1.4499 -2.3342
14230TIP3    H264182   2.499   5.175  10.550 -2.9603  1.1897 -0.8683
14231TIP3   OH264183   0.527   2.832  13.047  0.4467 -0.7818 -0.3166
14231TIP3    H164184   0.537   2.830  13.142 -2.5507  0.4515  0.0567
14231TIP3    H264185   0.490   2.918  13.028 -0.6209 -1.6715 -2.4358
14232TIP3   OH264186   6.341   3.131   1.073 -0.8013  0.2295 -0.7899
14232TIP3    H164187   6.277   3.100   1.138  0.0539  1.0740  0.4861
14232TIP3    H264188   6.329   3.073   0.998 -0.8847 -1.6248  0.6343
14233TIP3   OH264189   6.358   3.068  14.214 -0.0358 -0.1612 -0.0586
14233TIP3    H164190   6.294   2.998  14.224 -0.0552 -0.0236  0.8001
14233TIP3    H264191   6.312   3.147  14.240  0.4181 -0.0295  0.3502
14234TIP3   OH264192   2.189   5.655   0.922  0.3293 -0.0976  0.0566
14234TIP3    H164193   2.131   5.613   0.858  0.5072 -0.7510  0.3208
14234TIP3    H264194   2.176   5.605   1.002  1.4587 -0.4107  0.0461
14235TIP3   OH264195   5.900   1.919  14.834  0.4967  0.4486 -0.4160
14235TIP3    H164196   5.952   1.857  14.782 -0.0681 -1.1236  0.8167
14235TIP3    H264197   5.821   1.935  14.783 -0.4878 -1.8203  0.3259
14236TIP3   OH264198   4.006   5.379   1.931 -0.4345 -0.5881 -0.1926
14236TIP3    H164199   3.944   5.350   1.864 -0.3282  1.0309 -1.0118
14236TIP3    H264200   4.092   5.361   1.894 -0.3870 -0.7596  0.0008
14237TIP3   OH264201   2.250   0.756   0.387 -0.3001 -0.0282  0.2254
14237TIP3    H164202   2.182   0.732   0.323  0.3909  0.7662 -0.8387
14237TIP3    H264203   2.205   0.813   0.449 -1.2311 -1.6423  1.0653
14238TIP3   OH264204   4.571   3.190   3.181 -0.4027  0.0987 -0.8102
14238TIP3    H164205   4.581   3.256   3.250 -0.5976  0.3331 -1.0066
14238TIP3    H264206   4.494   3.140   3.206  0.1591 -0.5175 -0.2804
14239TIP3   OH264207   3.323   5.637  17.100 -0.2721 -0.4382 -0.0776
14239TIP3    H164208   3.260   5.609  17.167 -0.9252 -2.0183 -1.3193
14239TIP3    H264209   3.275   5.700  17.046 -0.4980 -0.9219 -0.4485
14240TIP3   OH264210   5.372   6.384  12.380  0.3129 -0.0597  0.1583
14240TIP3    H164211   5.389   6.370  12.287 -0.0037 -1.4410  0.3004
14240TIP3    H264212   5.450   6.429  12.412  0.4331  0.3912 -0.7660
14241TIP3   OH264213   4.510   5.221  12.776  0.0931  0.3260  0.3017
14241TIP3    H164214   4.571   5.262  12.838  2.0686 -0.8447 -0.8331
14241TIP3    H264215   4.539   5.130  12.772 -1.1987 -0.0333 -0.9386
14242TIP3   OH264216   3.756   3.034   6.343 -0.1029 -0.4188 -0.0686
14242TIP3    H164217   3.777   2.974   6.415  1.1066 -0.4067 -0.3954
14242TIP3    H264218   3.764   2.980   6.264 -0.4796 -0.1950 -0.2611
14243TIP3   OH264219   1.458   0.681  11.254 -0.4452 -0.3573  0.2172
14243TIP3    H164220   1.419   0.610  11.305 -0.4140 -0.7140 -0.2522
14243TIP3    H264221   1.451   0.652  11.163  1.4571 -0.6988  0.1647
14244TIP3   OH264222   3.827   0.499   1.140 -0.3361 -0.0624  0.3653
14244TIP3    H164223   3.904   0.460   1.099 -1.3023 -0.2984 -1.2523
14244TIP3    H264224   3.777   0.536   1.067 -1.3966  0.7306  1.4733
14245TIP3   OH264225   4.859   5.359  14.697  0.7079 -0.1480  0.0824
14245TIP3    H164226   4.785   5.332  14.642 -0.1592  1.5541  0.3734
14245TIP3    H264227   4.932   5.305  14.667 -0.0682 -0.1697 -1.8665
14246TIP3   OH264228   5.749   2.644  12.656 -0.2556 -0.2190  0.3129
14246TIP3    H164229   5.741   2.695  12.736 -0.6802 -2.2084  1.5783
14246TIP3    H264230   5.840   2.612  12.657  0.3712  1.4701 -1.0817
14247TIP3   OH264231   0.932   0.436   6.580 -0.3113  0.0771  0.1491
14247TIP3    H164232   0.902   0.345   6.585 -1.5920  0.4772 -0.2286
14247TIP3    H264233   1.025   0.431   6.604 -0.6115 -1.1961  1.1524
14248TIP3   OH264234   2.586   4.622  12.686 -0.0542 -0.4553  0.0973
14248TIP3    H164235   2.529   4.598  12.613 -0.3694 -0.2879  0.2834
14248TIP3    H264236   2.648   4.685  12.649 -0.7836  0.3202  0.1809
14249TIP3   OH264237   1.173   5.782  14.664 -0.1529  0.3420 -0.1884
14249TIP3    H164238   1.243   5.750  14.606  0.1044  0.1673  0.2139
14249TIP3    H264239   1.208   5.770  14.752 -2.1088 -3.2204  0.1913
14250TIP3   OH264240   4.498   5.375  16.219  0.3984  0.2772  0.1847
14250TIP3    H164241   4.431   5.441  16.238  0.5477  1.1863 -2.1975
14250TIP3    H264242   4.484   5.353  16.127  1.4042 -1.8280  0.5030
14251TIP3   OH264243   5.943   5.919   3.531 -0.0386  0.1802  0.2055
14251TIP3    H164244   5.918   5.831   3.504 -0.8815  0.3274  0.4896
14251TIP3    H264245   6.037   5.924   3.512 -0.3719 -0.1049 -1.5803
14252TIP3   OH264246   4.941   0.335   5.655 -0.4834  0.3524 -0.3533
14252TIP3    H164247   4.943   0.243   5.628  1.4202  0.3677 -0.3321
14252TIP3    H264248   4.981   0.336   5.742  1.5492  1.4478 -1.2420
14253TIP3   OH264249   1.714   1.432   2.303  0.6738  0.0405 -0.4037
14253TIP3    H164250   1.653   1.380   2.356  0.5785 -0.1200 -0.6735
14253TIP3    H264251   1.661   1.462   2.229  1.1633 -0.8602 -1.1269
14254TIP3   OH264252   5.770   4.674   2.332  0.4431 -0.1513 -0.4689
14254TIP3    H164253   5.697   4.638   2.282  1.1354 -0.5935 -1.1759
14254TIP3    H264254   5.848   4.647   2.283  1.1491 -0.8775  1.0328
14255TIP3   OH264255   4.864   4.505   3.659  0.4006  0.1739 -0.0580
14255TIP3    H164256   4.915   4.485   3.738  0.2339  1.8188  0.4823
14255TIP3    H264257   4.901   4.587   3.627  0.5993 -0.5868 -1.8285
14256TIP3   OH264258   2.345   5.882  13.956  0.2164  0.5091 -0.2069
14256TIP3    H164259   2.355   5.800  13.907 -2.2019  0.4797 -0.6742
14256TIP3    H264260   2.429   5.892  14.000  0.1437 -2.8862  0.8822
14257TIP3   OH264261   6.083   5.216  12.723 -0.0726  0.5388 -0.0497
14257TIP3    H164262   6.018   5.226  12.654 -0.7538  0.0955  0.5174
14257TIP3    H264263   6.094   5.121  12.732  0.7838  0.6152 -0.2676
14258TIP3   OH264264   6.131   6.627   1.562  0.3147 -0.2136  0.8209
14258TIP3    H164265   6.151   6.592   1.648  0.5092  1.1349  1.3395
14258TIP3    H264266   6.208   6.679   1.539 -0.1936  0.3207  0.3114
14259TIP3   OH264267   3.222   2.762   1.444 -0.0872 -0.2872  0.2078
14259TIP3    H164268   3.213   2.819   1.368 -0.3024 -0.3728  0.1699
14259TIP3    H264269   3.304   2.715   1.429  0.3787  0.4240  0.5100
14260TIP3   OH264270   3.740   2.710  15.933 -0.3073  0.1611 -0.6021
14260TIP3    H164271   3.768   2.688  16.022 -0.2500  0.5402 -0.5274
14260TIP3    H264272   3.820   2.738  15.889 -0.4538  0.6236 -0.5752
14261TIP3   OH264273   1.881   6.178  13.043 -0.1704 -0.1233  0.4079
14261TIP3    H164274   1.911   6.261  13.082 -1.1492 -0.6056  2.2194
14261TIP3    H264275   1.860   6.123  13.118 -1.5126 -1.2970 -0.8207
14262TIP3   OH264276   4.053   3.919   5.500 -0.2859  0.3837 -0.3530
14262TIP3    H164277   3.976   3.966   5.530 -1.6137 -1.3599 -0.9559
14262TIP3    H264278   4.019   3.836   5.466  1.8004 -0.2266 -1.0267
14263TIP3   OH264279   4.122   6.716   5.855  0.2351  0.1444 -0.0164
14263TIP3    H164280   4.087   6.771   5.785  1.1605  1.2315  0.3531
14263TIP3    H264281   4.045   6.678   5.896 -0.3414 -0.0101 -1.2309
14264TIP3   OH264282   1.657   6.440  12.905 -0.1267  0.0584  0.1314
14264TIP3    H164283   1.743   6.410  12.877  0.6705  1.2810  1.2280
14264TIP3    H264284   1.633   6.508  12.842 -0.0328  0.1334  0.1783
14265TIP3   OH264285   6.097   3.360   2.139  0.0809  0.2901 -0.3754
14265TIP3    H164286   6.018   3.403   2.173  0.2471  0.4205 -0.1581
14265TIP3    H264287   6.065   3.307   2.066 -0.1089  0.8791 -0.7254
14266TIP3   OH264288   3.868   5.475  12.403 -0.7689 -0.4374  0.1730
14266TIP3    H164289   3.911   5.406  12.352  0.2460  1.7645 -2.0378
14266TIP3    H264290   3.774   5.456  12.395 -0.5942 -0.5284 -1.9817
14267TIP3   OH264291   5.040   5.183  13.249  0.3999  0.0893  0.2403
14267TIP3    H164292   5.096   5.232  13.310  1.4295 -0.1257 -0.5316
14267TIP3    H264293   4.960   5.167  13.299  0.3468  1.8634  0.7898
14268TIP3   OH264294   1.872   2.613  16.763  0.1286 -0.2883  0.0021
14268TIP3    H164295   1.890   2.701  16.731  2.4825 -0.3487  1.0221
14268TIP3    H264296   1.884   2.557  16.686  0.8728  0.0503 -0.1303
14269TIP3   OH264297   0.557   5.642  11.069  0.2410  0.6413  0.0979
14269TIP3    H164298   0.579   5.691  10.989 -1.5585  1.3958  0.0439
14269TIP3    H264299   0.504   5.703  11.120  1.5908  0.2484  2.0117
14270TIP3   OH264300   2.462   3.721   5.577 -0.2319  0.4720  0.0208
14270TIP3    H164301   2.405   3.776   5.524  1.1917  0.5065 -1.4927
14270TIP3    H264302   2.550   3.742   5.547  0.3169 -3.0603 -1.0114
14271TIP3   OH264303   2.314   0.229  12.314  0.4904  0.1475  0.5235
14271TIP3    H164304   2.244   0.264  12.370  0.4591  1.4106 -0.2747
14271TIP3    H264305   2.274   0.153  12.272  0.1319 -0.1164  1.3361
14272TIP3   OH264306   2.674   6.304  13.823  0.2720  0.3392  0.1136
14272TIP3    H164307   2.712   6.345  13.900 -2.1276  2.8087  0.0544
14272TIP3    H264308   2.581   6.324  13.829 -0.1182 -0.3760 -2.8557
14273TIP3   OH264309   3.303   2.590  12.035  0.1491  0.6456  0.3224
14273TIP3    H164310   3.244   2.652  12.078 -0.7741  0.2522 -0.3626
14273TIP3    H264311   3.266   2.579  11.947 -0.0174 -1.2762  0.6117
14274TIP3   OH264312   3.771   0.211  15.816 -0.0024  0.2015 -0.2349
14274TIP3    H164313   3.710   0.239  15.885 -1.6530 -2.4622 -0.5585
14274TIP3    H264314   3.714   0.176  15.747  1.8685 -2.3866 -0.5295
14275TIP3   OH264315   3.335   4.279   4.813  0.4932  0.4110  0.3923
14275TIP3    H164316   3.302   4.206   4.760 -0.0677  0.6493  0.4167
14275TIP3    H264317   3.270   4.291   4.882  0.7399  0.7357  0.5707
14276TIP3   OH264318   3.709   2.512   4.966 -0.5703 -0.0672 -1.4520
14276TIP3    H164319   3.620   2.543   4.949 -0.7039 -0.8636 -2.2607
14276TIP3    H264320   3.725   2.533   5.058 -1.2791  0.8419 -1.5330
14277TIP3   OH264321   0.739   1.437  13.962  0.3703  0.0276 -0.0441
14277TIP3    H164322   0.788   1.374  14.014  2.0621  0.4485 -1.0975
14277TIP3    H264323   0.799   1.510  13.948 -0.6557  0.7023 -1.0926
14278TIP3   OH264324   5.892   0.397   2.281  0.5886 -0.2234  0.7761
14278TIP3    H164325   5.883   0.309   2.244  1.0012  0.0229  0.0568
14278TIP3    H264326   5.987   0.410   2.287  0.5258  0.0573  1.1573
14279TIP3   OH264327   5.445   1.821  15.954 -0.0270  0.1236 -0.2617
14279TIP3    H164328   5.508   1.884  15.918 -0.0446 -0.3104 -1.0573
14279TIP3    H264329   5.497   1.769  16.015  0.3149 -0.0142 -0.6638
14280TIP3   OH264330   0.438   4.565  15.764 -0.5567 -0.3982  0.1492
14280TIP3    H164331   0.404   4.626  15.830  1.2318 -1.8454  2.5005
14280TIP3    H264332   0.441   4.616  15.684 -2.0446  1.6756  1.3577
14281TIP3   OH264333   4.727   0.764   4.818 -0.4259 -0.4530  0.3656
14281TIP3    H164334   4.786   0.826   4.775 -1.2300 -0.7989 -1.2899
14281TIP3    H264335   4.779   0.726   4.889  0.5097  1.0953  0.5253
14282TIP3   OH264336   2.860   0.844   6.618 -0.0884 -0.2303  0.3780
14282TIP3    H164337   2.804   0.920   6.632 -1.0257 -0.1205 -3.2997
14282TIP3    H264338   2.945   0.880   6.596 -0.4844 -0.1998 -1.1779
14283TIP3   OH264339   5.982   3.625   2.687  0.4560 -0.2466  0.0303
14283TIP3    H164340   5.988   3.649   2.595 -1.8792 -1.6753 -0.5317
14283TIP3    H264341   6.067   3.585   2.707  1.1803  0.5656 -1.3252
14284TIP3   OH264342   2.326   3.741   3.859  0.4403  0.4681  0.6044
14284TIP3    H164343   2.366   3.796   3.927 -0.2105  0.0476  1.3439
14284TIP3    H264344   2.242   3.783   3.841  0.4733  0.3982  0.2968
14285TIP3   OH264345   6.408   2.475   0.555  0.1008 -0.2246  0.2306
14285TIP3    H164346   6.410   2.532   0.632 -1.4895 -0.0373  0.1465
14285TIP3    H264347   6.377   2.531   0.484  0.8031 -0.6016 -0.3828
14286TIP3   OH264348   1.692   5.776  11.532 -0.1711  0.3123  0.0348
14286TIP3    H164349   1.600   5.800  11.520 -1.3443 -2.6175  2.6506
14286TIP3    H264350   1.709   5.712  11.463  0.9036  3.0829 -2.4078
14287TIP3   OH264351   4.789   1.016  15.391 -0.1402 -0.2674  0.4435
14287TIP3    H164352   4.769   1.053  15.477 -2.2838  1.8732 -0.9001
14287TIP3    H264353   4.875   1.052  15.369  0.3816 -0.7502  1.6327
14288TIP3   OH264354   3.261   0.222  13.139  0.1388  0.4132 -0.1157
14288TIP3    H164355   3.308   0.305  13.127  0.2570  0.3898  0.2014
14288TIP3    H264356   3.226   0.203  13.052 -1.2200  1.5979  0.1385
14289TIP3   OH264357   0.601   5.035   6.420 -0.1096 -0.2068 -0.2474
14289TIP3    H164358   0.643   4.974   6.359 -0.4017  0.6861 -1.3457
14289TIP3    H264359   0.657   5.033   6.498 -0.3229 -2.1589 -0.1227
14290TIP3   OH264360   6.225   3.557   1.253  0.4365  1.0477  0.2023
14290TIP3    H164361   6.165   3.614   1.205  0.3070 -0.8684 -1.9964
14290TIP3    H264362   6.307   3.560   1.204  0.6487 -0.0726  0.4654
14291TIP3   OH264363   3.502   3.231  10.248 -0.1165  0.6322  0.6176
14291TIP3    H164364   3.586   3.275  10.238  0.9498 -0.9456  2.3128
14291TIP3    H264365   3.443   3.299  10.282  0.8080  1.4268  0.6677
14292TIP3   OH264366   4.570   2.856   4.947 -0.3393 -0.8465  0.5799
14292TIP3    H164367   4.594   2.934   4.896 -1.8538 -1.5233 -1.2120
14292TIP3    H264368   4.649   2.835   4.996  0.4523  1.1527  0.2172
14293TIP3   OH264369   1.267   0.629   4.529 -0.2422 -0.0266 -0.1395
14293TIP3    H164370   1.328   0.555   4.530  0.4007  0.5049  0.6691
14293TIP3    H264371   1.243   0.639   4.436  0.5543 -0.5172 -0.4057
14294TIP3   OH264372   1.761   3.544  17.127  0.0653 -0.4911 -0.4848
14294TIP3    H164373   1.691   3.571  17.187  0.6423  1.2272 -0.5482
14294TIP3    H264374   1.821   3.494  17.182  0.5153  0.9459  0.3618
14295TIP3   OH264375   3.200   5.329   1.031 -0.0873 -0.2816  0.2761
14295TIP3    H164376   3.204   5.423   1.050  1.2749 -0.5513  1.4346
14295TIP3    H264377   3.239   5.288   1.108  1.8789 -1.6503 -1.4104
14296TIP3   OH264378   3.967   2.546   3.535 -0.2921  0.2867  0.2365
14296TIP3    H164379   4.002   2.462   3.506  0.9570  0.2294  1.8530
14296TIP3    H264380   4.037   2.609   3.519 -0.9527  0.9043 -0.2842
14297TIP3   OH264381   4.328   4.062  11.191 -0.7000  0.0126 -0.2572
14297TIP3    H164382   4.332   3.975  11.150  0.0900  0.2618 -0.7087
14297TIP3    H264383   4.393   4.114  11.144  1.0927 -0.0222  2.1043
14298TIP3   OH264384   1.951   5.721   1.172 -0.3903  0.1685 -0.4383
14298TIP3    H164385   1.980   5.631   1.156  1.7183  0.5332  1.0718
14298TIP3    H264386   1.977   5.739   1.263  0.2639  2.6761 -1.0795
14299TIP3   OH264387   2.232   3.487  14.960  0.2789 -0.0436  0.0074
14299TIP3    H164388   2.270   3.442  14.885 -0.3439 -1.9348  0.7823
14299TIP3    H264389   2.191   3.565  14.924  2.0317  0.3091 -1.2772
14300TIP3   OH264390   1.403   6.096  16.393  0.4813 -0.0933 -0.3520
14300TIP3    H164391   1.475   6.035  16.375  0.5288 -0.2469  0.3353
14300TIP3    H264392   1.355   6.101  16.311  0.6886 -0.7817 -0.5211
14301TIP3   OH264393   4.401   3.182  16.135  0.0000 -0.2157  0.0530
14301TIP3    H164394   4.362   3.215  16.216 -0.0541  0.8359 -0.3799
14301TIP3    H264395   4.333   3.196  16.068  1.4719  2.7002 -0.9267
14302TIP3   OH264396   1.877   1.016  12.843  0.0769 -0.2256  0.7102
14302TIP3    H164397   1.847   0.940  12.793 -0.6262 -2.4410  4.2999
14302TIP3    H264398   1.972   1.001  12.854 -0.0237 -0.5184  1.2291
14303TIP3   OH264399   2.723   3.733  13.848  0.6965  0.4409  0.1938
14303TIP3    H164400   2.762   3.759  13.932  3.2784 -0.7173 -0.6194
14303TIP3    H264401   2.747   3.804  13.788 -0.1903  0.7108  0.1473
14304TIP3   OH264402   2.801   2.774  16.255 -1.0591  0.0597  0.6309
14304TIP3    H164403   2.800   2.751  16.347 -0.2351 -1.4500  0.2850
14304TIP3    H264404   2.891   2.802  16.238 -1.0681 -0.1957  0.1579
14305TIP3   OH264405   4.995   0.340   0.017 -0.1158 -0.1741 -0.4004
14305TIP3    H164406   5.017   0.366   0.107  0.0538 -0.5153 -0.3452
14305TIP3    H264407   5.077   0.347  -0.031  0.5145 -2.9837  0.1552
14306TIP3   OH264408   5.718   2.813   0.938 -0.2005 -0.8483  0.0194
14306TIP3    H164409   5.698   2.769   0.855  0.4429  2.5997 -2.0511
14306TIP3    H264410   5.633   2.843   0.970 -0.1945 -0.0480 -0.6822
14307TIP3   OH264411   6.024   4.553   2.110  0.1466 -0.1845  0.2783
14307TIP3    H164412   6.101   4.603   2.139 -0.4670  1.0351 -0.1787
14307TIP3    H264413   5.989   4.604   2.037 -0.5096 -1.2783 -0.1671
14308TIP3   OH264414   4.254   6.740  12.062  0.5750  0.1570 -0.1341
14308TIP3    H164415   4.249   6.651  12.027  0.4475 -0.0856  0.4920
14308TIP3    H264416   4.166   6.758  12.094  0.4101  0.7949 -0.9514
14309TIP3   OH264417   2.683   5.082   4.344 -0.5354 -0.2387  0.0386
14309TIP3    H164418   2.633   5.023   4.286 -2.2014 -0.8688  2.0515
14309TIP3    H264419   2.656   5.170   4.318  1.5676 -0.3037 -2.6319
14310TIP3   OH264420   4.649   2.008  10.845  0.3351 -0.1896 -0.4767
14310TIP3    H164421   4.579   1.954  10.809  1.0916 -2.6796  1.6590
14310TIP3    H264422   4.614   2.097  10.843 -1.6366 -0.9678 -2.3814
14311TIP3   OH264423   6.135   3.920   0.510  0.6695  0.0771 -0.0710
14311TIP3    H164424   6.213   3.910   0.565  0.9436 -0.1743 -0.4964
14311TIP3    H264425   6.140   4.010   0.478  1.7482 -0.4767 -1.5223
14312TIP3   OH264426   0.728   4.065  11.740 -0.1968 -0.3868 -0.1103
14312TIP3    H164427   0.746   4.020  11.658 -0.0265  0.1584 -0.3707
14312TIP3    H264428   0.772   4.149  11.732 -0.8552 -0.0077  0.2180
14313TIP3   OH264429   0.679   6.391  15.794 -0.8050  0.7868 -0.8020
14313TIP3    H164430   0.597   6.409  15.748 -1.5676  1.4193  0.7564
14313TIP3    H264431   0.652   6.367  15.883  0.7033  1.2424 -0.1960
14314TIP3   OH264432   4.610   2.338  11.912 -0.6895  0.2726 -0.5559
14314TIP3    H164433   4.563   2.298  11.985 -1.2974  0.7249 -0.6944
14314TIP3    H264434   4.542   2.384  11.862 -0.4305 -0.7923 -1.9161
14315TIP3   OH264435   5.091   4.388  12.721 -0.4280  0.3854 -0.0986
14315TIP3    H164436   5.094   4.475  12.681 -0.0702 -0.1830 -1.3382
14315TIP3    H264437   5.013   4.347  12.683 -0.7528  0.2723  0.6960
14316TIP3   OH264438   5.474   1.111  14.131 -0.4541 -0.7649 -0.4055
14316TIP3    H164439   5.404   1.054  14.100 -0.2264 -1.2941  0.0462
14316TIP3    H264440   5.541   1.106  14.062 -0.5559 -0.8245 -0.5003
14317TIP3   OH264441   4.704   4.125  12.405  0.2268 -0.4067  0.5852
14317TIP3    H164442   4.677   4.073  12.329  0.5066 -0.6286  0.6345
14317TIP3    H264443   4.699   4.064  12.478  0.6167 -0.3803  0.6351
14318TIP3   OH264444   6.435   3.191   4.786 -0.3570 -0.3273 -0.1122
14318TIP3    H164445   6.502   3.123   4.786 -0.2472 -0.2274  0.5509
14318TIP3    H264446   6.354   3.145   4.761 -0.0257 -0.4236 -1.0073
14319TIP3   OH264447   2.449   1.793  14.675  0.3654 -0.8477 -0.2274
14319TIP3    H164448   2.395   1.786  14.754 -0.4186 -0.3482 -0.7083
14319TIP3    H264449   2.484   1.705  14.662  0.3245 -0.9837  0.5577
14320TIP3   OH264450   1.757   2.069  11.333  0.3314 -0.1273 -0.6734
14320TIP3    H164451   1.806   1.987  11.342  0.8057 -0.0222 -2.1233
14320TIP3    H264452   1.772   2.096  11.242 -2.5831 -0.1802 -1.2253
14321TIP3   OH264453   6.601   0.879   2.305  0.1528 -0.0579  0.9996
14321TIP3    H164454   6.614   0.943   2.375  1.1462  0.2850  0.5142
14321TIP3    H264455   6.511   0.892   2.276  0.6277  1.7478  0.2855
14322TIP3   OH264456   4.346   5.372   5.991 -0.7119 -0.0188  0.3608
14322TIP3    H164457   4.413   5.412   6.046 -0.9538  0.6027  0.2143
14322TIP3    H264458   4.368   5.279   5.989 -0.3297  0.0569  0.9778
14323TIP3   OH264459   4.282   5.538  12.998 -0.3358  0.1142 -0.1016
14323TIP3    H164460   4.311   5.446  13.000 -1.0307 -0.0853  1.6138
14323TIP3    H264461   4.363   5.588  12.997  0.0551 -0.5202 -1.5578
14324TIP3   OH264462   1.401   1.085   3.516 -0.1421  0.7118 -0.1287
14324TIP3    H164463   1.381   1.100   3.424 -1.1639 -0.0772 -0.0486
14324TIP3    H264464   1.364   0.998   3.535 -1.0080  1.3757  1.3120
14325TIP3   OH264465   3.901   3.127  11.342  0.2838  0.4077  0.0121
14325TIP3    H164466   3.816   3.089  11.318  1.1260 -2.0834  0.8252
14325TIP3    H264467   3.881   3.219  11.361 -1.8113  0.4560 -2.0636
14326TIP3   OH264468   6.525   3.599   5.470  0.5452 -0.4655  0.8000
14326TIP3    H164469   6.595   3.659   5.496 -1.3845  1.6245  1.4119
14326TIP3    H264470   6.512   3.617   5.377  0.1327 -0.1012  0.9262
14327TIP3   OH264471   1.979   3.822  16.226  0.0059  0.3582  0.2729
14327TIP3    H164472   2.074   3.825  16.230 -0.0245 -0.7582  3.0043
14327TIP3    H264473   1.957   3.729  16.225 -1.0646  0.5854  0.9229
14328TIP3   OH264474   5.671   0.085   0.915  0.7933  0.6308 -0.4751
14328TIP3    H164475   5.756   0.061   0.879  0.7115  0.3241 -0.4586
14328TIP3    H264476   5.692   0.148   0.985  1.1071 -0.5228  0.4823
14329TIP3   OH264477   6.679   0.319  16.367  0.2466  0.2163  0.0638
14329TIP3    H164478   6.681   0.238  16.316  2.6178  0.5074 -0.3659
14329TIP3    H264479   6.690   0.289  16.458  2.4562  0.1147 -0.2119
14330TIP3   OH264480   0.158   0.583   0.663 -0.3750 -0.0436  0.0196
14330TIP3    H164481   0.156   0.546   0.575 -2.4704  3.3797 -1.4738
14330TIP3    H264482   0.245   0.621   0.671  0.2557 -1.4259 -0.0560
14331TIP3   OH264483   4.805   1.162   2.103  0.8070 -0.0500  0.0197
14331TIP3    H164484   4.810   1.256   2.084  0.3850  0.2005  1.0563
14331TIP3    H264485   4.855   1.151   2.184  0.0486 -0.5482  0.4350
14332TIP3   OH264486   6.312   0.700   3.293  0.2138  0.9249 -0.2709
14332TIP3    H164487   6.299   0.779   3.344 -0.8774 -0.0813  1.0622
14332TIP3    H264488   6.396   0.712   3.249 -0.0311  2.8784 -0.2072
14333TIP3   OH264489   3.000   2.830  14.486  0.0915  0.1784  0.2218
14333TIP3    H164490   3.050   2.758  14.525  0.8248  0.3462 -0.3853
14333TIP3    H264491   2.912   2.822  14.523  0.0097 -1.3771 -0.2942
14334TIP3   OH264492   3.269   2.279   4.726  0.2920  0.1579  0.2596
14334TIP3    H164493   3.182   2.270   4.688  0.1219 -1.2348  0.9232
14334TIP3    H264494   3.310   2.193   4.712  2.5976  1.6513 -2.5703
14335TIP3   OH264495   3.882   1.224   1.144  0.4852  0.2008  0.0563
14335TIP3    H164496   3.852   1.241   1.054  0.7901  1.1136  0.1287
14335TIP3    H264497   3.823   1.156   1.176  0.0080  0.2833 -0.6410
14336TIP3   OH264498   3.984   1.854  11.964  0.3675 -0.0424  0.2327
14336TIP3    H164499   3.960   1.765  11.938  1.1380 -0.1480 -0.1398
14336TIP3    H264500   4.024   1.844  12.051  0.4919 -0.0644  0.1730
14337TIP3   OH264501   2.926   6.417   0.025 -0.2581  0.1428  0.4889
14337TIP3    H164502   3.010   6.436  -0.017  0.0029 -0.7358  0.5923
14337TIP3    H264503   2.949   6.373   0.106 -0.8336 -1.5478 -0.2327
14338TIP3   OH264504   3.728   4.036   1.052 -0.2155  0.3767  0.0176
14338TIP3    H164505   3.766   3.948   1.060 -1.2885 -0.0597  0.3121
14338TIP3    H264506   3.795   4.094   1.088 -0.5022 -0.5441  2.1063
14339TIP3   OH264507   5.020   2.921  15.063 -0.1270  0.4229 -0.3222
14339TIP3    H164508   5.074   2.998  15.084 -0.9607  0.3681  2.1607
14339TIP3    H264509   5.014   2.873  15.145 -0.8369 -1.5573 -1.5107
14340TIP3   OH264510   5.227   5.387   1.053  0.6557  0.3688  0.3051
14340TIP3    H164511   5.248   5.478   1.035 -0.1844  0.6546  0.7401
14340TIP3    H264512   5.175   5.390   1.134  2.5268 -0.6886  1.5927
14341TIP3   OH264513   0.110   3.359  12.283 -0.1593 -0.0156  0.4404
14341TIP3    H164514   0.185   3.349  12.342 -0.9752 -2.0400  1.1915
14341TIP3    H264515   0.148   3.374  12.197  1.0597  1.8069  1.2568
14342TIP3   OH264516   3.642   2.037   0.083  0.2571 -0.2231 -0.2305
14342TIP3    H164517   3.725   1.994   0.066  0.4885  0.1617 -0.0576
14342TIP3    H264518   3.637   2.107   0.017  0.6873  0.6207  0.6244
14343TIP3   OH264519   0.032   2.925   1.776 -0.1110  0.2516 -0.4573
14343TIP3    H164520  -0.048   2.976   1.784  0.6255  1.2942  0.4248
14343TIP3    H264521   0.014   2.845   1.825  0.3200  1.6582  2.0993
14344TIP3   OH264522   4.597   6.004  10.615 -0.0288 -0.6231  0.7838
14344TIP3    H164523   4.595   6.099  10.626  3.0173 -0.7706  3.1472
14344TIP3    H264524   4.659   5.989  10.544 -0.3576 -0.8561  0.5457
14345TIP3   OH264525   3.557   2.553  13.113 -1.0808  0.2321  0.4132
14345TIP3    H164526   3.595   2.571  13.028  0.8138  0.2951  1.2415
14345TIP3    H264527   3.579   2.630  13.166 -1.0054 -0.4068  1.3322
14346TIP3   OH264528   2.540   5.626  14.449  0.4754 -0.0520  0.4810
14346TIP3    H164529   2.520   5.614  14.356  0.4254 -0.0836  0.4955
14346TIP3    H264530   2.470   5.685  14.480  0.9490  0.6019  0.3169
14347TIP3   OH264531   0.812   1.396   4.374  0.1233  0.1171  0.1634
14347TIP3    H164532   0.772   1.311   4.392 -0.4936  0.5261  0.7556
14347TIP3    H264533   0.739   1.458   4.375  0.5765  0.6615 -0.2040
14348TIP3   OH264534   3.900   3.652  11.222  0.1757  0.1430  0.4793
14348TIP3    H164535   3.990   3.659  11.191  0.3229 -0.1428  0.8336
14348TIP3    H264536   3.885   3.734  11.269 -0.4898  1.1617 -1.4432
14349TIP3   OH264537   1.243   3.120  12.106  0.8394 -0.2206  0.6035
14349TIP3    H164538   1.231   3.122  12.011  2.3624 -0.8853  0.3949
14349TIP3    H264539   1.213   3.206  12.136 -1.2372 -0.5968 -0.2701
14350TIP3   OH264540   4.154   5.843   4.948 -0.4396  0.3194  0.0005
14350TIP3    H164541   4.165   5.938   4.953  0.2585  0.2291  0.2013
14350TIP3    H264542   4.234   5.811   4.908 -0.6657 -0.1925 -0.0551
14351TIP3   OH264543   3.890   4.087   1.491  0.5030 -0.3610  0.1493
14351TIP3    H164544   3.948   4.042   1.430 -1.4375 -0.9430 -1.3385
14351TIP3    H264545   3.881   4.175   1.454  0.0057 -0.4474  0.0606
14352TIP3   OH264546   0.620   3.973   1.062  0.0411  0.8123 -0.0612
14352TIP3    H164547   0.538   3.964   1.014  0.2830  3.4127 -1.0385
14352TIP3    H264548   0.658   4.055   1.029  1.7523  0.9986  2.2698
14353TIP3   OH264549   2.760   4.479  14.085  0.0558  0.3284  0.2859
14353TIP3    H164550   2.774   4.417  14.013 -1.7118  0.2876 -0.0503
14353TIP3    H264551   2.840   4.531  14.088  2.0895 -2.6678  1.2934
14354TIP3   OH264552   5.461   4.210  17.206  0.5454 -0.4130  0.0267
14354TIP3    H164553   5.375   4.170  17.215 -0.5923  1.8895 -0.2004
14354TIP3    H264554   5.478   4.209  17.111 -0.7889  2.1940 -0.2816
14355TIP3   OH264555   0.189   5.423   5.153  0.6628 -0.6137  0.3899
14355TIP3    H164556   0.108   5.473   5.156  1.0105  0.0509 -0.7621
14355TIP3    H264557   0.204   5.407   5.060  1.2306 -1.7647  0.6604
14356TIP3   OH264558   4.531   6.571  14.054 -0.3294 -0.0794 -0.5004
14356TIP3    H164559   4.557   6.489  14.096  2.5250 -0.0611 -2.1116
14356TIP3    H264560   4.584   6.638  14.097 -1.5913  0.7362 -0.1897
14357TIP3   OH264561   4.189   3.715   3.369  0.3542  0.5327  0.2299
14357TIP3    H164562   4.215   3.678   3.284  0.5192  0.7793  0.1714
14357TIP3    H264563   4.138   3.792   3.347  2.0092  1.6988  0.3524
14358TIP3   OH264564   6.375   0.325  14.592 -0.6989 -0.0029  0.0662
14358TIP3    H164565   6.290   0.298  14.557 -0.9616  1.4876 -0.5312
14358TIP3    H264566   6.429   0.339  14.514  0.3039 -1.5971  0.4738
14359TIP3   OH264567   3.407   1.763  13.912  0.1298 -0.0260  0.2061
14359TIP3    H164568   3.318   1.784  13.938  0.2389  1.0520 -0.2611
14359TIP3    H264569   3.416   1.669  13.927 -0.6026  0.1345  1.6989
14360TIP3   OH264570   3.084   1.156   4.592  0.1323  0.1182  0.0150
14360TIP3    H164571   3.161   1.204   4.620  0.5543 -0.4479 -0.1583
14360TIP3    H264572   3.035   1.139   4.672 -1.1066  2.6702 -0.1690
14361TIP3   OH264573   4.430   2.010   4.732  0.0053 -0.0880  0.3944
14361TIP3    H164574   4.454   2.068   4.805  1.5853 -0.6230  0.3103
14361TIP3    H264575   4.494   1.939   4.736 -0.1916 -0.3682 -1.2315
14362TIP3   OH264576   6.347   0.253  16.404 -0.3880  0.5319 -0.1524
14362TIP3    H164577   6.431   0.242  16.449 -0.1945 -3.0847 -1.2217
14362TIP3    H264578   6.281   0.235  16.471 -0.2608  1.1055  0.1297
14363TIP3   OH264579   3.553   1.459  16.210 -0.0085 -0.1689  0.0489
14363TIP3    H164580   3.623   1.522  16.194  0.3822 -1.0483 -1.8932
14363TIP3    H264581   3.573   1.421  16.295  0.9156  0.8194  0.2795
14364TIP3   OH264582   5.484   5.633   3.573 -0.1989  0.1594  0.3452
14364TIP3    H164583   5.468   5.723   3.599 -0.9466  0.4566 -1.1005
14364TIP3    H264584   5.557   5.638   3.511 -0.3905 -0.1886  0.0848
14365TIP3   OH264585   5.405   6.077  14.134  0.2302 -0.1266  0.1158
14365TIP3    H164586   5.362   6.027  14.065 -0.9812  0.4966  0.3966
14365TIP3    H264587   5.498   6.060  14.122  0.0950  0.5077 -2.1037
14366TIP3   OH264588   2.060   1.565  11.222  0.2921  0.4081 -0.2042
14366TIP3    H164589   2.030   1.517  11.299  1.1414 -0.6577 -0.5327
14366TIP3    H264590   1.979   1.597  11.181 -0.1906  0.4945  0.8030
14367TIP3   OH264591   5.231   3.978  16.917  0.2799  0.2718  0.0224
14367TIP3    H164592   5.223   4.023  17.001  0.7347  1.2655 -0.4609
14367TIP3    H264593   5.290   4.033  16.865 -1.9530  1.0062 -1.8470
14368TIP3   OH264594   4.367   1.358   5.226 -0.1016 -0.3374 -0.0859
14368TIP3    H164595   4.437   1.422   5.216 -1.6198  1.1735 -1.2546
14368TIP3    H264596   4.386   1.315   5.309  1.2286  1.2604  0.4680
14369TIP3   OH264597   3.940   4.212  11.618  0.2620 -0.5525 -0.2134
14369TIP3    H164598   4.005   4.185  11.553 -1.3369 -1.1430 -1.6234
14369TIP3    H264599   3.930   4.306  11.605  0.7681 -0.4785 -0.0575
14370TIP3   OH264600   4.102   4.017  16.002  0.2880 -0.1893  0.1652
14370TIP3    H164601   4.027   3.971  16.037  1.0808 -0.4471  1.5703
14370TIP3    H264602   4.176   3.957  16.016  0.7754  0.1003 -1.0868
14371TIP3   OH264603   1.704   1.234  16.888 -0.2192 -0.7399  0.3158
14371TIP3    H164604   1.740   1.241  16.800 -0.3109 -0.2494  0.3170
14371TIP3    H264605   1.780   1.233  16.945 -0.2142  2.8497  0.5064
14372TIP3   OH264606   4.807   2.916   3.933 -0.1299 -0.5577 -0.1822
14372TIP3    H164607   4.750   2.951   4.001  2.5995 -0.5159  2.1343
14372TIP3    H264608   4.822   2.990   3.874  1.2792  0.7634  1.7742
14373TIP3   OH264609   2.456   0.997   3.342 -0.3244 -0.3663 -0.2037
14373TIP3    H164610   2.406   1.072   3.375  1.5528  0.2832  1.2171
14373TIP3    H264611   2.402   0.962   3.271 -1.3214  2.2370 -0.7857
14374TIP3   OH264612   1.188   5.278   4.847  0.0147 -0.3720 -0.5439
14374TIP3    H164613   1.261   5.291   4.908 -0.2250 -0.8112 -0.1571
14374TIP3    H264614   1.117   5.329   4.884  0.1130  0.0211 -0.8986
14375TIP3   OH264615   1.280   2.912   4.035 -0.0018 -0.2825  0.2902
14375TIP3    H164616   1.203   2.856   4.024 -0.4458  0.6299 -1.3710
14375TIP3    H264617   1.244   2.996   4.064  0.4143 -0.0538  0.1461
14376TIP3   OH264618   0.803   1.191  16.902  0.5400  0.1055  0.2113
14376TIP3    H164619   0.819   1.285  16.908 -0.3231  0.3145 -0.7482
14376TIP3    H264620   0.734   1.182  16.836  2.6049 -1.4040 -1.8152
14377TIP3   OH264621   4.181   5.000   0.664  0.2688  0.3429  0.7255
14377TIP3    H164622   4.179   4.934   0.733 -2.9846  0.2632  0.6002
14377TIP3    H264623   4.162   4.951   0.584 -0.8788  1.2214  0.4569
14378TIP3   OH264624   6.387   3.795   1.711  0.3305  0.5135 -0.5029
14378TIP3    H164625   6.438   3.738   1.769  1.3145 -0.2521 -2.0787
14378TIP3    H264626   6.350   3.861   1.769 -1.0738 -1.8674  1.4518
14379TIP3   OH264627   5.287   0.137   6.222  0.0416 -0.4368 -0.0950
14379TIP3    H164628   5.321   0.064   6.274 -1.6763 -0.4526  1.0484
14379TIP3    H264629   5.271   0.206   6.286 -2.6053 -0.6395 -0.4525
14380TIP3   OH264630   2.660   1.882  10.640  0.4817 -0.0150 -0.2421
14380TIP3    H164631   2.587   1.848  10.691 -0.8511  2.7082 -0.2470
14380TIP3    H264632   2.674   1.816  10.572 -0.6578 -1.5233  0.9531
14381TIP3   OH264633   2.822   1.093  11.956 -0.3508 -0.0285  0.0146
14381TIP3    H164634   2.844   1.092  11.863  1.2847  1.5378  0.3661
14381TIP3    H264635   2.889   1.038  11.996 -0.9936 -0.6145  0.2914
14382TIP3   OH264636   5.829   4.572  12.431  0.2445 -0.0369  0.0201
14382TIP3    H164637   5.744   4.599  12.396  0.6716 -0.3684 -1.3116
14382TIP3    H264638   5.852   4.640  12.494 -1.7679 -0.7931  1.6344
14383TIP3   OH264639   2.032   0.585  12.338  0.1142  0.4506 -0.0591
14383TIP3    H164640   2.049   0.558  12.247 -2.0658 -0.1347 -0.3214
14383TIP3    H264641   1.989   0.509  12.377 -1.8730  1.8466  0.5364
14384TIP3   OH264642   5.674   5.493   4.157 -0.0535 -0.4454  0.5482
14384TIP3    H164643   5.648   5.578   4.122 -1.4243 -0.6623  1.0272
14384TIP3    H264644   5.768   5.489   4.141 -0.0389  0.9963  0.1630
14385TIP3   OH264645   5.195   6.455   3.093  0.4788 -0.4717 -0.6463
14385TIP3    H164646   5.197   6.363   3.065  0.0047 -1.6453  2.8985
14385TIP3    H264647   5.286   6.483   3.093  0.5612 -0.6573 -2.4802
14386TIP3   OH264648   5.141   4.763  16.114 -0.2551  0.3819  0.2667
14386TIP3    H164649   5.214   4.825  16.109  2.7710 -2.8801  1.0605
14386TIP3    H264650   5.134   4.728  16.025  1.0428 -1.2803  0.7940
14387TIP3   OH264651   5.860   0.687   4.025  0.1882  0.2972 -0.4104
14387TIP3    H164652   5.888   0.757   3.966 -0.3381 -0.1846 -1.2416
14387TIP3    H264653   5.941   0.648   4.056  0.4743 -0.6911 -2.3276
14388TIP3   OH264654   5.697   1.337  15.373 -0.1634 -0.2443 -0.0381
14388TIP3    H164655   5.749   1.377  15.442 -1.3189  0.3578  0.4812
14388TIP3    H264656   5.688   1.245  15.400  0.1337 -0.2154  0.1602
14389TIP3   OH264657   5.695   3.978  12.337 -0.2647  0.0696  0.3512
14389TIP3    H164658   5.620   4.037  12.330 -0.2171  0.2600  1.3005
14389TIP3    H264659   5.703   3.938  12.250 -0.7266  0.9396 -0.0969
14390TIP3   OH264660   4.805   0.597   5.253  0.2213  0.0384 -0.1385
14390TIP3    H164661   4.850   0.575   5.335 -1.4011 -1.5080  0.3966
14390TIP3    H264662   4.781   0.689   5.263  1.7686  0.4139  0.2652
14391TIP3   OH264663   1.668   1.438   2.773 -0.1436 -0.9303 -0.1705
14391TIP3    H164664   1.589   1.426   2.827  0.2831 -1.1063  0.4238
14391TIP3    H264665   1.645   1.398   2.689 -1.1741  0.2386 -0.4654
14392TIP3   OH264666   4.436   5.252   1.285  0.2250  0.4872 -0.2539
14392TIP3    H164667   4.437   5.290   1.198  1.8967  1.4750  0.1838
14392TIP3    H264668   4.493   5.175   1.278 -0.9485 -0.3706 -0.4412
14393TIP3   OH264669   2.122   0.552  10.661 -0.2829 -0.2369 -0.2977
14393TIP3    H164670   2.158   0.465  10.640  0.1748 -0.4152  1.1496
14393TIP3    H264671   2.029   0.535  10.679  0.2961 -0.8646  2.3788
14394TIP3   OH264672   5.589   1.148   3.251  0.0952  0.0118  0.2729
14394TIP3    H164673   5.526   1.220   3.247 -0.3806 -0.3718  0.8357
14394TIP3    H264674   5.609   1.138   3.344 -1.0873 -1.6447  0.3850
14395TIP3   OH264675   3.326   5.898   1.904 -0.0795 -0.0980 -0.0039
14395TIP3    H164676   3.248   5.868   1.951 -0.5234 -0.0222 -0.6826
14395TIP3    H264677   3.374   5.950   1.968 -0.7700  0.1572  0.3116
14396TIP3   OH264678   1.892   5.800  11.715 -0.8163 -0.0545  0.5019
14396TIP3    H164679   1.823   5.801  11.648 -0.1419 -1.8577 -0.2623
14396TIP3    H264680   1.949   5.873  11.692 -0.7153 -0.5252 -0.7662
14397TIP3   OH264681   1.106   0.345  12.388 -0.1252 -0.4296  0.0966
14397TIP3    H164682   1.013   0.322  12.392  0.1421 -1.3858  1.0124
14397TIP3    H264683   1.110   0.431  12.430 -0.6612 -0.1840 -0.3456
14398TIP3   OH264684   0.833   5.063  12.424 -0.2454  0.3424  0.7072
14398TIP3    H164685   0.784   5.129  12.373  2.0515  1.5464  0.0008
14398TIP3    H264686   0.786   5.058  12.507 -2.3341  0.5022 -0.4235
14399TIP3   OH264687   0.234   3.682  11.551  0.3532  0.3030  0.6445
14399TIP3    H164688   0.240   3.777  11.554 -0.2866  0.3329  1.2135
14399TIP3    H264689   0.153   3.661  11.599  0.1822 -0.4890  0.0250
14400TIP3   OH264690   5.474   1.006  15.179  0.8890  0.4272 -0.6432
14400TIP3    H164691   5.470   1.018  15.084  0.5996 -0.7866 -0.7934
14400TIP3    H264692   5.523   0.924  15.190  0.1258  0.0816  0.2149
14401TIP3   OH264693   2.642   2.697   3.689  0.4503  0.0691  0.0646
14401TIP3    H164694   2.702   2.625   3.708  0.0878 -0.4059 -0.5532
14401TIP3    H264695   2.607   2.676   3.602 -0.3791  0.4911  0.2914
14402TIP3   OH264696   3.084   4.905  12.501 -0.2217  0.2199 -0.4744
14402TIP3    H164697   3.003   4.905  12.450 -0.0222 -0.1464 -0.7919
14402TIP3    H264698   3.067   4.842  12.572 -0.2020  0.1179 -0.5605
14403TIP3   OH264699   3.656   0.554   3.993 -0.2227  0.1635 -0.0885
14403TIP3    H164700   3.719   0.612   3.951  0.1512  1.1374  1.7509
14403TIP3    H264701   3.707   0.476   4.016  0.0751  0.5128  0.4507
14404TIP3   OH264702   5.221   0.065   3.921 -0.5488 -0.6013 -0.7028
14404TIP3    H164703   5.307   0.056   3.880 -1.2006 -0.7383 -2.0528
14404TIP3    H264704   5.223   0.004   3.995  0.7861 -0.0377 -0.2713
14405TIP3   OH264705   4.811   0.103   1.119  0.3243 -0.1434 -0.4276
14405TIP3    H164706   4.825   0.047   1.195  1.7563  0.3758 -0.2949
14405TIP3    H264707   4.831   0.048   1.044  0.8241 -0.0861 -0.3377
14406TIP3   OH264708   4.282   1.891   2.322 -0.2398  0.2418  0.4546
14406TIP3    H164709   4.355   1.934   2.367  0.5971  3.7439 -3.9769
14406TIP3    H264710   4.207   1.947   2.340 -0.6002 -0.1448  0.1580
14407TIP3   OH264711   0.267   0.701  13.850  0.1621  0.0905  0.4453
14407TIP3    H164712   0.209   0.632  13.818  2.0636 -1.3105 -0.0749
14407TIP3    H264713   0.315   0.660  13.922  1.7984  0.6478 -0.3041
14408TIP3   OH264714   0.561   6.191   3.394 -0.7355 -0.2588  0.2364
14408TIP3    H164715   0.559   6.231   3.481  2.8565  2.2000 -0.7024
14408TIP3    H264716   0.481   6.221   3.352 -1.8462 -0.3871  2.2019
14409TIP3   OH264717   0.445   4.995  15.744 -0.0012  0.3578  0.1395
14409TIP3    H164718   0.536   4.966  15.738 -0.0839 -0.1345  1.0898
14409TIP3    H264719   0.393   4.915  15.738 -0.2258  0.2660  2.7575
14410TIP3   OH264720   2.631   0.711   0.419  0.0286 -0.9575 -0.0677
14410TIP3    H164721   2.631   0.795   0.373  1.7310 -1.6129 -1.2653
14410TIP3    H264722   2.584   0.651   0.361 -0.6073 -1.0076  0.4896
14411TIP3   OH264723   6.359   3.101   2.045 -0.0567 -0.3374 -0.1261
14411TIP3    H164724   6.375   3.012   2.075  0.5453  0.0014  0.5869
14411TIP3    H264725   6.379   3.156   2.121 -0.2893  0.4112 -0.5977
14412TIP3   OH264726   4.209   2.656   5.015  0.0903 -0.1091  0.6733
14412TIP3    H164727   4.167   2.570   5.007  2.1554 -1.2017  1.3081
14412TIP3    H264728   4.139   2.718   4.995 -0.8143 -1.9745 -2.3906
14413TIP3   OH264729   2.466   4.701  11.803  0.9254 -0.2166  0.1718
14413TIP3    H164730   2.375   4.679  11.825  0.7214  0.5955  0.1664
14413TIP3    H264731   2.518   4.631  11.841  0.2660 -0.8547 -0.0994
14414TIP3   OH264732   1.055   5.050   0.970 -0.7071  0.1455 -0.0813
14414TIP3    H164733   1.044   5.012   0.883 -2.4653  0.1027  0.1409
14414TIP3    H264734   0.976   5.102   0.984 -1.3029 -1.2957  2.1934
14415TIP3   OH264735   1.518   1.902  12.144 -0.0670  0.1413 -0.2223
14415TIP3    H164736   1.582   1.962  12.105 -1.2384  0.7464 -1.2145
14415TIP3    H264737   1.561   1.816  12.140  0.7192  0.5525 -0.8035
14416TIP3   OH264738   1.966   3.137   1.144  0.1199  0.0790 -0.0978
14416TIP3    H164739   1.877   3.130   1.177  0.3754  0.1505  0.6239
14416TIP3    H264740   1.959   3.122   1.050 -0.7064  0.5109 -0.1023
14417TIP3   OH264741   5.412   4.547  11.163 -0.2585 -0.1060  0.1800
14417TIP3    H164742   5.490   4.507  11.202 -1.3565 -1.6562  0.8159
14417TIP3    H264743   5.402   4.630  11.209  2.3323  1.1971 -1.4847
14418TIP3   OH264744   6.389   5.404   5.111  0.4029  0.1303  0.6606
14418TIP3    H164745   6.406   5.335   5.047 -2.0463  0.1143 -0.0221
14418TIP3    H264746   6.450   5.386   5.183  1.5874 -1.1994 -0.6574
14419TIP3   OH264747   0.802   5.202  14.161  0.4526  0.0992  0.5568
14419TIP3    H164748   0.728   5.226  14.217  0.9177 -1.2337  1.7516
14419TIP3    H264749   0.846   5.285  14.144 -2.1016  1.1506 -1.3415
14420TIP3   OH264750   6.077   2.255  13.568  0.1247 -0.6289  0.1173
14420TIP3    H164751   6.006   2.300  13.614  1.2902  2.7459 -1.1720
14420TIP3    H264752   6.052   2.258  13.476  2.5111  1.9147 -0.5177
14421TIP3   OH264753   5.931   3.830  13.822 -0.2023  0.7732  0.2862
14421TIP3    H164754   5.839   3.840  13.794 -0.6006  0.1383  1.3469
14421TIP3    H264755   5.982   3.863  13.747 -1.2905  1.2674 -0.2588
14422TIP3   OH264756   5.490   6.138  17.120  0.1368 -0.0344  0.5460
14422TIP3    H164757   5.428   6.159  17.050  1.0879 -0.1363 -0.3366
14422TIP3    H264758   5.469   6.199  17.190 -1.1166 -0.2252  0.3504
14423TIP3   OH264759   3.016   2.575   5.116  0.2284 -0.1819 -0.6892
14423TIP3    H164760   3.035   2.554   5.025  0.3535 -2.8103 -0.0845
14423TIP3    H264761   3.033   2.494   5.164 -0.3812  0.9954  1.6065
14424TIP3   OH264762   3.935   0.201  16.871  0.0106 -0.0964 -0.1583
14424TIP3    H164763   3.993   0.126  16.882  1.1991  0.7501 -0.5850
14424TIP3    H264764   3.963   0.263  16.938 -1.4365 -0.3088  0.6669
14425TIP3   OH264765   5.972   6.038   5.190  0.6270 -0.2426  0.1186
14425TIP3    H164766   5.991   5.969   5.254 -1.9553 -0.5258  0.6086
14425TIP3    H264767   5.941   6.112   5.242 -2.6261 -0.8643 -0.8326
14426TIP3   OH264768   5.915   1.936   5.514 -0.2302  0.3860  0.0320
14426TIP3    H164769   5.887   1.970   5.429 -0.6291  1.3268  0.5211
14426TIP3    H264770   5.895   2.008   5.575  2.0268  0.5546  0.5892
14427TIP3   OH264771   2.722   6.626   2.285  0.1066  0.2427 -0.5856
14427TIP3    H164772   2.757   6.699   2.335 -0.4643  0.3362 -0.3183
14427TIP3    H264773   2.642   6.660   2.246 -0.6645 -0.5106  0.3000
14428TIP3   OH264774   6.531   5.671   6.349 -0.3369 -0.3640  0.3757
14428TIP3    H164775   6.455   5.722   6.319 -0.6658 -0.5817  0.8237
14428TIP3    H264776   6.496   5.617   6.420  0.6849  0.9469  1.9006
14429TIP3   OH264777   1.043   0.748  15.844 -0.2159 -0.1801  0.7728
14429TIP3    H164778   1.126   0.703  15.827 -0.5895 -0.0371 -1.4731
14429TIP3    H264779   0.982   0.712  15.779 -1.2201  1.6612  0.6687
14430TIP3   OH264780   6.596   4.306   2.813 -0.1684 -0.7384 -0.4356
14430TIP3    H164781   6.526   4.260   2.767 -0.7965 -0.0728 -0.1580
14430TIP3    H264782   6.551   4.371   2.867  0.5760 -1.4230  1.0196
14431TIP3   OH264783   3.112   6.077  10.633 -0.2052 -0.2446  0.1036
14431TIP3    H164784   3.028   6.123  10.638  0.5533  1.0738  1.0559
14431TIP3    H264785   3.166   6.118  10.701  0.7604 -2.0059  0.4191
14432TIP3   OH264786   1.757   1.302  11.828  0.2736 -0.1171  0.1362
14432TIP3    H164787   1.706   1.342  11.758  0.6080  3.3239  1.7369
14432TIP3    H264788   1.823   1.250  11.783 -1.0016  0.0794 -2.0381
14433TIP3   OH264789   6.290   6.745  11.435 -0.2619  0.1193  0.1013
14433TIP3    H164790   6.288   6.650  11.438  0.6646  0.0973  0.1986
14433TIP3    H264791   6.325   6.771  11.520 -0.4571  0.5414  0.0524
14434TIP3   OH264792   2.735   1.520   1.719  0.2516  0.5508 -0.2127
14434TIP3    H164793   2.656   1.473   1.747 -1.3549  1.5122 -2.9292
14434TIP3    H264794   2.750   1.584   1.788 -0.5426 -0.5411  0.9978
14435TIP3   OH264795   4.831   4.257   3.581  0.1722  0.3700 -0.1989
14435TIP3    H164796   4.743   4.224   3.564 -0.5902  1.7545  0.9308
14435TIP3    H264797   4.819   4.351   3.597  1.8698  0.6054 -0.1780
14436TIP3   OH264798   3.010   1.328   5.487  1.0385 -0.5291 -0.0008
14436TIP3    H164799   2.977   1.386   5.418  0.8117  1.4063  1.6865
14436TIP3    H264800   2.940   1.263   5.499  0.7535 -0.4238 -1.0677
14437TIP3   OH264801   6.596   6.106  13.825  0.2332 -0.4079 -0.3587
14437TIP3    H164802   6.626   6.130  13.737  1.3818 -1.0488 -0.1361
14437TIP3    H264803   6.538   6.031  13.811 -0.1207 -0.0936 -0.6224
14438TIP3   OH264804   0.587   2.029  16.841  0.3035  0.5016 -0.5542
14438TIP3    H164805   0.582   2.044  16.936  0.8138 -1.1546 -0.2462
14438TIP3    H264806   0.514   1.970  16.822 -1.6459  3.2034 -1.7275
14439TIP3   OH264807   3.447   4.669  11.741  0.1694 -0.1508  0.6001
14439TIP3    H164808   3.362   4.663  11.785  0.0504 -0.7090  0.2932
14439TIP3    H264809   3.441   4.609  11.667  1.3767 -1.4102  1.4759
14440TIP3   OH264810   1.797   5.317  16.430  0.2529 -0.0029 -0.2195
14440TIP3    H164811   1.741   5.356  16.497 -0.0612 -0.2359 -0.3385
14440TIP3    H264812   1.886   5.329  16.462  0.1081 -0.0456  0.2020
14441TIP3   OH264813   6.648   5.597  15.087  0.6148  0.2464  0.1838
14441TIP3    H164814   6.626   5.663  15.022  0.1962 -0.5138 -0.4450
14441TIP3    H264815   6.720   5.548  15.048 -0.5496 -1.0983 -0.3108
14442TIP3   OH264816   6.322   6.392   5.973 -0.0562  0.5653 -0.1561
14442TIP3    H164817   6.374   6.427   5.901  2.6187 -0.4030  1.2332
14442TIP3    H264818   6.340   6.298   5.973 -2.1439  0.1436  0.1122
14443TIP3   OH264819   2.765   5.926  14.334  0.1689  0.5802 -0.6012
14443TIP3    H164820   2.838   5.896  14.280  1.3106  2.0499  0.0785
14443TIP3    H264821   2.788   5.897  14.422 -1.8482 -2.1155 -0.9060
14444TIP3   OH264822   4.496   1.320   2.123  0.1696 -0.2080 -0.2311
14444TIP3    H164823   4.570   1.353   2.173 -1.1638  0.4099  1.3714
14444TIP3    H264824   4.501   1.367   2.039  3.1924 -2.2495 -1.2996
14445TIP3   OH264825   5.302   2.443  15.133 -0.0751 -0.0924  0.0346
14445TIP3    H164826   5.281   2.409  15.220  1.3663 -3.7185 -0.9061
14445TIP3    H264827   5.230   2.414  15.077  0.9699 -1.3264 -0.7102
14446TIP3   OH264828   5.753   0.940  13.080 -0.2079  0.8520  0.4549
14446TIP3    H164829   5.834   0.967  13.122 -0.2833  1.2068  0.3696
14446TIP3    H264830   5.689   0.936  13.151  0.0164  0.0313  0.6135
14447TIP3   OH264831   0.687   1.622  15.233  0.1767  0.2359  0.0048
14447TIP3    H164832   0.640   1.541  15.254 -0.6572  0.7588  0.1934
14447TIP3    H264833   0.764   1.593  15.185 -0.3118 -0.6440 -0.2650
14448TIP3   OH264834   5.754   3.805  13.011  0.1453  0.1218 -0.4771
14448TIP3    H164835   5.697   3.871  13.050  2.0691  1.7090 -0.2775
14448TIP3    H264836   5.789   3.847  12.932  0.5073 -1.0711 -0.9636
14449TIP3   OH264837   1.020   2.624   2.888 -0.0631  0.0184  0.4317
14449TIP3    H164838   0.981   2.586   2.967 -0.7394  0.1849  0.1823
14449TIP3    H264839   1.114   2.630   2.908 -0.2017 -0.1234  1.1443
14450TIP3   OH264840   4.254   2.572   1.912  0.5941  0.9003  0.2178
14450TIP3    H164841   4.336   2.531   1.939  0.7104  0.3524 -0.9317
14450TIP3    H264842   4.228   2.525   1.833 -3.3251 -2.1801  3.1159
14451TIP3   OH264843   4.238   5.457   4.761 -0.4386 -0.0780 -0.6979
14451TIP3    H164844   4.249   5.524   4.693  0.4569  0.5959  0.0969
14451TIP3    H264845   4.144   5.458   4.781 -0.3563  1.2731 -0.3565
14452TIP3   OH264846   4.223   4.541   0.230 -0.3231 -0.1330  0.0461
14452TIP3    H164847   4.317   4.559   0.230 -0.6628  1.6852  0.2427
14452TIP3    H264848   4.208   4.492   0.311  0.5455 -0.9315 -0.2716
14453TIP3   OH264849   6.806   3.466   2.448 -0.0917  0.0407 -0.6240
14453TIP3    H164850   6.837   3.407   2.379 -2.0656  0.2313 -1.7262
14453TIP3    H264851   6.754   3.409   2.506 -0.9649  0.4308 -1.0057
14454TIP3   OH264852   2.742   3.966   4.728 -0.1005  0.0951  1.0639
14454TIP3    H164853   2.658   3.945   4.686 -0.9998  1.4576  2.1155
14454TIP3    H264854   2.765   3.887   4.777 -0.8109 -0.2642  0.8283
14455TIP3   OH264855   3.568   6.358  15.925 -0.0737 -0.3371 -0.3053
14455TIP3    H164856   3.635   6.378  15.991  0.0686  1.6734 -1.0152
14455TIP3    H264857   3.488   6.343  15.976  0.3838 -0.3707  0.4156
14456TIP3   OH264858   1.263   1.049  13.713 -0.0847 -0.1344  0.0025
14456TIP3    H164859   1.211   1.100  13.650  0.0151 -0.1961 -0.1284
14456TIP3    H264860   1.226   1.073  13.798  2.1231  2.7307  0.2279
14457TIP3   OH264861   5.559   3.842   2.499  0.3074 -0.4680 -0.2301
14457TIP3    H164862   5.563   3.923   2.450  0.3157 -0.8963 -0.9405
14457TIP3    H264863   5.553   3.773   2.433 -1.4064 -0.9511  0.3789
14458TIP3   OH264864   6.143   4.542  11.221 -0.0531  0.2552 -0.8667
14458TIP3    H164865   6.135   4.634  11.195 -1.4316 -0.0475 -1.5495
14458TIP3    H264866   6.069   4.526  11.279 -0.4874 -0.7296 -1.6768
14459TIP3   OH264867   4.833   3.017  14.898 -0.1356 -0.4591 -1.4524
14459TIP3    H164868   4.745   2.986  14.878  0.1250 -2.3682  0.1982
14459TIP3    H264869   4.868   2.953  14.960  2.4455  0.2402 -2.1149
14460TIP3   OH264870   1.244   1.655   5.563 -0.0952 -0.2751 -0.0342
14460TIP3    H164871   1.230   1.745   5.594  0.7532 -0.9724  2.5042
14460TIP3    H264872   1.157   1.616   5.563 -0.4250  0.4311 -0.8351
14461TIP3   OH264873   3.002   5.203   5.569  0.0794 -0.2909  0.0480
14461TIP3    H164874   2.931   5.245   5.521 -1.2983 -1.6891  0.8389
14461TIP3    H264875   3.013   5.257   5.648 -0.0620 -0.0564 -0.0922
14462TIP3   OH264876   3.713   2.977  12.554  0.1714  0.2035 -0.3258
14462TIP3    H164877   3.772   3.021  12.615  1.9201 -0.8802 -1.1834
14462TIP3    H264878   3.635   2.958  12.606  0.9447  0.8444  1.0981
14463TIP3   OH264879   3.935   6.526   3.331  0.3526  0.0691 -0.1452
14463TIP3    H164880   3.882   6.455   3.367 -0.7259  1.2793  0.7038
14463TIP3    H264881   3.976   6.489   3.253  0.1173 -1.5974  0.5098
14464TIP3   OH264882   0.984   1.901  15.130  0.0823  0.0436 -0.4000
14464TIP3    H164883   0.908   1.950  15.099 -0.0425  0.3330  0.3478
14464TIP3    H264884   0.958   1.870  15.217 -0.4770 -2.7663 -1.5307
14465TIP3   OH264885   1.855   6.691   3.577  0.5413  0.4329 -0.6042
14465TIP3    H164886   1.786   6.653   3.631  0.4526 -0.1952 -1.1478
14465TIP3    H264887   1.826   6.676   3.487  2.2314 -1.4743 -0.8783
14466TIP3   OH264888   3.566   0.472   5.342 -0.4565 -0.4643 -0.1455
14466TIP3    H164889   3.612   0.524   5.276 -0.6442 -0.6565 -0.4258
14466TIP3    H264890   3.477   0.508   5.343 -0.1410  0.3171  0.8282
14467TIP3   OH264891   1.304   2.716  16.589  0.3965 -0.5928  0.3711
14467TIP3    H164892   1.347   2.741  16.507  0.0062  0.4061  0.4636
14467TIP3    H264893   1.261   2.796  16.619 -0.6976 -1.3210  0.7887
14468TIP3   OH264894   3.517   1.192  16.955 -0.4423 -0.3556 -0.7462
14468TIP3    H164895   3.562   1.271  16.924 -1.3739 -0.0371 -1.3030
14468TIP3    H264896   3.586   1.141  16.998  0.1766  0.7330 -0.4236
14469TIP3   OH264897   3.025   2.215   0.598  0.2281  1.5270 -0.0503
14469TIP3    H164898   2.980   2.197   0.680 -0.7256  2.2915 -0.4018
14469TIP3    H264899   2.956   2.240   0.537  0.7558 -0.5087 -1.5263
14470TIP3   OH264900   4.802   5.995   3.755  0.1182  0.0808  0.0564
14470TIP3    H164901   4.851   6.042   3.823 -1.1662 -0.6120  1.4814
14470TIP3    H264902   4.720   5.971   3.798 -1.3447  0.9358 -2.1995
14471TIP3   OH264903   3.252   1.991   3.842 -0.1654  0.5824 -0.4608
14471TIP3    H164904   3.225   1.994   3.934 -0.9173  2.0174 -0.7263
14471TIP3    H264905   3.172   1.968   3.794  0.3020 -0.5100 -0.7308
14472TIP3   OH264906   6.159   3.118   4.673  0.0383 -0.4042  0.3693
14472TIP3    H164907   6.150   3.204   4.634  1.7616 -0.5295 -0.3420
14472TIP3    H264908   6.081   3.108   4.728 -0.0548  1.6944  0.6547
14473TIP3   OH264909   6.471   4.104  16.188  0.1580 -0.0275 -0.4209
14473TIP3    H164910   6.431   4.146  16.264  2.6755  0.8904  0.4675
14473TIP3    H264911   6.451   4.163  16.115 -1.1036 -0.2007 -0.2217
14474TIP3   OH264912   2.283   2.280  14.127  0.9340 -0.1397  0.2271
14474TIP3    H164913   2.224   2.226  14.180  2.9442 -1.9287  0.6900
14474TIP3    H264914   2.264   2.370  14.155 -0.7862 -0.7698  1.1661
14475TIP3   OH264915   5.652   5.561  11.469  0.5013  0.0720 -0.0530
14475TIP3    H164916   5.744   5.539  11.479  0.6459  0.3299 -0.7661
14475TIP3    H264917   5.611   5.532  11.551  0.9998 -1.1574 -0.2319
14476TIP3   OH264918   4.219   0.222  13.260  0.0357 -0.1417 -0.4056
14476TIP3    H164919   4.176   0.182  13.184  2.4464 -1.5586 -1.0926
14476TIP3    H264920   4.269   0.150  13.299  0.6239  1.1151  1.1865
14477TIP3   OH264921   5.981   1.185  13.668 -0.0965  0.8775  0.1091
14477TIP3    H164922   5.895   1.213  13.700 -0.3559 -1.6797  1.7531
14477TIP3    H264923   5.978   1.090  13.672  2.5056  0.7368 -0.7330
14478TIP3   OH264924   4.044   0.467  16.298 -0.4647  0.5401  0.2867
14478TIP3    H164925   4.069   0.377  16.275  1.5697  0.9564  0.7684
14478TIP3    H264926   4.038   0.513  16.214  0.7251  0.4971  0.1663
14479TIP3   OH264927   0.152   3.159  14.389 -0.4087 -0.3351  0.1374
14479TIP3    H164928   0.178   3.240  14.345 -0.2660  0.6103  1.9162
14479TIP3    H264929   0.061   3.145  14.362 -0.4762  0.4860 -0.0869
14480TIP3   OH264930   0.341   0.527   3.509 -0.6102  0.2296 -0.0895
14480TIP3    H164931   0.395   0.532   3.588  1.0374 -0.5079 -1.1545
14480TIP3    H264932   0.251   0.526   3.542  0.0772 -1.1020  1.8584
14481TIP3   OH264933   2.400   0.324   5.714 -0.3484 -0.2494 -0.5887
14481TIP3    H164934   2.402   0.300   5.621 -0.5557  0.1069 -0.6869
14481TIP3    H264935   2.462   0.396   5.722 -1.2055  0.5160 -0.6863
14482TIP3   OH264936   0.554   2.187  12.582  0.2085 -0.0597  0.3724
14482TIP3    H164937   0.617   2.178  12.510  1.4340  3.9376  0.8156
14482TIP3    H264938   0.469   2.171  12.541  1.0781 -0.2087 -1.4483
14483TIP3   OH264939   3.482   6.586  12.201  0.4292  0.5609 -0.3514
14483TIP3    H164940   3.548   6.652  12.221  0.3211  0.5935 -0.0957
14483TIP3    H264941   3.399   6.627  12.227  0.2131  0.8898 -1.5728
14484TIP3   OH264942   6.395   4.655  13.522 -0.0115 -0.5399 -0.1643
14484TIP3    H164943   6.481   4.646  13.481  0.2229 -1.6153  0.5575
14484TIP3    H264944   6.410   4.636  13.614 -0.6802  1.1117  0.3084
14485TIP3   OH264945   2.638   5.349  15.648 -0.4441  0.2272 -0.4064
14485TIP3    H164946   2.723   5.331  15.607 -0.7400  1.3488 -1.5338
14485TIP3    H264947   2.610   5.264  15.682  0.8228 -0.2859 -0.6010
14486TIP3   OH264948   2.624   2.525   2.337  0.3829  0.3662  0.4383
14486TIP3    H164949   2.561   2.595   2.355  0.2166 -0.0213  1.4209
14486TIP3    H264950   2.691   2.565   2.283 -0.1041  1.0921  0.3706
14487TIP3   OH264951   5.734   1.291  12.354 -0.5057 -0.0564 -0.3363
14487TIP3    H164952   5.653   1.248  12.324 -0.3670 -0.3503 -0.2927
14487TIP3    H264953   5.756   1.246  12.436 -0.9190  0.7949  0.2367
14488TIP3   OH264954   6.499   0.452  15.535 -0.1706  0.3565 -0.3214
14488TIP3    H164955   6.582   0.498  15.530  0.1077 -0.0787  0.2984
14488TIP3    H264956   6.436   0.513  15.497  0.2011  1.2549  0.4682
14489TIP3   OH264957   3.259   2.049  14.003  0.0238 -0.1235 -0.0937
14489TIP3    H164958   3.211   1.975  14.040 -0.9249  0.4610 -0.1529
14489TIP3    H264959   3.351   2.030  14.023 -0.3690 -0.4246  1.4660
14490TIP3   OH264960   6.322   0.682   4.787  0.2829  0.7014  0.2279
14490TIP3    H164961   6.394   0.626   4.817 -0.0419  0.2765  0.2141
14490TIP3    H264962   6.366   0.762   4.755  0.5860  1.4669  2.4589
14491TIP3   OH264963   0.637   6.780  14.759 -0.1470 -0.4891  0.3167
14491TIP3    H164964   0.630   6.796  14.665 -0.7776  0.3976  0.5076
14491TIP3    H264965   0.730   6.783  14.777 -0.0738  0.0786 -0.1553
14492TIP3   OH264966   3.098   3.293  15.604  0.1019 -0.6600 -0.4540
14492TIP3    H164967   3.193   3.292  15.598  0.1405  2.1505 -0.9983
14492TIP3    H264968   3.069   3.216  15.555  2.0968 -1.9573  0.3612
14493TIP3   OH264969   4.945   1.135  10.188 -0.1607 -0.0900  1.2952
14493TIP3    H164970   4.940   1.045  10.156  1.5194 -0.6333  2.4753
14493TIP3    H264971   4.893   1.186  10.126 -0.8433 -1.8177  0.4221
14494TIP3   OH264972   2.361   2.728   5.999  0.0791 -0.0808 -0.1770
14494TIP3    H164973   2.297   2.769   6.057 -1.1106 -2.1312  0.0446
14494TIP3    H264974   2.361   2.636   6.025  2.4676 -0.2945 -0.7966
14495TIP3   OH264975   6.570   5.021  11.363  0.3707 -0.3643  0.4553
14495TIP3    H164976   6.477   5.010  11.344  0.3457  0.6967 -0.0888
14495TIP3    H264977   6.601   4.933  11.382 -0.6969 -0.7587  0.4039
14496TIP3   OH264978   0.897   1.527  15.112 -0.0009 -0.0700  0.0879
14496TIP3    H164979   0.911   1.502  15.021 -0.6512 -2.5852  0.6532
14496TIP3    H264980   0.944   1.462  15.163  0.8387  1.6427  1.5659
14497TIP3   OH264981   6.516   5.123   5.834 -0.3849  0.2708  0.1390
14497TIP3    H164982   6.499   5.059   5.903 -0.5758  0.1572 -0.0124
14497TIP3    H264983   6.577   5.185   5.874  1.4707 -1.1781 -0.3709
14498TIP3   OH264984   4.446   0.866  13.745 -0.0824 -0.2526 -0.1242
14498TIP3    H164985   4.423   0.945  13.696  0.0854  0.6403  1.2220
14498TIP3    H264986   4.539   0.876  13.766  0.3777 -1.6229 -1.4292
14499TIP3   OH264987   5.969   1.864   4.959 -0.9340  0.0866  0.3725
14499TIP3    H164988   5.975   1.955   4.927 -0.7935 -0.4752 -1.2646
14499TIP3    H264989   5.955   1.812   4.880  0.8020 -1.5241  1.0778
14500TIP3   OH264990   3.794   1.508   0.894  0.1595 -0.5540 -0.7481
14500TIP3    H164991   3.828   1.508   0.804 -0.4244 -0.8588 -0.9736
14500TIP3    H264992   3.749   1.424   0.902 -0.4473 -0.1989 -0.4223
14501TIP3   OH264993   3.581   2.504  15.386  0.1665 -0.5397  0.2276
14501TIP3    H164994   3.566   2.559  15.463 -0.9969 -0.0786 -0.3102
14501TIP3    H264995   3.493   2.475  15.361  0.5267 -0.5994 -0.9745
14502TIP3   OH264996   4.966   6.493  14.173 -0.0677  0.0723 -0.1357
14502TIP3    H164997   5.004   6.514  14.259 -0.0802 -0.6301  0.0423
14502TIP3    H264998   4.980   6.399  14.163  1.3245  0.4021 -1.5928
14503TIP3   OH264999   6.574   6.508   5.226 -0.0187 -0.1081 -0.1148
14503TIP3    H165000   6.642   6.534   5.163  1.2669  1.3615  1.8369
14503TIP3    H265001   6.604   6.423   5.259  0.9963  0.6116  0.8645
14504TIP3   OH265002   6.031   0.642  10.606 -0.6570  0.7294  0.0430
14504TIP3    H165003   6.124   0.650  10.630 -1.3511  0.6022  2.9956
14504TIP3    H265004   6.008   0.553  10.630 -1.2055  0.2916 -2.0558
14505TIP3   OH265005   0.241   0.437  11.715 -0.2223  0.2995  0.0448
14505TIP3    H165006   0.233   0.527  11.684 -0.7028  0.5687  0.9157
14505TIP3    H265007   0.223   0.383  11.638  2.7205  0.9295 -1.1483
14506TIP3   OH265008   5.513   0.365   3.933  0.2289 -0.4876 -0.2248
14506TIP3    H165009   5.478   0.279   3.907  1.2950 -1.5036  1.6206
14506TIP3    H265010   5.569   0.346   4.008  1.0561  1.7470 -0.2564
14507TIP3   OH265011   1.840   3.195   4.001 -0.0161 -0.3561  0.3174
14507TIP3    H165012   1.874   3.139   3.932 -0.1761 -2.7463  2.0994
14507TIP3    H265013   1.748   3.168   4.011  0.0033 -0.0482  1.4427
14508TIP3   OH265014   1.425   3.712   2.761 -0.2664  0.2828  0.1364
14508TIP3    H165015   1.434   3.617   2.769 -0.5732  0.4109  2.1905
14508TIP3    H265016   1.332   3.726   2.747 -0.0058  0.2000 -1.8626
14509TIP3   OH265017   1.092   5.685  12.988 -0.0932 -0.0637 -0.4176
14509TIP3    H165018   1.157   5.616  12.976  1.0970 -0.0588  4.7750
14509TIP3    H265019   1.011   5.639  13.007  0.0379 -0.0516  0.1762
14510TIP3   OH265020   3.838   2.340   6.995  0.3784 -0.4580 -0.6060
14510TIP3    H165021   3.836   2.393   6.915 -0.8555 -0.8831 -0.8555
14510TIP3    H265022   3.762   2.283   6.988  0.5765 -0.8772  0.6175
14511TIP3   OH265023   4.692   0.366  11.671 -0.1486 -0.3079 -0.1287
14511TIP3    H165024   4.641   0.319  11.737 -0.1049 -0.9828 -0.5652
14511TIP3    H265025   4.648   0.346  11.589  1.5643 -1.9825 -0.6848
14512TIP3   OH265026   2.484   2.622   3.005  0.5691  0.1003 -0.1156
14512TIP3    H165027   2.435   2.701   3.023 -3.5596 -2.1763 -0.8370
14512TIP3    H265028   2.478   2.570   3.085 -0.1269 -1.1400 -0.9449
14513TIP3   OH265029   4.129   2.881  16.110 -0.4491 -0.1423  0.2310
14513TIP3    H165030   4.187   2.900  16.184  0.0903 -0.8570  0.0027
14513TIP3    H265031   4.178   2.818  16.057 -1.2452 -0.4065 -0.2028
14514TIP3   OH265032   0.647   1.869  13.470  0.2332 -0.0850 -0.0559
14514TIP3    H165033   0.617   1.957  13.447 -1.3124 -0.6517 -0.2676
14514TIP3    H265034   0.632   1.817  13.391  0.2779 -0.7491  0.3680
14515TIP3   OH265035   1.284   6.063  16.121 -0.0301  0.0900 -0.2447
14515TIP3    H165036   1.193   6.030  16.118 -0.2788  0.5434  1.3713
14515TIP3    H265037   1.324   6.030  16.041 -2.2796  1.8829 -2.2010
14516TIP3   OH265038   1.157   0.932  13.144  0.2923 -0.1253 -0.8073
14516TIP3    H165039   1.218   0.945  13.071  0.6922  0.0160 -0.4574
14516TIP3    H265040   1.210   0.951  13.222  0.0630 -0.9352 -0.4413
14517TIP3   OH265041   3.517   4.565  15.998  0.3521 -0.0343 -0.5273
14517TIP3    H165042   3.510   4.650  15.956  1.1124 -0.0804 -0.7509
14517TIP3    H265043   3.598   4.569  16.048 -0.7967  0.2142  1.3703
14518TIP3   OH265044   2.543   3.575  11.851 -0.0948 -0.1609 -0.5051
14518TIP3    H165045   2.609   3.591  11.918  0.1528 -0.5582 -0.6551
14518TIP3    H265046   2.556   3.484  11.825 -0.7674 -0.2721 -0.4594
14519TIP3   OH265047   0.068   3.712   2.953  0.0657 -0.9091 -0.0574
14519TIP3    H165048  -0.002   3.765   2.992  1.7215  1.8091 -0.6556
14519TIP3    H265049   0.025   3.659   2.887 -1.5080  0.3658 -0.0744
14520TIP3   OH265050   2.569   1.628   4.249  0.0105  0.3466 -0.1899
14520TIP3    H165051   2.565   1.715   4.290 -1.3850 -0.0886  0.6004
14520TIP3    H265052   2.544   1.567   4.318  2.2440 -0.8249 -0.3682
14521TIP3   OH265053   1.089   6.610   4.679  0.1078  0.0436  0.6520
14521TIP3    H165054   1.049   6.549   4.741 -1.7348 -0.8977 -1.3971
14521TIP3    H265055   1.057   6.696   4.706 -1.1979 -0.4260  0.6100
14522TIP3   OH265056   5.641   2.540  11.686 -0.0148 -0.0918 -0.0949
14522TIP3    H165057   5.646   2.631  11.716  1.1636 -0.9736  2.5909
14522TIP3    H265058   5.575   2.500  11.742 -1.2542 -0.6850 -1.9403
14523TIP3   OH265059   4.556   6.707   3.291  0.3840  0.0625  0.2956
14523TIP3    H165060   4.469   6.715   3.330  0.2340  0.4373 -0.1158
14523TIP3    H265061   4.547   6.639   3.225  0.3367  0.2855  0.0708
14524TIP3   OH265062   2.027   6.044  15.965  0.2039 -0.1558  0.2942
14524TIP3    H165063   1.961   6.037  15.895 -0.7247  1.2877  1.0097
14524TIP3    H265064   2.075   6.124  15.944  2.6256 -1.8518 -0.9396
14525TIP3   OH265065   6.543   0.416   4.674  0.0662 -0.7265  0.4253
14525TIP3    H165066   6.637   0.429   4.682 -0.2105 -0.0133  3.0105
14525TIP3    H265067   6.524   0.341   4.730 -0.9394 -0.6590  0.1881
14526TIP3   OH265068   1.640   6.580  11.817  0.1307  0.2779 -0.4301
14526TIP3    H165069   1.588   6.650  11.777 -0.2146  0.9419  1.1304
14526TIP3    H265070   1.578   6.535  11.875  1.1839  0.8134  1.1272
14527TIP3   OH265071   6.265   3.866  13.060 -0.6773  0.5074  0.2812
14527TIP3    H165072   6.222   3.951  13.062 -2.6405 -0.4144 -1.1584
14527TIP3    H265073   6.206   3.810  13.010  2.0116 -0.9414 -1.4015
14528TIP3   OH265074   0.881   4.466   1.217 -0.8894  0.1390 -0.2726
14528TIP3    H165075   0.937   4.525   1.167  1.0720 -0.8469  0.7258
14528TIP3    H265076   0.812   4.523   1.252 -1.1911  1.1588 -2.4603
14529TIP3   OH265077   5.759   2.632  16.651 -0.1531 -0.3639  0.2622
14529TIP3    H165078   5.743   2.638  16.557 -0.8081  0.5773  0.4172
14529TIP3    H265079   5.787   2.542  16.666  0.1621 -0.4529 -0.8661
14530TIP3   OH265080   1.817   5.807   0.509 -0.1769 -0.0599  0.4683
14530TIP3    H165081   1.875   5.878   0.483  0.7443 -0.7393  0.6233
14530TIP3    H265082   1.741   5.851   0.546 -0.0462  0.8569 -0.3256
14531TIP3   OH265083   2.082   5.738   0.562  0.3724 -0.5566 -0.5170
14531TIP3    H165084   2.108   5.753   0.471 -0.4220  1.4923 -0.4218
14531TIP3    H265085   1.990   5.761   0.566  0.5696  0.0952  0.9576
14532TIP3   OH265086   0.690   4.221  15.009 -0.3525  0.3484  0.0815
14532TIP3    H165087   0.606   4.185  15.039  0.5134 -1.2841  0.5796
14532TIP3    H265088   0.712   4.287  15.075 -1.8608  1.7199 -0.7472
14533TIP3   OH265089   0.608   3.752  12.319 -0.0571 -0.3099  0.3600
14533TIP3    H165090   0.621   3.748  12.224  1.3234 -1.0170  0.5526
14533TIP3    H265091   0.531   3.807  12.331  0.6528  1.0387 -1.1118
14534TIP3   OH265092   6.108   4.605   4.319  0.1281  0.5416 -0.2558
14534TIP3    H165093   6.178   4.559   4.273 -1.0457  0.0351 -1.5881
14534TIP3    H265094   6.092   4.683   4.265 -0.4797  0.5383 -0.0793
14535TIP3   OH265095   3.063   1.813   6.363  0.0932 -0.0450  0.1264
14535TIP3    H165096   3.117   1.803   6.441  1.7591 -1.5293 -1.1889
14535TIP3    H265097   3.005   1.737   6.365 -0.3091  0.2650  0.2568
14536TIP3   OH265098   0.282   4.101  16.145 -0.0088  0.2124 -0.0974
14536TIP3    H165099   0.187   4.099  16.162 -0.3551  0.4432 -1.8977
14536TIP3    H265100   0.289   4.107  16.050  1.8140  1.2002  0.0820
14537TIP3   OH265101   2.573   5.532   5.127  0.4682 -0.3425  0.5868
14537TIP3    H165102   2.536   5.453   5.165 -0.5018 -0.7486 -1.1522
14537TIP3    H265103   2.499   5.574   5.083  1.7341 -0.3822 -1.6275
14538TIP3   OH265104   0.077   2.545  15.356  0.2834 -0.3837 -0.2069
14538TIP3    H165105   0.065   2.596  15.436 -0.0217 -2.0617  0.8641
14538TIP3    H265106   0.069   2.608  15.285  1.9556  1.3998  1.1256
14539TIP3   OH265107   6.327   6.137  12.320  0.2179 -0.2021 -0.5640
14539TIP3    H165108   6.410   6.165  12.360 -0.1449  0.8233 -0.5138
14539TIP3    H265109   6.278   6.097  12.391 -0.1870  1.1000 -0.0927
14540TIP3   OH265110   0.508   5.904   1.508  0.1571 -0.5466  0.1265
14540TIP3    H165111   0.459   5.916   1.589 -1.9046  2.5536 -1.4890
14540TIP3    H265112   0.489   5.814   1.482 -3.5192  0.0812  0.3729
14541TIP3   OH265113   1.747   5.193   2.312 -0.4422 -0.7872  0.9867
14541TIP3    H165114   1.769   5.193   2.405 -0.4947 -1.1337  1.0000
14541TIP3    H265115   1.831   5.199   2.267 -0.4233 -0.5301  1.0592
14542TIP3   OH265116   2.583   3.489   4.811 -0.2179 -0.2804 -0.1245
14542TIP3    H165117   2.618   3.470   4.724 -0.4958  2.1006 -0.7807
14542TIP3    H265118   2.513   3.424   4.823  1.2751 -2.0552 -0.7243
14543TIP3   OH265119   1.868   5.536  11.800  0.0012  0.5759 -0.0691
14543TIP3    H165120   1.956   5.502  11.815 -0.3676 -0.1260  0.5172
14543TIP3    H265121   1.882   5.620  11.757  0.9354 -0.0208 -0.9592
14544TIP3   OH265122   6.227   1.574   2.000  0.3821  0.7712 -0.0234
14544TIP3    H165123   6.269   1.652   1.966  1.3360  0.6694  0.9301
14544TIP3    H265124   6.252   1.504   1.938  0.3616  1.0054 -0.2974
14545TIP3   OH265125   2.509   5.007  10.587 -0.2270  0.3625  0.3773
14545TIP3    H165126   2.434   5.022  10.644 -0.7067 -2.0353  0.4044
14545TIP3    H265127   2.586   5.025  10.641 -0.7072 -0.7124  1.4187
14546TIP3   OH265128   2.177   4.237  10.975 -0.2489 -0.1224 -0.1421
14546TIP3    H165129   2.205   4.309  10.920  0.0917 -1.8741 -2.3489
14546TIP3    H265130   2.248   4.225  11.038  0.6922  0.0692 -1.1627
14547TIP3   OH265131   2.859   4.306  17.144 -0.3720 -0.3850 -0.3414
14547TIP3    H165132   2.833   4.217  17.165 -1.1163  0.3884  2.2262
14547TIP3    H265133   2.834   4.318  17.053 -0.8149 -2.5922 -0.5273
14548TIP3   OH265134   0.689   1.634  16.737  0.1427 -0.2056 -0.4565
14548TIP3    H165135   0.766   1.611  16.789 -0.0933 -0.7882 -0.3577
14548TIP3    H265136   0.724   1.683  16.663  0.5479  0.0410 -0.1070
14549TIP3   OH265137   0.462   1.690  13.549 -0.3458 -0.1831 -0.7886
14549TIP3    H165138   0.517   1.763  13.520 -0.9498  1.9385  3.1183
14549TIP3    H265139   0.378   1.731  13.571 -0.0835 -1.6953  3.3158
14550TIP3   OH265140   5.515   0.432  11.312  0.1138  0.0715 -0.2132
14550TIP3    H165141   5.528   0.339  11.327 -0.3843 -0.0188 -0.3267
14550TIP3    H265142   5.601   0.466  11.288  0.0503 -0.5849 -1.3816
14551TIP3   OH265143   4.974   5.957  15.977  0.6033 -0.1740  0.3698
14551TIP3    H165144   4.962   5.996  15.890 -2.0245  0.3955  0.9315
14551TIP3    H265145   4.986   5.864  15.961  1.0002  0.0554 -0.6716
14552TIP3   OH265146   3.963   1.414  15.671  0.1502 -0.3612 -0.8203
14552TIP3    H165147   3.942   1.478  15.604  0.8415 -0.5641 -1.2382
14552TIP3    H265148   3.905   1.435  15.744 -0.9567 -0.4484 -1.6657
14553TIP3   OH265149   5.631   3.837  14.648 -0.6729 -0.4723 -0.3068
14553TIP3    H165150   5.652   3.883  14.729 -2.2808  2.2304 -1.3575
14553TIP3    H265151   5.701   3.773  14.638  1.5757  1.6577  1.2794
14554TIP3   OH265152   0.171   6.480   4.229 -0.3660 -0.2252  0.3479
14554TIP3    H165153   0.225   6.459   4.306 -0.4480 -0.2552  0.3968
14554TIP3    H265154   0.229   6.531   4.172 -1.4330  3.1109  2.1075
14555TIP3   OH265155   0.876   2.049  12.623  0.0739 -0.6653  0.0010
14555TIP3    H165156   0.785   2.078  12.617  0.1170 -1.0505 -3.0113
14555TIP3    H265157   0.927   2.117  12.580  1.0200 -1.2949  0.1018
14556TIP3   OH265158   0.568   1.390  13.554 -0.1891  0.2057  0.6377
14556TIP3    H165159   0.592   1.430  13.471  0.5907  0.8860  1.1871
14556TIP3    H265160   0.642   1.408  13.612  0.4908 -2.5852  0.7152
14557TIP3   OH265161   0.623   4.266   1.606  0.4925  0.1778 -0.1007
14557TIP3    H165162   0.587   4.352   1.630 -1.0903 -1.0780  2.1723
14557TIP3    H265163   0.583   4.247   1.521 -1.0392  0.6379  0.4983
14558TIP3   OH265164   6.054   0.700  15.422 -0.4367  0.0274 -0.3781
14558TIP3    H165165   6.138   0.685  15.378 -0.2815  0.9361 -0.4091
14558TIP3    H265166   6.070   0.673  15.513 -0.2147 -0.1204 -0.4594
14559TIP3   OH265167   6.219   4.686  14.532  0.5864  0.3639 -0.3968
14559TIP3    H165168   6.187   4.689  14.622  0.7333  0.3907 -0.3439
14559TIP3    H265169   6.140   4.684  14.478  0.4906  1.1799 -0.2930
14560TIP3   OH265170   3.957   3.924   6.179 -0.3382 -0.3779  0.6849
14560TIP3    H165171   3.996   4.007   6.151  2.6932 -1.2982  2.0293
14560TIP3    H265172   3.927   3.940   6.268 -1.0362 -0.3601  0.4562
14561TIP3   OH265173   2.659   0.739   2.413 -0.0714  0.3875  0.0159
14561TIP3    H165174   2.619   0.825   2.399  0.0872  0.3017 -1.0336
14561TIP3    H265175   2.714   0.725   2.336  1.4757  0.2119  1.1270
14562TIP3   OH265176   0.431   6.339   5.826  0.4036 -0.7219  0.2456
14562TIP3    H165177   0.402   6.345   5.917 -2.4337 -1.1544 -0.5620
14562TIP3    H265178   0.443   6.430   5.799  1.2300 -0.5907  1.0280
14563TIP3   OH265179   4.611   0.896   3.026 -0.0808  0.7277 -0.1357
14563TIP3    H165180   4.591   0.985   3.055  1.3801  0.5578  1.4942
14563TIP3    H265181   4.528   0.849   3.033 -0.4480  1.5089  0.8340
14564TIP3   OH265182   1.404   6.238  15.219  0.0729 -0.0907 -0.3238
14564TIP3    H165183   1.465   6.171  15.187  0.4685  0.5468 -0.9295
14564TIP3    H265184   1.417   6.312  15.159 -2.0816 -0.3432 -1.1341
14565TIP3   OH265185   4.194   3.801  16.853 -0.6001 -0.4090 -0.1459
14565TIP3    H165186   4.123   3.738  16.866 -1.4892  0.4203 -0.9070
14565TIP3    H265187   4.151   3.887  16.856  0.5997  0.1794  0.9491
14566TIP3   OH265188   6.156   3.546   3.925 -0.2694 -0.8458  0.7938
14566TIP3    H165189   6.147   3.508   3.838  1.0103 -0.4920  0.4937
14566TIP3    H265190   6.085   3.506   3.976 -1.7080 -0.2383 -0.6819
14567TIP3   OH265191   3.865   3.883  13.868 -0.0932 -0.2676  0.1633
14567TIP3    H165192   3.933   3.880  13.934  1.4049  0.0451 -1.3305
14567TIP3    H265193   3.834   3.973  13.868 -0.9870 -0.5649  1.3030
14568TIP3   OH265194   6.653   1.800  16.594 -0.6428 -0.0989  0.6361
14568TIP3    H165195   6.627   1.854  16.519 -0.2894 -0.6372  0.1261
14568TIP3    H265196   6.576   1.802  16.651 -0.7200  0.7530  0.5184
14569TIP3   OH265197   4.656   0.298  12.861  0.3794  1.1949  0.3047
14569TIP3    H165198   4.626   0.382  12.896  0.6487  0.9951  1.0167
14569TIP3    H265199   4.744   0.287  12.898  1.3210  1.7342 -1.7107
14570TIP3   OH265200   3.769   3.720  16.254 -0.4725 -0.1976 -0.0133
14570TIP3    H165201   3.705   3.648  16.257 -0.4973 -0.2487 -1.4059
14570TIP3    H265202   3.760   3.763  16.339  1.0711 -3.1226  1.7085
14571TIP3   OH265203   4.472   5.598   0.952  0.1864  0.6430  0.0848
14571TIP3    H165204   4.547   5.572   0.899  0.2010  0.3630  0.2389
14571TIP3    H265205   4.486   5.691   0.970  1.2273  0.2814  1.2734
14572TIP3   OH265206   3.484   5.536   1.456 -0.4155 -1.0109 -0.1049
14572TIP3    H165207   3.491   5.596   1.382 -0.3982  1.5998  1.9649
14572TIP3    H265208   3.453   5.454   1.417  1.0142 -0.1513 -3.1931
14573TIP3   OH265209   4.473   4.835   1.965 -0.5443  0.0461  0.0388
14573TIP3    H165210   4.467   4.803   2.055  0.3253 -1.1183 -0.3058
14573TIP3    H265211   4.567   4.844   1.949 -0.7101  0.7356 -0.5888
14574TIP3   OH265212   3.597   1.228  16.487  0.1185 -0.1597 -0.1033
14574TIP3    H165213   3.557   1.289  16.549 -1.4724 -0.6309 -0.6494
14574TIP3    H265214   3.604   1.146  16.535  0.9159  0.0492  0.1514
14575TIP3   OH265215   4.431   4.465   4.312 -0.2859  0.7151 -0.0139
14575TIP3    H165216   4.442   4.470   4.407 -2.3528  3.1028  0.1513
14575TIP3    H265217   4.517   4.438   4.279  0.7453  0.8834  2.4359
14576TIP3   OH265218   0.137   0.062  15.612 -0.2563 -0.2768  0.1719
14576TIP3    H165219   0.069  -0.003  15.631  0.0854 -0.6544  0.1136
14576TIP3    H265220   0.104   0.144  15.650  0.5453 -1.0637  2.6570
14577TIP3   OH265221   3.364   1.998  16.746 -0.0924  0.3387  0.2285
14577TIP3    H165222   3.340   1.919  16.795  0.9515 -0.7137 -0.9107
14577TIP3    H265223   3.404   2.055  16.812  0.5074 -0.7090  0.8005
14578TIP3   OH265224   5.778   1.564   5.550 -0.2298  0.3204  0.1728
14578TIP3    H165225   5.774   1.625   5.476 -0.2874  0.6583  0.4538
14578TIP3    H265226   5.768   1.477   5.510  1.1237  0.4038 -0.3580
14579TIP3   OH265227   4.573   0.555   1.709 -0.1450 -0.8180 -0.1014
14579TIP3    H165228   4.516   0.559   1.786 -0.7207 -2.2732 -0.4428
14579TIP3    H265229   4.652   0.602   1.736 -0.6613 -0.6188  1.1057
14580TIP3   OH265230   3.399   6.474   3.212 -0.1506 -1.0133  0.2473
14580TIP3    H165231   3.463   6.543   3.230 -0.1701 -1.2222  1.1230
14580TIP3    H265232   3.431   6.398   3.261 -1.4807 -0.8999  1.3211
14581TIP3   OH265233   2.603   0.240   6.150 -0.1113  0.1458  0.4188
14581TIP3    H165234   2.550   0.243   6.230 -1.4952  0.0436 -0.4779
14581TIP3    H265235   2.551   0.287   6.085  0.8100 -0.1339 -0.5358
14582TIP3   OH265236   0.285   0.598  16.134 -0.9889  0.0733 -0.1811
14582TIP3    H165237   0.216   0.566  16.075 -0.6189  1.2569 -1.2675
14582TIP3    H265238   0.300   0.525  16.195 -2.1778 -0.7365 -0.8334
14583TIP3   OH265239   2.896   2.842  15.276  0.0673 -0.5057 -0.4006
14583TIP3    H165240   2.990   2.832  15.258  0.1157  0.7450 -0.8818
14583TIP3    H265241   2.856   2.853  15.190 -0.3277  0.5597 -0.0817
14584TIP3   OH265242   1.954   5.491   5.738  0.2122 -0.4302 -0.1238
14584TIP3    H165243   2.031   5.495   5.681 -1.7555  0.0299 -2.8128
14584TIP3    H265244   1.907   5.572   5.721 -0.7887 -0.6091  1.6630
14585TIP3   OH265245   1.470   2.752  17.290 -0.1754 -0.1711  0.0413
14585TIP3    H165246   1.444   2.844  17.289  1.4283  0.2981  1.1078
14585TIP3    H265247   1.514   2.738  17.206  3.2891  1.1415  1.5647
14586TIP3   OH265248   4.525   5.470   2.287 -0.1001  0.3905 -0.1310
14586TIP3    H165249   4.513   5.383   2.247 -0.2804  0.5967 -0.5290
14586TIP3    H265250   4.458   5.524   2.246 -1.2003  0.2736  1.4989
14587TIP3   OH265251   6.045   5.118  15.601  0.0967  0.1945  0.5023
14587TIP3    H165252   6.072   5.030  15.574  0.9230  0.8833 -1.0110
14587TIP3    H265253   6.037   5.167  15.519  1.9569  2.1682  1.4324
14588TIP3   OH265254   3.429   4.495  14.174  0.1032  0.0206  0.7012
14588TIP3    H165255   3.447   4.401  14.185  0.0675  0.1204  1.7162
14588TIP3    H265256   3.417   4.527  14.264  1.2551  1.2174  0.4471
14589TIP3   OH265257   5.219   2.827  13.747  0.6316  0.3443 -0.0601
14589TIP3    H165258   5.243   2.878  13.824  0.4960 -1.5833  1.2780
14589TIP3    H265259   5.124   2.835  13.742  0.5301 -0.4463  0.6233
14590TIP3   OH265260   4.051   4.675   4.533 -0.6974 -0.3436  0.0749
14590TIP3    H165261   4.131   4.675   4.480 -0.9539  1.8065 -0.3855
14590TIP3    H265262   3.981   4.682   4.468 -1.0831  1.0185  0.6297
14591TIP3   OH265263   0.025   5.247  14.645  0.0501 -0.5161 -0.1948
14591TIP3    H165264   0.119   5.230  14.649  0.5306  1.9658 -0.3090
14591TIP3    H265265  -0.003   5.246  14.737  0.2306 -0.9515 -0.1404
14592TIP3   OH265266   2.949   6.810  14.343  0.6029  0.6607 -0.4893
14592TIP3    H165267   2.891   6.866  14.292  1.5420  1.7077 -0.4348
14592TIP3    H265268   2.905   6.800  14.428 -0.2497  0.1300 -0.9849
14593TIP3   OH265269   2.953   5.710   2.497 -0.1391 -0.1580 -0.3398
14593TIP3    H165270   2.864   5.743   2.496  0.2272  0.8449 -1.1058
14593TIP3    H265271   2.961   5.664   2.581 -0.6498  1.7584  0.7759
14594TIP3   OH265272   2.698   6.071  16.871  0.1020 -0.1694 -0.0237
14594TIP3    H165273   2.732   6.003  16.814 -0.9093 -0.5922 -0.1369
14594TIP3    H265274   2.774   6.123  16.896  0.9064 -1.4594  0.2304
14595TIP3   OH265275   3.415   4.223  11.510  0.8223 -0.2656  0.8826
14595TIP3    H165276   3.390   4.163  11.439 -0.1319  0.0249  0.9616
14595TIP3    H265277   3.503   4.195  11.535  0.7240 -1.0906  0.3433
14596TIP3   OH265278   5.790   1.126  16.984 -0.5451  0.2951 -0.2602
14596TIP3    H165279   5.869   1.153  16.937  1.4372 -1.7312  1.7878
14596TIP3    H265280   5.806   1.153  17.074 -2.7103  0.8532 -0.0161
14597TIP3   OH265281   0.336   2.327  13.929  0.1060  0.4330  0.1496
14597TIP3    H165282   0.381   2.319  13.845  1.2335  0.4341  0.7517
14597TIP3    H265283   0.370   2.408  13.967 -0.2155  0.3056  0.7190
14598TIP3   OH265284   3.377   4.129   1.996  0.5293 -0.0805 -0.7868
14598TIP3    H165285   3.295   4.172   2.019  0.8822  0.9574 -1.3939
14598TIP3    H265286   3.352   4.051   1.947 -0.1113 -0.0957 -0.4254
14599TIP3   OH265287   4.884   6.796  16.826 -0.2321 -0.1450  0.2303
14599TIP3    H165288   4.832   6.812  16.905  1.4144  0.8479  1.1599
14599TIP3    H265289   4.950   6.733  16.853 -0.8130 -1.2621 -0.8917
14600TIP3   OH265290   0.492   5.255  15.792  0.3750  0.0350  0.1711
14600TIP3    H165291   0.476   5.161  15.796  0.3006  0.0975  1.3000
14600TIP3    H265292   0.587   5.263  15.779  0.3167 -0.1974 -0.4300
14601TIP3   OH265293   2.625   0.044  14.554 -0.4824  0.2969  0.5686
14601TIP3    H165294   2.637   0.135  14.528  1.6817  0.4044  1.8257
14601TIP3    H265295   2.713   0.013  14.575 -1.0212 -2.4448 -0.9572
14602TIP3   OH265296   3.329   0.368  14.876 -0.1391 -0.2063  0.2900
14602TIP3    H165297   3.280   0.285  14.878 -2.8121  1.3092  1.7231
14602TIP3    H265298   3.412   0.348  14.918 -1.2194 -1.9114  1.7033
14603TIP3   OH265299   1.526   5.354   2.372 -0.1754 -0.0569  0.7777
14603TIP3    H165300   1.493   5.301   2.299 -0.3290  1.2167 -0.0999
14603TIP3    H265301   1.621   5.344   2.368 -0.1482  0.3861  0.0792
14604TIP3   OH265302   4.277   3.931   1.545 -0.2272  0.8117 -0.4858
14604TIP3    H165303   4.243   3.939   1.634  0.6681 -1.8955  0.1658
14604TIP3    H265304   4.350   3.993   1.541 -1.7478  2.6512 -0.1150
14605TIP3   OH265305   2.250   4.862   5.936  0.0069  0.1681  0.1529
14605TIP3    H165306   2.261   4.894   6.025  1.7380  1.0092 -0.3445
14605TIP3    H265307   2.220   4.939   5.887  2.0628  0.5308 -0.5962
14606TIP3   OH265308   1.452   2.599   6.510 -0.5982 -0.0349 -0.0156
14606TIP3    H165309   1.481   2.519   6.554 -1.2781  0.4402  1.3464
14606TIP3    H265310   1.496   2.669   6.558 -2.4832  0.5756  0.8343
14607TIP3   OH265311   5.379   5.604  12.162 -0.2227 -0.2816  0.4909
14607TIP3    H165312   5.317   5.675  12.145 -1.0772 -0.9111  0.9885
14607TIP3    H265313   5.428   5.633  12.239  2.2528  1.6366 -1.6940
14608TIP3   OH265314   0.524   5.485  13.814  0.4540 -0.1260  0.0552
14608TIP3    H165315   0.485   5.460  13.898 -0.8697 -0.1703 -0.5426
14608TIP3    H265316   0.482   5.426  13.751  2.0904 -0.6883 -0.5220
14609TIP3   OH265317   4.062   3.019   3.838  0.7333  0.7119 -0.1550
14609TIP3    H165318   4.034   2.930   3.856  2.0868  0.1508 -0.7766
14609TIP3    H265319   4.140   3.031   3.891  2.9620  0.0884 -3.1571
14610TIP3   OH265320   0.835   4.944  15.941 -0.1547  0.3868  0.0329
14610TIP3    H165321   0.917   4.894  15.942  0.6586  1.6454 -2.0405
14610TIP3    H265322   0.768   4.880  15.965  1.0842 -1.3122 -0.9450
14611TIP3   OH265323   3.375   3.339   2.512 -0.5944  0.0271  0.1003
14611TIP3    H165324   3.441   3.271   2.498 -1.7510 -1.2982  0.9207
14611TIP3    H265325   3.393   3.404   2.445  1.9991  0.0470  0.7963
14612TIP3   OH265326   6.469   2.026   2.779  0.2797  0.2897  0.0725
14612TIP3    H165327   6.480   2.025   2.684  1.8122  1.8870  0.2115
14612TIP3    H265328   6.476   2.118   2.803 -1.4281  0.0554  1.6031
14613TIP3   OH265329   4.481   6.706  12.819  0.3719  0.3375  0.1103
14613TIP3    H165330   4.469   6.659  12.901 -0.8235  0.7944  0.1984
14613TIP3    H265331   4.420   6.779  12.823  0.8538  0.8034 -0.8535
14614TIP3   OH265332   1.461   3.051  16.206  0.2577 -0.2110 -0.0750
14614TIP3    H165333   1.490   3.019  16.291 -0.7350  2.1140  1.1738
14614TIP3    H265334   1.539   3.093  16.168  0.2652  0.2151  0.4117
14615TIP3   OH265335   5.195   0.183  11.551 -0.4943 -0.6205 -0.0835
14615TIP3    H165336   5.211   0.275  11.573 -1.3316  0.0693 -2.2010
14615TIP3    H265337   5.189   0.182  11.455 -0.3451 -2.9137 -0.1004
14616TIP3   OH265338   1.700   0.975  11.272  0.1815  0.4654 -0.2197
14616TIP3    H165339   1.606   0.973  11.256 -0.0876  0.2296  1.2870
14616TIP3    H265340   1.738   0.928  11.198 -0.8367  1.0563 -1.1260
14617TIP3   OH265341   2.743   0.244  16.491 -0.7629 -0.5028  0.8043
14617TIP3    H165342   2.759   0.247  16.397  0.0770 -1.6370  0.9065
14617TIP3    H265343   2.647   0.241  16.499 -0.8334 -0.4252 -0.0140
14618TIP3   OH265344   3.211   3.264   0.078  0.5530 -0.3700 -0.4802
14618TIP3    H165345   3.234   3.282  -0.013  0.4744  0.3626 -0.3633
14618TIP3    H265346   3.293   3.273   0.126  0.5706 -0.6292 -0.4642
14619TIP3   OH265347   2.640   3.107  13.778 -0.6591  0.1712 -0.5122
14619TIP3    H165348   2.663   3.019  13.749 -1.1739 -0.1367 -0.0043
14619TIP3    H265349   2.550   3.119  13.748 -1.5998 -0.5846  1.8650
14620TIP3   OH265350   6.041   1.730   3.576  0.8904 -0.1585 -0.6202
14620TIP3    H165351   6.022   1.737   3.670  0.6791 -0.4422 -0.6402
14620TIP3    H265352   6.042   1.821   3.545 -2.5498 -0.1856 -1.0231
14621TIP3   OH265353   4.003   3.584  16.847  0.0720  0.1915 -0.1204
14621TIP3    H165354   3.939   3.621  16.909  0.4078 -0.3959  0.5816
14621TIP3    H265355   4.046   3.514  16.896  1.2595  0.5846 -0.5943
14622TIP3   OH265356   1.317   1.392  11.866  0.5425 -0.3695 -0.3274
14622TIP3    H165357   1.318   1.485  11.890  0.2042 -0.1752 -1.0765
14622TIP3    H265358   1.296   1.347  11.948  3.1548  0.0476  0.6258
14623TIP3   OH265359   0.569   1.170   0.175 -0.0385 -0.2206 -0.2853
14623TIP3    H165360   0.535   1.095   0.128 -3.3328  1.1396 -0.2050
14623TIP3    H265361   0.527   1.246   0.134  0.1728  1.2885  2.1568
14624TIP3   OH265362   5.146   2.457  11.895 -0.1405  0.2738  0.4834
14624TIP3    H165363   5.112   2.405  11.823  1.5379  1.9442 -1.5798
14624TIP3    H265364   5.197   2.395  11.947  0.4447 -0.4910 -0.9802
14625TIP3   OH265365   3.818   1.136   0.679  0.2050 -0.3143  0.2419
14625TIP3    H165366   3.877   1.185   0.621  1.3050 -1.2915  0.5093
14625TIP3    H265367   3.748   1.106   0.622 -0.0860  0.9189 -0.0720
14626TIP3   OH265368   2.807   1.449   3.040 -0.0063  0.2006  0.4951
14626TIP3    H165369   2.866   1.516   3.076  0.5352 -0.3844  0.7042
14626TIP3    H265370   2.768   1.409   3.117  1.4289 -1.3056  0.4665
14627TIP3   OH265371   1.016   0.133   2.120 -0.3271 -0.8724  0.2472
14627TIP3    H165372   0.969   0.054   2.093 -1.4537  0.2445 -1.1656
14627TIP3    H265373   0.978   0.203   2.066  2.0693  0.2909 -0.0126
14628TIP3   OH265374   3.754   4.371  13.125 -0.2288  0.2223 -0.2315
14628TIP3    H165375   3.759   4.275  13.124  0.2315  0.2462 -0.4911
14628TIP3    H265376   3.663   4.390  13.104 -0.0110 -0.1395 -1.5579
14629TIP3   OH265377   3.255   5.444  11.268  0.2834  0.0338  0.9269
14629TIP3    H165378   3.285   5.525  11.227  0.5783 -0.8682 -0.7014
14629TIP3    H265379   3.326   5.417  11.325  0.7820  0.1654  0.3668
14630TIP3   OH265380   0.482   3.736   1.538  0.1468 -0.2786 -0.3901
14630TIP3    H165381   0.507   3.796   1.468  2.4586 -0.9765 -0.1964
14630TIP3    H265382   0.429   3.789   1.598  1.4039  1.3479 -0.6851
14631TIP3   OH265383   2.461   1.688   0.261  0.1112  0.6814 -0.3355
14631TIP3    H165384   2.388   1.711   0.318  0.5870  0.6706  0.2757
14631TIP3    H265385   2.501   1.772   0.239  0.0249  0.6726 -0.5286
14632TIP3   OH265386   6.284   4.271  11.634 -0.4762  0.1265 -0.0125
14632TIP3    H165387   6.274   4.358  11.595 -3.3002 -0.9358 -1.7938
14632TIP3    H265388   6.357   4.232  11.586 -0.3252  0.8811 -0.4078
14633TIP3   OH265389   3.035   0.883   4.506 -0.1672 -0.2614 -0.3977
14633TIP3    H165390   2.942   0.902   4.490  0.1902 -0.7667 -3.4713
14633TIP3    H265391   3.058   0.937   4.582 -2.5332  1.2611 -0.6964
14634TIP3   OH265392   6.649   6.233  11.705 -0.4111  0.2069 -0.1821
14634TIP3    H165393   6.673   6.261  11.616  1.2582 -0.4153  0.0380
14634TIP3    H265394   6.695   6.149  11.716 -1.3808 -0.1851  0.9203
14635TIP3   OH265395   0.729   2.810  17.198  0.4507  0.2382  0.1387
14635TIP3    H165396   0.802   2.764  17.238 -0.0942 -0.9121 -0.1703
14635TIP3    H265397   0.763   2.843  17.115  1.0083  0.9052  0.6314
14636TIP3   OH265398   4.935   6.456  13.512  0.1468 -0.0421  0.1694
14636TIP3    H165399   4.931   6.400  13.589 -0.6018  1.5822  1.3257
14636TIP3    H265400   4.920   6.396  13.438 -0.4792 -1.3803  1.3678
14637TIP3   OH265401   2.145   1.214  13.806  0.2215 -0.2596  0.2393
14637TIP3    H165402   2.189   1.264  13.737 -0.0381  1.5116  1.3134
14637TIP3    H265403   2.215   1.164  13.848  0.4921 -0.8013 -0.8450
14638TIP3   OH265404   3.190   2.595  13.095 -0.5128 -0.3694 -0.6311
14638TIP3    H165405   3.235   2.544  13.027 -1.3628 -0.2412 -1.2954
14638TIP3    H265406   3.227   2.562  13.177  0.1230 -0.9179 -1.1262
14639TIP3   OH265407   4.874   0.686   4.357  0.0589  0.2708  0.4248
14639TIP3    H165408   4.848   0.669   4.447  1.6707 -0.9446  0.6821
14639TIP3    H265409   4.916   0.772   4.359  0.9193 -0.1605  1.0109
14640TIP3   OH265410   5.662   0.005   2.710  0.1610  0.3432  0.2442
14640TIP3    H165411   5.718   0.083   2.710 -0.6947  0.9647  0.7590
14640TIP3    H265412   5.629  -0.000   2.800  1.6173 -1.6384  0.6960
14641TIP3   OH265413   4.167   0.290   5.689 -0.1602  0.4523 -0.0769
14641TIP3    H165414   4.220   0.250   5.620  0.3352  1.0869 -0.0711
14641TIP3    H265415   4.091   0.325   5.643  0.6456  1.7535 -0.4733
14642TIP3   OH265416   4.083   0.894  11.686  0.2272  0.0903 -1.0144
14642TIP3    H165417   4.128   0.830  11.742 -0.7347  1.5057  1.4804
14642TIP3    H265418   4.150   0.958  11.664  0.1558  0.6677  0.3460
14643TIP3   OH265419   4.775   3.935  15.318 -0.2120 -0.2722 -0.2425
14643TIP3    H165420   4.783   4.013  15.263  1.4398 -0.7904 -0.7633
14643TIP3    H265421   4.780   3.968  15.408 -2.3897  0.5159 -0.3830
14644TIP3   OH265422   2.199   3.669   0.118 -1.1553  0.0964  0.1194
14644TIP3    H165423   2.147   3.634   0.190  0.4649  1.0577  1.7918
14644TIP3    H265424   2.204   3.597   0.055 -1.8290 -1.0629  1.3593
14645TIP3   OH265425   6.428   4.736   0.618 -0.3661 -0.3438 -0.9403
14645TIP3    H165426   6.428   4.650   0.660  2.5396  0.4980  0.9191
14645TIP3    H265427   6.393   4.796   0.684 -2.7797 -0.0819 -2.3720
14646TIP3   OH265428   5.774   5.773   5.248 -0.0830 -0.0160 -0.2528
14646TIP3    H165429   5.867   5.774   5.229 -0.1128  0.0138 -0.4012
14646TIP3    H265430   5.767   5.807   5.337 -0.1621  2.4409 -1.1582
14647TIP3   OH265431   3.438   4.686   2.519 -0.1371 -0.2779  0.8962
14647TIP3    H165432   3.446   4.617   2.454 -1.0928  0.2410  0.2074
14647TIP3    H265433   3.523   4.729   2.520  0.0985 -0.7357  0.5044
14648TIP3   OH265434   3.060   4.481   1.406 -0.4654  0.2297 -0.1029
14648TIP3    H165435   3.051   4.394   1.366  0.1013  0.8234 -1.5537
14648TIP3    H265436   2.981   4.528   1.378 -0.7174  0.2342  0.5913
14649TIP3   OH265437   6.453   4.257  13.825 -0.3893 -0.5704  0.3430
14649TIP3    H165438   6.399   4.186  13.859  0.0370 -0.6252  0.9014
14649TIP3    H265439   6.526   4.263  13.886 -1.4736  1.7115  1.4943
14650TIP3   OH265440   5.046   3.767   5.091  0.1512  0.0616  0.5957
14650TIP3    H165441   5.016   3.759   5.000 -1.1645 -0.4009  1.0459
14650TIP3    H265442   5.125   3.713   5.096 -0.4257 -0.8493 -0.0009
14651TIP3   OH265443   6.791   6.300  14.983  0.3034 -0.2902 -0.5976
14651TIP3    H165444   6.795   6.345  14.899  0.0659  0.1119 -0.3986
14651TIP3    H265445   6.786   6.371  15.048 -0.6332 -0.6128 -0.3076
14652TIP3   OH265446   3.029   0.042  16.026 -0.3983 -1.0143 -0.2235
14652TIP3    H165447   3.000   0.128  16.057 -0.2724 -0.9902 -0.1754
14652TIP3    H265448   3.000   0.040  15.934  0.0979 -0.6915 -0.3906
14653TIP3   OH265449   4.113   2.535   2.706  0.4599  0.0598 -0.1773
14653TIP3    H165450   4.112   2.615   2.759  0.1490  0.0147 -0.1190
14653TIP3    H265451   4.166   2.558   2.629 -2.3208  1.3580 -1.7784
14654TIP3   OH265452   5.682   3.969   5.171 -0.0157 -0.5990  0.1128
14654TIP3    H165453   5.598   4.009   5.194  0.7404  1.0926  0.0138
14654TIP3    H265454   5.674   3.947   5.079 -0.6388 -1.1798  0.3030
14655TIP3   OH265455   4.706   6.476  12.201  0.1295  0.5417  0.1271
14655TIP3    H165456   4.750   6.496  12.284  0.5843 -0.0094  0.0228
14655TIP3    H265457   4.777   6.450  12.142 -0.1157  1.5648 -0.6343
14656TIP3   OH265458   6.349   6.490   1.242 -0.1389 -0.3197  0.1896
14656TIP3    H165459   6.367   6.415   1.185 -0.2451 -0.0199 -0.2371
14656TIP3    H265460   6.398   6.562   1.204  1.4754 -0.6031  1.6602
14657TIP3   OH265461   2.761   3.267   3.768 -1.1692 -0.2750 -0.6673
14657TIP3    H165462   2.699   3.340   3.774 -1.0154 -0.1459 -0.6406
14657TIP3    H265463   2.731   3.217   3.692 -2.5079 -1.3347  0.5359
14658TIP3   OH265464   0.423   1.324  14.999 -0.1268 -0.0639  0.2570
14658TIP3    H165465   0.398   1.288  14.914 -0.6368  0.2620  0.2637
14658TIP3    H265466   0.394   1.416  14.995  2.0790  0.6454 -0.1641
14659TIP3   OH265467   4.177   4.332   4.244  0.5576 -0.1720  0.7185
14659TIP3    H165468   4.264   4.328   4.282  1.4302  0.2679 -1.1758
14659TIP3    H265469   4.148   4.241   4.242  0.3316 -0.1756  2.7132
14660TIP3   OH265470   3.100   0.057  17.205 -0.5985 -0.2865  0.5262
14660TIP3    H165471   3.147   0.126  17.159 -0.9643 -1.2814 -1.3766
14660TIP3    H265472   3.083   0.094  17.292  1.2408  1.1232  0.3210
14661TIP3   OH265473   5.629   0.245   3.701 -0.2112 -0.5309  0.3559
14661TIP3    H165474   5.608   0.333   3.734  0.4895  0.0917 -0.8067
14661TIP3    H265475   5.682   0.261   3.623  3.0270 -2.0337  2.1837
14662TIP3   OH265476   2.566   5.051   1.429 -0.0256 -0.8973 -0.6511
14662TIP3    H165477   2.581   4.959   1.446 -2.9879 -1.3642 -0.1890
14662TIP3    H265478   2.601   5.097   1.505 -1.5876 -1.9319  0.7120
14663TIP3   OH265479   1.677   1.760  12.368 -0.4366  0.0780  0.2748
14663TIP3    H165480   1.666   1.855  12.369  0.6295  0.2253 -1.5021
14663TIP3    H265481   1.771   1.747  12.378 -0.0202 -0.6423 -3.7958
14664TIP3   OH265482   0.743   6.313  11.528 -0.3269  0.4594  0.0168
14664TIP3    H165483   0.695   6.395  11.518 -0.6052  0.0456 -2.3088
14664TIP3    H265484   0.675   6.246  11.532 -0.1124  0.3514  2.2870
14665TIP3   OH265485   2.752   4.446  16.591 -0.3795  0.0615  0.1814
14665TIP3    H165486   2.820   4.512  16.604  0.1304 -0.3575 -0.3280
14665TIP3    H265487   2.788   4.388  16.524 -1.4305  0.0920 -0.4111
14666TIP3   OH265488   2.455   3.759  16.817  0.1076  0.2063 -0.0415
14666TIP3    H165489   2.417   3.701  16.751 -1.9450  1.9016 -0.3623
14666TIP3    H265490   2.508   3.700  16.872 -3.0718 -2.2496  0.5104
14667TIP3   OH265491   0.720   5.594   6.292 -0.1003  0.8462  0.0702
14667TIP3    H165492   0.798   5.576   6.344  0.5580  1.9210 -0.5267
14667TIP3    H265493   0.695   5.509   6.256  1.8153  0.7532 -1.1393
14668TIP3   OH265494   0.586   0.491  12.264  0.5673 -0.4144  0.7688
14668TIP3    H165495   0.515   0.510  12.324 -0.2867  0.0740 -0.3788
14668TIP3    H265496   0.565   0.540  12.184  0.3111 -3.0619 -0.8733
14669TIP3   OH265497   2.790   1.009   6.216 -0.0406 -0.0598 -0.0289
14669TIP3    H165498   2.813   1.033   6.127  0.5384 -0.4461  0.0142
14669TIP3    H265499   2.699   1.036   6.226  0.0348  0.3915 -0.5888
14670TIP3   OH265500   4.118   2.464  16.673  0.3711 -0.1416  0.0060
14670TIP3    H165501   4.025   2.450  16.655  0.0469  0.7949  0.9161
14670TIP3    H265502   4.163   2.426  16.597 -0.7637 -0.3217 -0.5878
14671TIP3   OH265503   5.024   5.451   2.377  0.3173  0.2400  0.3422
14671TIP3    H165504   4.993   5.437   2.467 -1.0982  0.3946 -0.1031
14671TIP3    H265505   4.954   5.501   2.335  1.8287  1.8609 -0.3132
14672TIP3   OH265506   2.441   0.635   3.034  0.2335 -0.5385 -0.0652
14672TIP3    H165507   2.421   0.544   3.057 -0.1097 -0.7892 -1.3127
14672TIP3    H265508   2.532   0.648   3.062 -0.5297 -0.4737  2.4407
14673TIP3   OH265509   3.816   1.579  11.446 -0.0790  0.1991 -0.4300
14673TIP3    H165510   3.863   1.597  11.364  0.7289 -1.2524 -0.3063
14673TIP3    H265511   3.726   1.563  11.418  0.2143 -0.3948 -1.0763
14674TIP3   OH265512   2.496   6.528   5.115  0.9482 -0.3394  0.2257
14674TIP3    H165513   2.431   6.578   5.166 -0.0976 -1.0196 -0.4236
14674TIP3    H265514   2.464   6.438   5.117  0.8876 -0.3808 -1.6164
14675TIP3   OH265515   5.300   4.139   5.827 -0.0924  0.1197  0.0457
14675TIP3    H165516   5.324   4.196   5.754 -0.9264 -0.0268 -0.3515
14675TIP3    H265517   5.210   4.164   5.847 -0.6789 -1.5037 -0.5461
14676TIP3   OH265518   0.445   1.165  15.523 -0.4273  0.3888  0.3252
14676TIP3    H165519   0.443   1.186  15.430  2.5859  1.1178  0.3908
14676TIP3    H265520   0.417   1.246  15.566 -0.2753  0.5523  0.1212
14677TIP3   OH265521   2.345   1.563   2.521 -0.1316  0.2053 -0.2535
14677TIP3    H165522   2.351   1.538   2.613 -1.2514 -1.5525 -0.6422
14677TIP3    H265523   2.435   1.563   2.489 -0.0780 -3.3837 -0.2294
14678TIP3   OH265524   6.085   5.548  16.599 -0.0240 -0.0735  0.1278
14678TIP3    H165525   6.099   5.526  16.507 -0.3584 -0.0425  0.0702
14678TIP3    H265526   6.031   5.627  16.597  0.4305  0.2476  0.3453
14679TIP3   OH265527   3.228   5.976   5.927 -0.1998  0.2826  0.1712
14679TIP3    H165528   3.294   5.995   5.860  0.9519  0.2002  1.2693
14679TIP3    H265529   3.273   5.991   6.010 -2.1483  2.1795  0.9355
14680TIP3   OH265530   3.695   5.592   3.602  0.1810  0.3000  0.2490
14680TIP3    H165531   3.783   5.598   3.641  1.0337 -0.6620 -1.4541
14680TIP3    H265532   3.677   5.498   3.597 -1.0130  0.5055  0.7461
14681TIP3   OH265533   3.270   0.375   1.718 -0.0243  0.0805 -0.4418
14681TIP3    H165534   3.359   0.365   1.752 -0.3823  1.4364  0.9260
14681TIP3    H265535   3.281   0.380   1.623  1.2406 -0.9314 -0.3683
14682TIP3   OH265536   2.947   2.248   0.150 -0.3646  0.0480 -0.2045
14682TIP3    H165537   2.874   2.237   0.090 -1.4573 -0.5129  1.1991
14682TIP3    H265538   2.956   2.343   0.160 -0.6283  0.1242 -0.7031
14683TIP3   OH265539   6.039   6.727  16.371  0.1444 -0.2904  0.0858
14683TIP3    H165540   5.962   6.679  16.403 -0.5071 -0.4557 -1.6185
14683TIP3    H265541   6.080   6.666  16.309 -1.0627  1.5144 -2.6002
14684TIP3   OH265542   0.428   4.786  13.923  0.1683 -0.2889 -0.1267
14684TIP3    H165543   0.508   4.825  13.888  0.3019 -1.5474 -1.2546
14684TIP3    H265544   0.435   4.693  13.901 -0.9094 -0.6713  1.0863
14685TIP3   OH265545   2.755   3.250   2.021  0.6076 -0.6796  0.0427
14685TIP3    H165546   2.813   3.175   2.012 -0.0720 -1.1478 -0.5519
14685TIP3    H265547   2.667   3.212   2.021  0.1742  0.2223 -1.9125
14686TIP3   OH265548   6.384   4.006  13.470  0.1161 -0.0564  0.1870
14686TIP3    H165549   6.332   4.069  13.519  0.5611 -0.2955  0.9808
14686TIP3    H265550   6.325   3.974  13.401  0.3823  2.3766 -1.2306
14687TIP3   OH265551   6.318   4.959  12.510 -0.2076  0.0390  0.2747
14687TIP3    H165552   6.256   4.894  12.476  0.5307 -1.7322  2.2011
14687TIP3    H265553   6.401   4.913  12.514  0.9585  1.9734 -0.9428
14688TIP3   OH265554   0.857   6.564  11.358  0.0539  0.4994 -0.3694
14688TIP3    H165555   0.895   6.480  11.331  0.9203  0.7605  0.0021
14688TIP3    H265556   0.765   6.545  11.373  0.0745 -0.1984 -1.0978
14689TIP3   OH265557   1.045   0.334   3.708 -0.0168 -0.2977  0.1910
14689TIP3    H165558   1.078   0.344   3.618 -1.1104 -0.7572 -0.2720
14689TIP3    H265559   1.106   0.272   3.748  0.4886 -0.0832 -0.2372
14690TIP3   OH265560   2.023   3.939   4.091  0.6756 -0.3412 -0.5681
14690TIP3    H165561   2.062   3.872   4.035  0.5036 -2.6992  1.9798
14690TIP3    H265562   1.932   3.911   4.102  0.6044  0.2860  0.5453
14691TIP3   OH265563   4.884   2.733   4.982  0.2097  0.6780  0.2045
14691TIP3    H165564   4.897   2.718   4.888 -0.4781 -1.2540  0.3915
14691TIP3    H265565   4.962   2.695   5.023 -0.1323  0.2826  0.4945
14692TIP3   OH265566   6.743   2.741   3.077  0.1248 -0.1824 -0.3630
14692TIP3    H165567   6.719   2.823   3.033  2.8335  0.1397 -1.3275
14692TIP3    H265568   6.760   2.768   3.168 -0.5997  0.0192 -0.2799
14693TIP3   OH265569   4.974   6.669   3.875 -0.2489 -0.3691  0.2173
14693TIP3    H165570   4.932   6.721   3.807 -0.8687 -0.3507  0.6164
14693TIP3    H265571   4.990   6.731   3.947  0.9065 -0.2616 -0.1235
14694TIP3   OH265572   0.789   4.441   5.993  0.4938  0.2162  0.3157
14694TIP3    H165573   0.874   4.399   6.007  0.8417  0.6746 -0.3697
14694TIP3    H265574   0.797   4.525   6.038  0.7030  0.6113 -0.4562
14695TIP3   OH265575   4.787   6.229  13.402  0.3003  0.6977  0.1898
14695TIP3    H165576   4.695   6.255  13.410 -0.2911 -1.0437 -0.6158
14695TIP3    H265577   4.792   6.145  13.448  1.8773  1.5532  1.6532
14696TIP3   OH265578   1.243   2.028   1.946  0.0358 -0.3984  0.3299
14696TIP3    H165579   1.191   1.992   1.874 -0.5786 -1.2068  1.1666
14696TIP3    H265580   1.333   2.022   1.915 -0.2430 -0.4982 -0.4800
14697TIP3   OH265581   0.634   0.348  17.288 -0.3763 -0.0579  0.5466
14697TIP3    H165582   0.718   0.307  17.271 -0.4827  0.1784 -0.5713
14697TIP3    H265583   0.652   0.415  17.354  0.4728  0.5827 -0.3342
14698TIP3   OH265584   6.098   3.424  17.185 -0.1149 -0.7307 -0.8743
14698TIP3    H165585   6.015   3.410  17.231  0.0079 -1.0190 -0.7379
14698TIP3    H265586   6.144   3.489  17.238 -0.2989 -0.4928 -1.0087
14699TIP3   OH265587   2.578   0.508  16.558 -0.9129 -0.4054 -0.2440
14699TIP3    H165588   2.533   0.584  16.593 -1.8046 -1.8424  1.7907
14699TIP3    H265589   2.652   0.494  16.617 -1.7364 -2.1325  0.4116
14700TIP3   OH265590   2.176   2.363   6.281 -0.1448  0.2719 -0.8968
14700TIP3    H165591   2.182   2.278   6.324 -2.8070  1.2940  1.6988
14700TIP3    H265592   2.259   2.406   6.300 -0.0248 -0.5529  0.5043
14701TIP3   OH265593   3.005   3.506  11.807  0.6163 -0.1524 -0.0625
14701TIP3    H165594   2.946   3.456  11.751 -0.1719  0.9982 -0.2713
14701TIP3    H265595   3.064   3.550  11.746 -0.1403  0.9717 -0.0049
14702TIP3   OH265596   2.009   0.747  13.248 -0.3236 -0.0111 -0.3270
14702TIP3    H165597   2.051   0.698  13.318  0.0412  0.2364 -0.3712
14702TIP3    H265598   2.078   0.763  13.184 -0.2010  1.3872  0.1311
14703TIP3   OH265599   5.317   0.203  13.263  0.5109 -0.0879  0.4547
14703TIP3    H165600   5.292   0.114  13.236 -0.0799 -0.1704  1.2564
14703TIP3    H265601   5.320   0.199  13.359  2.7754  0.1566  0.4137
14704TIP3   OH265602   1.940   5.648   3.830 -0.5536 -0.3106  0.2187
14704TIP3    H165603   2.005   5.638   3.899  1.2175  1.4316 -1.1759
14704TIP3    H265604   1.923   5.558   3.801 -0.0935 -0.9215  1.7550
14705TIP3   OH265605   0.200   2.280  16.010  0.0123 -0.0260  0.3745
14705TIP3    H165606   0.235   2.196  15.979  0.1772  0.6278 -1.2301
14705TIP3    H265607   0.140   2.309  15.941 -1.3892  0.3415  1.7189
14706TIP3   OH265608   4.330   2.212  14.460  0.4348  0.0592 -0.0597
14706TIP3    H165609   4.401   2.276  14.460  0.5517 -0.0728  0.8095
14706TIP3    H265610   4.363   2.139  14.512 -1.0203  0.7588  1.8850
14707TIP3   OH265611   6.400   6.786  11.695  0.0041 -0.2601  0.3533
14707TIP3    H165612   6.328   6.776  11.757  0.5331 -0.4747  0.9392
14707TIP3    H265613   6.479   6.773  11.748  0.5073  0.9947 -0.0756
14708TIP3   OH265614   4.757   2.030  13.708  0.2340  0.2789 -0.0686
14708TIP3    H165615   4.712   1.965  13.655 -2.9524  0.9286  1.6840
14708TIP3    H265616   4.847   1.999  13.715 -0.2468 -1.7734 -2.6189
14709TIP3   OH265617   2.841   3.068  16.185  0.0780  0.3539 -0.1691
14709TIP3    H165618   2.891   3.052  16.264 -1.1619 -0.8440  0.3924
14709TIP3    H265619   2.752   3.086  16.215  0.3131  3.3440 -1.0945
14710TIP3   OH265620   0.753   2.072  15.097 -0.4194  0.7542 -0.3495
14710TIP3    H165621   0.689   2.120  15.045 -0.1338  1.2221 -0.2760
14710TIP3    H265622   0.787   2.137  15.159  1.2402  0.9473 -1.4074
14711TIP3   OH265623   0.260   0.700   3.900  0.2493 -0.6138  0.1557
14711TIP3    H165624   0.253   0.775   3.959  1.6686 -0.6157  0.3493
14711TIP3    H265625   0.231   0.626   3.953  1.5746 -0.6271  0.9039
14712TIP3   OH265626   3.904   3.702  12.847  0.4936 -1.1127  0.2246
14712TIP3    H165627   3.853   3.725  12.769 -0.3367  0.0712  1.1104
14712TIP3    H265628   3.970   3.770  12.854 -0.6968 -0.0688  1.6897
14713TIP3   OH265629   6.565   1.054  14.761 -0.0602 -0.5828 -0.6339
14713TIP3    H165630   6.602   0.967  14.743 -1.6340 -2.0030  2.6105
14713TIP3    H265631   6.474   1.037  14.784 -0.6727  2.0683 -0.9338
14714TIP3   OH265632   5.098   6.685  14.642  0.0019 -0.0226  0.2260
14714TIP3    H165633   5.026   6.641  14.597 -0.0556 -1.2373  1.4762
14714TIP3    H265634   5.124   6.624  14.712  0.8559  1.3126  1.0960
14715TIP3   OH265635   2.815   6.749   1.786  0.0376 -0.2008  0.1377
14715TIP3    H165636   2.804   6.784   1.698  1.1278  2.4877  1.0110
14715TIP3    H265637   2.894   6.696   1.781 -0.3311 -0.6721 -0.6914
14716TIP3   OH265638   4.051   1.226   2.404  0.8822  0.0113  0.6032
14716TIP3    H165639   4.123   1.202   2.462  1.7777  2.6189  0.6164
14716TIP3    H265640   4.078   1.193   2.318 -0.1305 -3.2280  1.4254
14717TIP3   OH265641   4.951   4.064   0.050  0.2645 -0.4887  0.5605
14717TIP3    H165642   4.961   4.083   0.143  1.5108  2.1011 -0.0513
14717TIP3    H265643   4.871   4.109   0.025 -0.0702 -1.1862  0.3694
14718TIP3   OH265644   1.741   2.807   0.905  0.1009  0.0456 -0.2012
14718TIP3    H165645   1.694   2.839   0.828 -0.9461  1.8076  1.1394
14718TIP3    H265646   1.725   2.874   0.972 -1.1427 -2.7030  2.3332
14719TIP3   OH265647   2.060   1.427   4.627  0.1307  0.2692  0.4909
14719TIP3    H165648   2.041   1.403   4.717  0.5845 -0.2734  0.4465
14719TIP3    H265649   2.155   1.442   4.625  0.0494  0.7819  0.2205
14720TIP3   OH265650   5.309   0.412   1.501  0.2879 -0.9571 -0.3370
14720TIP3    H165651   5.250   0.483   1.523 -0.8161 -1.8997 -0.1848
14720TIP3    H265652   5.293   0.346   1.569  2.7340 -0.5391  0.6766
14721TIP3   OH265653   5.370   0.944   2.021  0.2610  0.1689 -0.5159
14721TIP3    H165654   5.353   0.926   1.929  2.4847 -1.4497 -0.6517
14721TIP3    H265655   5.449   0.893   2.041 -0.8999 -0.5074  2.5916
14722TIP3   OH265656   5.752   3.627  15.651 -0.5353 -0.0250  0.7482
14722TIP3    H165657   5.755   3.538  15.614  1.2211  0.2022  0.2644
14722TIP3    H265658   5.828   3.631  15.709  0.2445  1.6054 -0.3346
14723TIP3   OH265659   5.773   0.748   6.231 -0.3939 -0.1785 -0.2210
14723TIP3    H165660   5.779   0.655   6.209  1.4868 -0.0721 -0.2101
14723TIP3    H265661   5.702   0.781   6.176 -0.4882 -1.4269 -0.8673
14724TIP3   OH265662   3.195   1.773  16.656  0.8871  0.2797 -0.2035
14724TIP3    H165663   3.167   1.696  16.607  2.0593  0.4186 -1.1027
14724TIP3    H265664   3.239   1.738  16.734  2.0060  0.0377 -0.9445
14725TIP3   OH265665   3.727   4.684   3.016 -0.9152  0.2081 -0.3093
14725TIP3    H165666   3.718   4.646   2.929 -1.3472 -0.2923 -0.0497
14725TIP3    H265667   3.734   4.779   3.000 -0.0068  0.0345 -0.9399
14726TIP3   OH265668   4.758   2.333   2.817 -0.3794 -0.1535 -0.1214
14726TIP3    H165669   4.810   2.375   2.886  0.2432  1.0699 -1.3075
14726TIP3    H265670   4.798   2.364   2.736 -1.0983 -1.5916 -1.0287
14727TIP3   OH265671   0.605   4.164  11.389  0.0868  0.4301  0.0768
14727TIP3    H165672   0.575   4.249  11.420 -2.0290 -0.7322  1.3441
14727TIP3    H265673   0.624   4.177  11.296 -2.8425  1.6195 -0.3947
14728TIP3   OH265674   4.222   1.457   4.082 -0.6219 -0.1800 -0.4693
14728TIP3    H165675   4.290   1.411   4.033 -1.5855 -2.2666  0.1356
14728TIP3    H265676   4.159   1.390   4.105 -0.6570  0.9047  2.8699
14729TIP3   OH265677   5.690   6.048  16.661  0.0472 -0.1066 -0.1440
14729TIP3    H165678   5.766   6.013  16.707 -0.9947 -1.0883  0.8595
14729TIP3    H265679   5.709   6.032  16.568  0.9577 -0.5280  0.1090
14730TIP3   OH265680   4.588   3.212   0.502 -0.0993  0.4982 -0.5629
14730TIP3    H165681   4.632   3.250   0.578  1.8726 -1.5973 -0.6098
14730TIP3    H265682   4.616   3.265   0.428  2.4593 -0.8336 -0.6009
14731TIP3   OH265683   1.816   5.992   2.516  0.2150 -0.8710  0.0294
14731TIP3    H165684   1.790   5.964   2.428  2.8459 -1.7907 -0.5294
14731TIP3    H265685   1.881   5.927   2.543  1.9120  1.2466  1.2689
14732TIP3   OH265686   0.224   4.944   2.690  0.5370  0.3503 -0.4458
14732TIP3    H165687   0.209   4.866   2.743 -0.0427  1.4660  1.0701
14732TIP3    H265688   0.313   4.934   2.657  1.2493  0.0726  1.5160
14733TIP3   OH265689   0.413   0.144   2.732 -0.3089 -0.4320 -0.5939
14733TIP3    H165690   0.483   0.207   2.749  0.4482 -1.2763 -0.4837
14733TIP3    H265691   0.363   0.182   2.660  0.6297 -0.0811 -1.0771
14734TIP3   OH265692   0.746   4.560  14.909 -0.3974 -0.4483 -0.6745
14734TIP3    H165693   0.832   4.520  14.921 -0.3858  0.0367  0.9794
14734TIP3    H265694   0.684   4.491  14.935 -0.5113 -0.7784 -1.8082
14735TIP3   OH265695   2.088   6.289   3.889 -0.1060  0.0094 -0.2362
14735TIP3    H165696   2.043   6.205   3.878  0.3618 -0.4762  1.4821
14735TIP3    H265697   2.061   6.320   3.976  0.2376  1.3326 -0.5874
14736TIP3   OH265698   1.130   2.084   0.871 -0.5873 -0.7262 -0.2454
14736TIP3    H165699   1.166   2.116   0.954 -0.9414  0.6163 -0.6004
14736TIP3    H265700   1.048   2.042   0.895 -0.3244 -1.0138  0.1731
14737TIP3   OH265701   0.375   2.399   1.355  0.2050  0.4122  0.5523
14737TIP3    H165702   0.451   2.423   1.302 -1.1882  0.6071 -1.4228
14737TIP3    H265703   0.411   2.347   1.427  2.1064 -0.2253 -0.8274
14738TIP3   OH265704   4.966   0.429   2.966 -0.3079 -0.5079 -0.4854
14738TIP3    H165705   5.020   0.380   3.027  0.3506 -0.5922 -1.1340
14738TIP3    H265706   5.002   0.517   2.967 -2.1972  0.2937  1.5413
14739TIP3   OH265707   1.802   4.588   5.742  0.2547  0.0631 -0.0011
14739TIP3    H165708   1.869   4.648   5.773 -0.2251  0.9162 -0.5870
14739TIP3    H265709   1.719   4.634   5.758 -0.0747 -0.1186 -1.1413
14740TIP3   OH265710   5.775   2.891   1.993 -0.4308  0.0828 -0.2866
14740TIP3    H165711   5.789   2.935   1.909 -0.0133  0.5047  0.0002
14740TIP3    H265712   5.831   2.938   2.054 -0.4898 -0.4293  0.1652
14741TIP3   OH265713   0.562   0.051   0.598 -0.1538 -0.5591 -0.0037
14741TIP3    H165714   0.611  -0.002   0.660 -1.5712 -0.9627  0.7973
14741TIP3    H265715   0.614   0.131   0.588 -0.0125 -0.3944  1.8524
14742TIP3   OH265716   1.941   0.992   1.721  0.2306 -0.1359 -0.1313
14742TIP3    H165717   1.943   0.993   1.625 -2.5460 -1.3019 -0.2483
14742TIP3    H265718   1.900   1.075   1.745 -0.6325 -0.5732 -0.0528
14743TIP3   OH265719   0.726   6.796   0.850 -0.0911  0.2683  0.5581
14743TIP3    H165720   0.724   6.716   0.798 -1.0455 -0.5217  1.7859
14743TIP3    H265721   0.708   6.767   0.939 -0.8062  1.8918  0.9559
14744TIP3   OH265722   5.992   4.445  14.077  0.2737  0.1331  0.4383
14744TIP3    H165723   5.967   4.529  14.039 -0.9533 -0.5512 -0.3159
14744TIP3    H265724   6.025   4.394  14.003 -0.5485 -0.6274  0.5949
14745TIP3   OH265725   6.096   0.590  14.498 -0.3897  0.2845 -0.1323
14745TIP3    H165726   6.105   0.513  14.554 -2.0773 -0.2299 -0.5667
14745TIP3    H265727   6.168   0.648  14.526  1.3833 -1.7683 -0.3535
14746TIP3   OH265728   0.643   4.756  14.760  0.6873 -0.7281 -0.6162
14746TIP3    H165729   0.679   4.837  14.797  1.2843 -1.4711  0.4581
14746TIP3    H265730   0.670   4.687  14.821 -0.2667 -1.6740 -1.2356
14747TIP3   OH265731   0.379   0.977   4.290 -0.1736  0.1340  1.1755
14747TIP3    H165732   0.318   1.027   4.344 -0.7871 -0.0940  0.6897
14747TIP3    H265733   0.436   1.043   4.250 -0.0481  0.3393  1.6871
14748TIP3   OH265734   3.076   5.966  11.838  0.6329  0.5772 -0.2985
14748TIP3    H165735   2.981   5.977  11.841  0.0813 -3.5756 -0.0038
14748TIP3    H265736   3.097   5.972  11.745  0.3270  2.8398 -0.2573
14749TIP3   OH265737   1.593   3.795  17.057 -0.0260  0.1303  0.4990
14749TIP3    H165738   1.592   3.726  17.123 -1.3473  1.3247  1.7700
14749TIP3    H265739   1.685   3.818  17.048  0.2202 -0.3667  1.6160
14750TIP3   OH265740   1.140   4.043   5.341 -0.0959  0.4326  0.0876
14750TIP3    H165741   1.067   4.102   5.356 -0.9994 -0.9181  1.2117
14750TIP3    H265742   1.108   3.982   5.274  1.0279  1.5184 -1.4760
14751TIP3   OH265743   0.270   2.062  15.889  0.3158  0.2103 -0.1897
14751TIP3    H165744   0.303   1.975  15.913  1.2325  1.2265  2.4138
14751TIP3    H265745   0.175   2.054  15.895  0.2453 -1.3314 -2.6795
14752TIP3   OH265746   3.363   1.681   1.829  0.1456 -0.3712  0.0282
14752TIP3    H165747   3.287   1.624   1.823  0.6612 -0.8164 -2.5107
14752TIP3    H265748   3.328   1.763   1.864 -1.4643 -0.6219 -0.9478
14753TIP3   OH265749   6.608   5.747   0.831  0.6974  0.0233  0.0720
14753TIP3    H165750   6.658   5.714   0.756  1.9090  1.2202  0.3480
14753TIP3    H265751   6.516   5.740   0.803  1.0673 -0.9653 -0.9289
14754TIP3   OH265752   0.878   2.917  16.720  0.7009  0.2604  0.0205
14754TIP3    H165753   0.787   2.943  16.712  0.6761 -0.3909 -2.1740
14754TIP3    H265754   0.923   2.996  16.752 -0.5718  0.6761  0.7961
14755TIP3   OH265755   5.643   5.193   1.315 -0.0912  0.1690  0.5974
14755TIP3    H165756   5.636   5.111   1.265 -1.1392  1.0538 -0.7207
14755TIP3    H265757   5.556   5.233   1.308  0.5079  1.5598  0.9621
14756TIP3   OH265758   5.599   3.350  15.956  0.6234  0.8726  0.2866
14756TIP3    H165759   5.656   3.416  15.996 -0.6736  1.0305  1.9396
14756TIP3    H265760   5.540   3.400  15.901  1.2509  0.8370 -0.4202
14757TIP3   OH265761   1.979   6.181   2.173 -0.6537 -0.2087  0.1766
14757TIP3    H165762   2.010   6.090   2.175 -0.6911 -0.2431 -0.6077
14757TIP3    H265763   1.885   6.173   2.156 -0.4721  0.0029 -0.9852
14758TIP3   OH265764   0.807   5.819   4.842 -0.3777 -0.1483 -0.1130
14758TIP3    H165765   0.785   5.907   4.813 -0.2797 -0.7489 -2.1113
14758TIP3    H265766   0.897   5.825   4.875 -0.7461  0.7005  0.7416
14759TIP3   OH265767   2.415   1.397  12.951 -0.1459  0.1390 -0.4699
14759TIP3    H165768   2.440   1.467  13.012  2.0360 -0.9723 -0.0019
14759TIP3    H265769   2.396   1.442  12.869  0.8518  1.3280 -0.0701
14760TIP3   OH265770   1.464   4.661   3.879  0.3572 -0.0425 -0.5670
14760TIP3    H165771   1.482   4.751   3.854 -0.7796 -0.0120 -1.2825
14760TIP3    H265772   1.450   4.664   3.974  0.3618  0.5242 -0.5876
14761TIP3   OH265773   5.467   2.885   1.000  0.1364 -0.5137  0.0876
14761TIP3    H165774   5.452   2.950   0.931 -0.1164  0.0188  0.6354
14761TIP3    H265775   5.380   2.852   1.021  0.3361 -1.5186 -0.6528
14762TIP3   OH265776   4.392   3.012   5.292  0.0988  0.7161  0.3365
14762TIP3    H165777   4.370   2.920   5.281  1.7267  0.6489 -3.1176
14762TIP3    H265778   4.484   3.012   5.320  0.2008  1.3026  0.0080
14763TIP3   OH265779   2.879   3.997  12.619  0.5333 -0.6508  0.6544
14763TIP3    H165780   2.891   3.988  12.525  0.9896  0.6324  0.5777
14763TIP3    H265781   2.784   4.006  12.631  0.4810 -0.7627  0.3149
14764TIP3   OH265782   6.347   6.424   3.653  0.1049  0.0147  0.4546
14764TIP3    H165783   6.259   6.392   3.675  0.8110 -1.9936  0.4468
14764TIP3    H265784   6.393   6.425   3.737  0.6651 -0.8570  0.1646
14765TIP3   OH265785   5.107   5.276  12.221 -0.2139 -0.0829 -0.4447
14765TIP3    H165786   5.110   5.368  12.245  0.4997  0.5964 -2.9868
14765TIP3    H265787   5.028   5.267  12.168  0.1066 -0.7904 -0.8046
14766TIP3   OH265788   5.948   3.976   1.973  0.0930  0.2186 -0.1159
14766TIP3    H165789   5.877   3.912   1.984  0.1945  0.1961  0.4087
14766TIP3    H265790   6.022   3.923   1.943  0.1686  0.0951  0.2902
14767TIP3   OH265791   3.059   3.865   0.028  0.0287 -0.5498 -1.1531
14767TIP3    H165792   3.076   3.774   0.007  0.3824 -0.3265 -1.8207
14767TIP3    H265793   3.073   3.912  -0.054 -0.4751  0.0625 -0.8922
14768TIP3   OH265794   2.786   4.696   2.813  0.1514 -0.1173 -0.7104
14768TIP3    H165795   2.778   4.791   2.800 -0.4944 -0.1402 -0.5379
14768TIP3    H265796   2.876   4.675   2.790  0.2478  0.5179 -0.9074
14769TIP3   OH265797   1.916   2.708   5.904  0.0774  0.2259  0.7431
14769TIP3    H165798   1.939   2.722   5.812  0.9992 -2.1161  0.5848
14769TIP3    H265799   1.884   2.794   5.934 -1.6190  0.6682 -2.1273
14770TIP3   OH265800   3.388   3.072   5.990 -0.5359 -0.3787 -0.4252
14770TIP3    H165801   3.293   3.066   6.000 -0.4390  0.3490  1.0013
14770TIP3    H265802   3.419   2.982   6.002 -0.8787 -0.3108  0.9746
14771TIP3   OH265803   0.797   1.648   6.293 -0.0810 -0.4414 -0.2244
14771TIP3    H165804   0.810   1.575   6.354  1.3882 -0.6601 -0.7725
14771TIP3    H265805   0.709   1.635   6.259 -0.1826 -1.4289  0.3828
14772TIP3   OH265806   5.587   1.531  11.457  0.6047 -0.1173  0.1404
14772TIP3    H165807   5.676   1.566  11.447  0.2934  0.2335 -1.4460
14772TIP3    H265808   5.587   1.451  11.404 -1.3527  2.2966 -3.6922
14773TIP3   OH265809   5.379   2.302  13.836 -0.2158  0.3320 -0.2188
14773TIP3    H165810   5.302   2.268  13.791 -0.2996 -0.7992  0.7581
14773TIP3    H265811   5.364   2.397  13.839 -0.8370  0.2853 -1.3765
14774TIP3   OH265812   4.752   4.428   5.118  0.5975  0.1902  0.2023
14774TIP3    H165813   4.815   4.364   5.153 -0.2079 -0.4832  0.4347
14774TIP3    H265814   4.760   4.503   5.178  1.4192  0.2465  0.0317
14775TIP3   OH265815   5.828   6.333   2.747 -0.8886 -0.7416 -0.5629
14775TIP3    H165816   5.736   6.340   2.719 -1.1327 -1.1505  0.1257
14775TIP3    H265817   5.834   6.393   2.822 -0.3725 -0.0602 -1.1421
14776TIP3   OH265818   2.571   4.902   5.623  0.6767 -0.3221 -0.1991
14776TIP3    H165819   2.514   4.979   5.630  3.4098  1.7047  0.6914
14776TIP3    H265820   2.575   4.883   5.529 -0.3367  0.4033 -0.3923
14777TIP3   OH265821   6.492   2.321  11.937 -0.0542 -0.2553  0.6504
14777TIP3    H165822   6.420   2.356  11.886 -0.3255 -0.9757  0.5388
14777TIP3    H265823   6.455   2.306  12.024  0.4333  1.0742  1.0977
14778TIP3   OH265824   4.813   0.431  11.010 -0.4921  0.5416 -0.5967
14778TIP3    H165825   4.903   0.405  11.029 -0.6970 -1.5886 -2.4103
14778TIP3    H265826   4.759   0.368  11.059 -1.0213  1.8543  0.5520
14779TIP3   OH265827   5.107   4.098   1.363  0.2370  0.2208 -0.0491
14779TIP3    H165828   5.156   4.176   1.387 -0.0821 -0.2139  2.0876
14779TIP3    H265829   5.041   4.130   1.300  1.3809  1.2933 -0.7233
14780TIP3   OH265830   5.346   3.111  11.622 -0.4664  0.5708  0.4919
14780TIP3    H165831   5.409   3.092  11.692 -0.5546  0.2885  0.4939
14780TIP3    H265832   5.274   3.051  11.638  0.0405 -0.3254 -0.5388
14781TIP3   OH265833   0.374   4.338  14.453  0.5263 -0.3609 -0.4686
14781TIP3    H165834   0.446   4.342  14.517  0.7092 -0.7807 -0.6510
14781TIP3    H265835   0.342   4.429  14.448 -0.3267 -0.5493  1.1642
14782TIP3   OH265836   0.903   3.588   1.317  0.0972 -0.4194  0.5942
14782TIP3    H165837   0.851   3.651   1.268  1.6709  0.0293 -0.5302
14782TIP3    H265838   0.938   3.529   1.251  1.2532 -0.5325  1.2971
14783TIP3   OH265839   6.014   3.572  13.110 -0.3732  1.0583  0.4085
14783TIP3    H165840   5.921   3.554  13.099  0.2722 -1.8609 -0.8267
14783TIP3    H265841   6.041   3.518  13.184  0.2531  2.2780  1.0905
14784TIP3   OH265842   5.269   2.590  16.534  0.1139 -0.1543 -0.4873
14784TIP3    H165843   5.240   2.545  16.613  0.4915  0.7237  0.1638
14784TIP3    H265844   5.255   2.682  16.552  0.1164  0.0523 -1.4875
14785TIP3   OH265845   2.275   6.155  12.314 -0.0902  0.7798  0.4429
14785TIP3    H165846   2.300   6.193  12.398 -1.4449  0.4534  1.0138
14785TIP3    H265847   2.196   6.203  12.289  0.6924  1.3513 -0.9921
14786TIP3   OH265848   0.338   2.215   5.608  0.3834  0.7860 -0.0106
14786TIP3    H165849   0.331   2.311   5.609  4.0933  1.2245 -4.1472
14786TIP3    H265850   0.335   2.192   5.516 -1.4386 -3.2963  0.9540
14787TIP3   OH265851   4.374   1.693   1.461  0.6331  0.2588  0.4124
14787TIP3    H165852   4.406   1.782   1.477  0.9437 -0.0195  1.3657
14787TIP3    H265853   4.393   1.678   1.368 -1.6623  2.0818 -0.4189
14788TIP3   OH265854   1.133   0.063  14.873  0.3076  0.0591  0.1104
14788TIP3    H165855   1.164   0.107  14.794 -2.6743  1.1031 -0.5207
14788TIP3    H265856   1.163   0.119  14.945  0.3409  0.7522 -0.4387
14789TIP3   OH265857   0.001   4.115   5.442 -0.2772  0.4381  0.0894
14789TIP3    H165858  -0.017   4.128   5.349 -0.0557  0.7647  0.0916
14789TIP3    H265859  -0.007   4.202   5.481 -3.4040 -0.1672  0.9037
14790TIP3   OH265860   5.880   3.806   4.548 -0.0297 -0.5260  0.1970
14790TIP3    H165861   5.796   3.834   4.512 -0.9333  0.0276  2.5962
14790TIP3    H265862   5.863   3.795   4.642  2.1714 -2.0377  0.4511
14791TIP3   OH265863   4.382   6.708   5.789  0.1534  0.0229  0.5842
14791TIP3    H165864   4.401   6.657   5.710  0.5925  0.0224  0.6855
14791TIP3    H265865   4.287   6.706   5.797 -0.0152  1.3635 -0.8283
14792TIP3   OH265866   4.551   6.405   6.285 -0.1733 -0.6400 -0.4822
14792TIP3    H165867   4.643   6.381   6.290  0.0428 -0.3084 -2.3378
14792TIP3    H265868   4.507   6.345   6.346  1.2224 -1.0174  0.1641
14793TIP3   OH265869   2.038   4.301  16.466  0.3265 -0.0703 -0.4500
14793TIP3    H165870   1.969   4.359  16.433  0.6917  0.8823  0.4200
14793TIP3    H265871   1.992   4.226  16.503 -0.2759  0.8625  0.7123
14794TIP3   OH265872   5.449   4.634   3.058 -0.3116 -0.5252  0.3361
14794TIP3    H165873   5.381   4.590   3.109 -1.1245 -0.1701 -0.4307
14794TIP3    H265874   5.512   4.663   3.123 -1.7555  0.6559  1.2420
14795TIP3   OH265875   3.251   1.830  15.473  0.6216  0.4103  0.0134
14795TIP3    H165876   3.305   1.766  15.425 -0.6354  0.7577 -1.9216
14795TIP3    H265877   3.256   1.909  15.419 -2.4596  0.2070 -0.6313
14796TIP3   OH265878   1.131   0.737   2.901 -0.4233  0.5984  0.2600
14796TIP3    H165879   1.186   0.811   2.927  2.5788 -1.3637 -0.2422
14796TIP3    H265880   1.161   0.714   2.813 -2.4150 -0.2205 -0.2376
14797TIP3   OH265881   3.361   4.819   3.188 -0.4764  0.1153  0.0761
14797TIP3    H165882   3.340   4.725   3.185  0.1958 -0.0386  0.2050
14797TIP3    H265883   3.383   4.835   3.280 -0.5399  0.3919  0.0412
14798TIP3   OH265884   5.128   6.740   3.571  0.3737  0.4397  0.4453
14798TIP3    H165885   5.112   6.775   3.658 -2.9681  0.4448 -0.1082
14798TIP3    H265886   5.125   6.645   3.582 -1.0931  0.4384  0.2167
14799TIP3   OH265887   5.752   0.921  12.471  0.3844 -0.0230  0.0972
14799TIP3    H165888   5.749   0.931  12.376 -2.3059 -0.6055  0.0573
14799TIP3    H265889   5.751   1.011  12.505 -0.1485  0.1799 -0.4431
14800TIP3   OH265890   3.311   2.353  12.914  0.3639  0.2017 -0.5418
14800TIP3    H165891   3.392   2.376  12.870  0.0454  1.1671 -0.6491
14800TIP3    H265892   3.338   2.323  13.001  0.9793 -1.6247 -1.3615
14801TIP3   OH265893   6.172   3.841   3.587 -0.3334  0.2789  0.4605
14801TIP3    H165894   6.092   3.790   3.570  0.5593 -1.1831  0.5892
14801TIP3    H265895   6.169   3.859   3.681  0.4160 -1.4054  0.8261
14802TIP3   OH265896   3.963   2.098  13.718  0.3297  0.4859 -0.5155
14802TIP3    H165897   3.915   2.177  13.744 -0.1422  0.5281 -1.4796
14802TIP3    H265898   4.055   2.122  13.729  0.2484  1.8066 -2.5022
14803TIP3   OH265899   5.256   6.112   5.468 -0.9163 -0.1990  0.4385
14803TIP3    H165900   5.311   6.183   5.435  0.1954 -0.7232  1.1431
14803TIP3    H265901   5.258   6.046   5.399  0.1097 -0.6170  0.8613
14804TIP3   OH265902   6.466   5.563  12.126  0.3560 -0.0952 -0.5099
14804TIP3    H165903   6.390   5.508  12.145  0.3735  0.4110  1.1628
14804TIP3    H265904   6.525   5.506  12.077 -1.3846 -0.2777 -2.4315
14805TIP3   OH265905   4.611   5.935  10.938  0.6516  0.0939  0.6202
14805TIP3    H165906   4.534   5.915  10.886 -0.0486  0.2825  1.5623
14805TIP3    H265907   4.634   5.852  10.980  0.6098  0.1722  0.7977
14806TIP3   OH265908   3.797   1.739   3.881 -0.3025  0.0672 -0.6970
14806TIP3    H165909   3.800   1.659   3.828  0.0289  0.0946 -0.7159
14806TIP3    H265910   3.853   1.720   3.956 -2.6181 -0.8617  0.8592
14807TIP3   OH265911   5.807   0.606  16.453  0.8911 -0.1387  0.0960
14807TIP3    H165912   5.865   0.587  16.380  1.4082  0.2505  0.4006
14807TIP3    H265913   5.854   0.672  16.505 -0.0182  0.5249  0.0948
14808TIP3   OH265914   5.748   2.490  13.720  0.4574 -0.0486 -0.1432
14808TIP3    H165915   5.718   2.400  13.706  1.7190 -0.1132 -2.6782
14808TIP3    H265916   5.667   2.542  13.724 -0.2168 -1.0865 -0.1663
14809TIP3   OH265917   1.957   6.132  16.743  0.5206  0.1632 -0.3578
14809TIP3    H165918   2.015   6.171  16.808  0.2009  0.2407 -0.1193
14809TIP3    H265919   2.010   6.129  16.663  1.3536 -1.1276  0.2238
14810TIP3   OH265920   6.382   3.544   0.565  0.2115 -0.0246 -0.4780
14810TIP3    H165921   6.418   3.457   0.582  0.1076  0.0384  0.0647
14810TIP3    H265922   6.354   3.576   0.650 -2.2055 -0.5517 -1.0381
14811TIP3   OH265923   0.627   1.149   4.089  0.3934 -0.0194  0.2421
14811TIP3    H165924   0.574   1.152   4.009  0.3248 -4.1916  0.0303
14811TIP3    H265925   0.570   1.184   4.157 -0.8391  0.2755 -0.9181
14812TIP3   OH265926   6.602   0.671   4.971  0.2015  0.1386  0.2636
14812TIP3    H165927   6.684   0.699   5.011  1.6059  1.3174 -3.2773
14812TIP3    H265928   6.625   0.591   4.924 -0.3087  1.2097 -1.8615
14813TIP3   OH265929   5.753   3.346  15.707  0.0142  0.8132 -0.2534
14813TIP3    H165930   5.750   3.334  15.802 -0.8537  2.7434 -0.0264
14813TIP3    H265931   5.695   3.278  15.672 -0.8742  1.0751  0.6909
14814TIP3   OH265932   4.105   1.269  15.291  0.2986  0.2251  0.0579
14814TIP3    H165933   4.019   1.310  15.280  0.9126  1.5824  0.1532
14814TIP3    H265934   4.103   1.193  15.234 -0.6957  0.6803 -0.5302
14815TIP3   OH265935   1.739   1.159  15.198  0.1177  0.0832 -0.2555
14815TIP3    H165936   1.693   1.083  15.231  1.4514 -0.6359 -0.0204
14815TIP3    H265937   1.695   1.234  15.238  0.5265 -0.6844  1.6607
14816TIP3   OH265938   5.006   6.016   1.186 -0.4171 -0.6906 -0.6560
14816TIP3    H165939   4.984   6.096   1.139 -0.0454  0.1072  0.5101
14816TIP3    H265940   5.039   6.046   1.271  1.3355 -2.0090 -0.8476
14817TIP3   OH265941   0.041   1.571  14.768 -0.0893  0.4609 -0.2107
14817TIP3    H165942  -0.017   1.579  14.692 -2.1554 -0.0814  1.2485
14817TIP3    H265943  -0.018   1.550  14.841  1.7760  1.4107  1.6357
14818TIP3   OH265944   3.541   6.613   2.367  0.2746  0.3728 -0.2644
14818TIP3    H165945   3.587   6.676   2.423  3.3399 -1.6332 -0.4037
14818TIP3    H265946   3.558   6.528   2.408  0.3528 -0.8516 -2.7361
14819TIP3   OH265947   6.239   0.820  13.851  0.4173 -0.2334  0.0092
14819TIP3    H165948   6.290   0.890  13.809  0.3094  0.6082  1.2698
14819TIP3    H265949   6.287   0.799  13.931 -0.6100 -0.2124  0.6439
14820TIP3   OH265950   3.019   6.267  16.957 -0.4266 -0.3240 -0.5172
14820TIP3    H165951   2.958   6.272  17.031  0.0655 -1.8630  0.0159
14820TIP3    H265952   3.106   6.265  16.997 -0.0731  0.3881 -1.2175
14821TIP3   OH265953   1.253   2.626   2.279 -0.2015 -0.2379  0.2631
14821TIP3    H165954   1.289   2.537   2.283  0.3272 -0.0074  0.5541
14821TIP3    H265955   1.228   2.637   2.187 -1.2680 -1.0830  0.4471
14822TIP3   OH265956   3.637   1.951   1.934  0.2767  0.0569 -0.2344
14822TIP3    H165957   3.610   1.976   1.845 -1.1613  0.6529  0.3502
14822TIP3    H265958   3.656   1.858   1.928  0.4584  0.1549 -1.2449
14823TIP3   OH265959   2.020   2.757   5.655 -0.0400  0.1212 -0.0148
14823TIP3    H165960   2.094   2.798   5.699 -1.8029  1.3196  1.9146
14823TIP3    H265961   1.993   2.821   5.588 -2.2606  1.8432  2.4368
14824TIP3   OH265962   0.006   2.398   5.378 -0.0507 -1.0749 -0.4137
14824TIP3    H165963   0.035   2.355   5.298  0.5015 -1.8543  0.1909
14824TIP3    H265964  -0.036   2.478   5.349  0.8181 -0.9864 -1.4310
14825TIP3   OH265965   5.004   2.136   4.571  0.3148 -0.4752 -0.0956
14825TIP3    H165966   4.987   2.206   4.633 -0.9706  1.5470 -2.6362
14825TIP3    H265967   5.094   2.150   4.542 -0.7086  1.7091 -2.4314
14826TIP3   OH265968   5.386   0.060  15.492 -0.0284 -0.1329 -0.3240
14826TIP3    H165969   5.405   0.022  15.578  1.3129  2.0181  0.3756
14826TIP3    H265970   5.361   0.150  15.511  0.0319  0.2961 -2.1930
14827TIP3   OH265971   4.340   4.076   3.431  0.2687  0.0109 -0.1576
14827TIP3    H165972   4.300   4.081   3.518  1.2735  0.6463  0.2751
14827TIP3    H265973   4.428   4.043   3.447  0.0266 -1.0995 -1.0791
14828TIP3   OH265974   1.110   0.231   1.209 -0.6737 -0.1363  0.4598
14828TIP3    H165975   1.026   0.229   1.255 -0.0975 -0.6409  1.4892
14828TIP3    H265976   1.156   0.306   1.246 -1.2153  1.0305 -1.1179
14829TIP3   OH265977   1.032   1.923   2.513 -0.2571 -0.6690  0.0934
14829TIP3    H165978   1.033   1.869   2.592 -0.5101 -0.0095  0.5504
14829TIP3    H265979   0.955   1.895   2.464 -0.6415 -0.3964  0.5508
14830TIP3   OH265980   1.068   3.544   6.110 -0.3379  0.4235  0.5184
14830TIP3    H165981   1.112   3.623   6.140  0.2940  0.1563  0.3037
14830TIP3    H265982   1.000   3.575   6.051 -0.3572  0.8286  0.7520
14831TIP3   OH265983   5.667   4.913  13.417 -0.1234 -0.1717  0.2386
14831TIP3    H165984   5.670   4.958  13.501  2.8394  0.6157 -0.2115
14831TIP3    H265985   5.669   4.820  13.439  1.9230  0.0418  1.0531
14832TIP3   OH265986   3.668   5.402  13.884 -0.0573  0.0332  0.3631
14832TIP3    H165987   3.710   5.328  13.929 -0.1474  0.6239  1.4473
14832TIP3    H265988   3.577   5.375  13.874  0.6409 -1.4836 -2.4947
14833TIP3   OH265989   3.616   0.090  12.830 -0.6506 -0.0448  0.0209
14833TIP3    H165990   3.685   0.087  12.896  0.7253  1.6749 -1.2958
14833TIP3    H265991   3.600  -0.001  12.807  2.4621 -0.3819 -0.9380
14834TIP3   OH265992   3.391   5.196   3.824  0.3299 -0.2746 -0.3137
14834TIP3    H165993   3.340   5.155   3.894  1.3597  1.3863  1.4534
14834TIP3    H265994   3.329   5.254   3.780  0.3143  0.7286  0.9847
14835TIP3   OH265995   3.530   0.775  15.442  0.0316 -0.1672  0.7938
14835TIP3    H165996   3.534   0.806  15.352 -0.9580 -1.9489  0.1192
14835TIP3    H265997   3.515   0.681  15.435 -0.1285 -0.3244  2.8180
14836TIP3   OH265998   3.609   0.927   5.283  0.3777  0.3377  0.3251
14836TIP3    H165999   3.568   0.924   5.196 -2.2157 -0.6159  1.5022
14836TIP3    H266000   3.552   0.984   5.334  1.0037 -0.3359  1.8090
14837TIP3   OH266001   3.473   2.848   4.177 -0.4077  0.1373  0.0342
14837TIP3    H166002   3.476   2.848   4.081  2.4279 -1.3634  0.0765
14837TIP3    H266003   3.510   2.764   4.203  1.1696  1.5065  2.4748
14838TIP3   OH266004   5.105   5.593   3.107 -0.3340 -0.3483  0.6010
14838TIP3    H166005   5.099   5.685   3.130 -0.7420 -0.5715  1.3973
14838TIP3    H266006   5.070   5.546   3.183 -0.1896 -1.1556  0.1821
14839TIP3   OH266007   4.346   6.347   5.113 -0.7951 -0.5941  0.1946
14839TIP3    H166008   4.389   6.386   5.037  0.3864 -0.2624  1.0239
14839TIP3    H266009   4.256   6.331   5.084 -0.5199  0.0998 -1.0719
14840TIP3   OH266010   6.797   4.435   5.136  0.1060  0.0955 -0.3936
14840TIP3    H166011   6.828   4.525   5.141 -2.1445  0.8285  1.1567
14840TIP3    H266012   6.781   4.421   5.042 -0.6139  1.7224 -0.5373
14841TIP3   OH266013   2.206   4.525   5.832 -0.2172 -0.0076  0.4327
14841TIP3    H166014   2.247   4.445   5.867 -0.6382 -0.8977 -1.0454
14841TIP3    H266015   2.279   4.574   5.795  0.0321  0.2503  1.2599
14842TIP3   OH266016   2.073   6.006   6.859  0.1697 -0.4094  0.0760
14842TIP3    H166017   2.093   5.914   6.875  0.0536 -0.4777 -0.1733
14842TIP3    H266018   1.984   6.017   6.892 -0.2120 -0.6424 -0.8576
14843TIP3   OH266019   1.804   1.998  15.639 -0.0799  0.0660  0.2407
14843TIP3    H166020   1.735   1.969  15.579  0.0239 -0.1867  0.2454
14843TIP3    H266021   1.774   2.084  15.670 -0.4169 -0.0681  0.2846
14844TIP3   OH266022   0.505   1.850   2.788 -0.0320  0.1762  0.3373
14844TIP3    H166023   0.534   1.793   2.859  0.5234  0.8901  0.6839
14844TIP3    H266024   0.536   1.937   2.812  0.7307  0.3167 -1.1151
14845TIP3   OH266025   2.956   1.869   4.528  0.1702  0.3416 -0.2501
14845TIP3    H166026   2.933   1.847   4.438 -1.2017  0.3621  0.0771
14845TIP3    H266027   2.872   1.889   4.570  1.0433  3.1993  0.2740
14846TIP3   OH266028   4.339   6.782   3.445 -0.6365 -0.3559  0.0562
14846TIP3    H166029   4.323   6.856   3.386  0.4442 -0.2314 -0.0768
14846TIP3    H266030   4.400   6.815   3.510  0.1387 -1.2369 -0.2187
14847TIP3   OH266031   2.319   0.246   6.632  0.3482  0.1009  0.3769
14847TIP3    H166032   2.241   0.213   6.587  1.6215 -1.1364 -0.9735
14847TIP3    H266033   2.327   0.337   6.601  0.2270 -0.2040 -0.5647
14848TIP3   OH266034   3.855   6.632  15.866 -0.2122  0.0014  0.3515
14848TIP3    H166035   3.767   6.669  15.857 -0.4399  0.0724  2.5938
14848TIP3    H266036   3.873   6.635  15.960  2.4693  0.6168 -0.1269
14849TIP3   OH266037   1.336   4.357  13.418 -0.1959 -0.1464 -0.3974
14849TIP3    H166038   1.411   4.380  13.363  0.4806 -1.1839  0.0780
14849TIP3    H266039   1.276   4.310  13.360  0.3587 -0.9289 -0.3408
14850TIP3   OH266040   3.453   2.769   3.882  0.0801  0.0269  0.2666
14850TIP3    H166041   3.428   2.859   3.861 -0.3416 -0.2062 -0.2444
14850TIP3    H266042   3.547   2.765   3.862  0.0744  0.3189  0.1761
14851TIP3   OH266043   1.566   6.331  11.407 -0.1095  0.1222 -0.4557
14851TIP3    H166044   1.516   6.384  11.346  0.7366 -1.6522 -2.7579
14851TIP3    H266045   1.504   6.262  11.434 -0.4752  0.8877  0.7283
14852TIP3   OH266046   0.861   5.526   3.134  0.2268  0.5964 -0.7100
14852TIP3    H166047   0.829   5.590   3.197  1.3734 -0.3140  0.8302
14852TIP3    H266048   0.832   5.442   3.168  1.4385  0.0378 -1.0093
14853TIP3   OH266049   2.453   6.357  13.167  0.3032 -0.1502 -0.1262
14853TIP3    H166050   2.447   6.278  13.221 -0.7493 -0.7554 -1.1163
14853TIP3    H266051   2.396   6.339  13.092  0.5557  1.2980 -0.6709
14854TIP3   OH266052   2.345   2.964  14.306 -0.4489  0.6317 -0.4581
14854TIP3    H166053   2.281   2.990  14.239  0.2543  0.1834 -1.3169
14854TIP3    H266054   2.430   2.984  14.267  0.0942 -2.4059 -0.9373
14855TIP3   OH266055   2.869   4.456   3.649  0.3655 -0.1376 -0.2576
14855TIP3    H166056   2.779   4.483   3.670  0.6177  0.2037  0.3899
14855TIP3    H266057   2.858   4.379   3.593 -0.3495  0.6359 -1.2015
14856TIP3   OH266058   2.799   1.855   6.182 -0.3538  0.2437 -0.1757
14856TIP3    H166059   2.885   1.897   6.182 -0.6435  0.8705 -1.9245
14856TIP3    H266060   2.775   1.849   6.090 -1.0552 -2.3157  0.1530
14857TIP3   OH266061   5.180   5.155   1.995 -0.3085  0.1994 -0.4327
14857TIP3    H166062   5.229   5.140   2.075 -1.3995  0.9413  0.3957
14857TIP3    H266063   5.244   5.188   1.932  0.6023 -0.6520  0.0438
14858TIP3   OH266064   5.221   6.640   0.465 -0.0624  0.1007  0.3293
14858TIP3    H166065   5.127   6.634   0.450 -0.1387  0.6208  0.6023
14858TIP3    H266066   5.236   6.730   0.492  0.8042  0.5910 -1.6697
14859TIP3   OH266067   4.029   3.808  13.267 -0.4538  0.0737  0.2488
14859TIP3    H166068   3.990   3.743  13.208  0.1593  0.2729 -0.3863
14859TIP3    H266069   4.078   3.756  13.331 -0.0560 -0.1002 -0.1910
14860TIP3   OH266070   3.284   0.663   4.355  0.3608 -0.1705 -0.2249
14860TIP3    H166071   3.247   0.702   4.276  0.4483 -2.5397 -1.4699
14860TIP3    H266072   3.378   0.677   4.348  0.3368 -0.0977 -0.3946
14861TIP3   OH266073   6.117   1.020  16.769  0.6820  0.5629 -0.1576
14861TIP3    H166074   6.207   1.021  16.737  1.7768 -1.7588  2.5473
14861TIP3    H266075   6.110   1.095  16.827  1.4256 -0.2139  0.9449
14862TIP3   OH266076   4.772   1.539  16.735  0.3888 -0.1341 -0.3866
14862TIP3    H166077   4.767   1.444  16.746  1.3355 -0.0077  1.3841
14862TIP3    H266078   4.851   1.553  16.683  1.4735 -0.2243  1.1912
14863TIP3   OH266079   6.815   1.845  13.058 -0.2724  0.0981  0.2136
14863TIP3    H166080   6.781   1.771  13.109 -1.3522 -0.5831 -1.4525
14863TIP3    H266081   6.739   1.901  13.044  0.0672  0.3974 -0.4394
14864TIP3   OH266082   2.830   3.293  13.237 -0.5216 -0.4114  0.2683
14864TIP3    H166083   2.897   3.360  13.253  0.4841 -1.9155  2.6397
14864TIP3    H266084   2.798   3.270  13.325 -3.3461 -0.5425 -0.7602
14865TIP3   OH266085   5.305   4.038  14.230 -0.2587 -0.3352 -0.2910
14865TIP3    H166086   5.375   4.057  14.291  0.6344 -3.7932 -0.1440
14865TIP3    H266087   5.225   4.060  14.278  0.4798 -1.8449  1.6931
14866TIP3   OH266088   2.222   3.328  15.180  0.0442  0.3049  0.0820
14866TIP3    H166089   2.224   3.393  15.111  1.7058 -0.7786 -0.9299
14866TIP3    H266090   2.213   3.244  15.134  2.2388 -0.5239  1.0777
14867TIP3   OH266091   2.954   3.612   4.537  0.2639  0.1176 -0.0533
14867TIP3    H166092   3.006   3.583   4.462  1.6596 -0.2457  1.0355
14867TIP3    H266093   2.968   3.545   4.604 -1.2604  0.2513  0.4297
14868TIP3   OH266094   3.014   1.683  14.376  0.5785  0.0190  0.6016
14868TIP3    H166095   3.009   1.588  14.389  0.3357  0.0305  0.5818
14868TIP3    H266096   3.098   1.696  14.332  1.1392 -0.0781  1.6198
14869TIP3   OH266097   2.263   3.011   1.436  0.5124 -0.3427  0.5941
14869TIP3    H166098   2.221   2.933   1.470 -0.1769 -0.2045  0.0947
14869TIP3    H266099   2.193   3.076   1.433  1.1383  0.3711  1.2497
14870TIP3   OH266100   6.022   2.285  14.673  0.2482 -0.2344 -0.1009
14870TIP3    H166101   6.042   2.207  14.621  0.0039  0.6427 -1.5245
14870TIP3    H266102   6.080   2.353  14.640  0.2705  0.2695  0.9495
14871TIP3   OH266103   1.046   6.336  15.391  0.1066 -0.5441 -0.3900
14871TIP3    H166104   1.018   6.395  15.461  0.2491 -0.8133 -0.1072
14871TIP3    H266105   1.050   6.249  15.432  0.7862 -0.6024 -0.5817
14872TIP3   OH266106   5.608   0.988   6.133 -0.1002  0.4279 -0.0732
14872TIP3    H166107   5.534   0.929   6.148  0.7430 -0.8343 -0.7928
14872TIP3    H266108   5.569   1.074   6.123 -1.4389 -0.1670 -0.0458
14873TIP3   OH266109   2.624   0.778   1.533  0.3431  0.0252  0.4502
14873TIP3    H166110   2.625   0.699   1.480  0.7575 -0.1475  0.7113
14873TIP3    H266111   2.692   0.764   1.599  0.9767  0.9242  0.0098
14874TIP3   OH266112   0.392   4.031  14.049  0.1868  0.1650 -0.4875
14874TIP3    H166113   0.430   3.950  14.084  0.5457  0.9549  0.9974
14874TIP3    H266114   0.366   4.080  14.127 -0.7905  1.1206 -1.4063
14875TIP3   OH266115   6.045   0.084   3.521 -0.7406  0.0534  0.2230
14875TIP3    H166116   5.972   0.072   3.582 -1.2503 -0.5105 -0.4940
14875TIP3    H266117   6.107   0.139   3.569 -2.2661  1.7352  0.3159
14876TIP3   OH266118   6.472   5.674  12.814  0.1063 -0.1953  0.2813
14876TIP3    H166119   6.425   5.684  12.732  0.4342 -1.9635 -0.1324
14876TIP3    H266120   6.563   5.655  12.788  0.0066 -1.7522  1.0216
14877TIP3   OH266121   3.308   6.314  13.375  0.1293  0.8064 -0.2317
14877TIP3    H166122   3.346   6.239  13.329 -0.7284  0.5831 -0.5801
14877TIP3    H266123   3.371   6.334  13.444  0.3109 -0.3006 -0.0715
14878TIP3   OH266124   3.948   0.934   4.022  0.1587  0.0037  0.0958
14878TIP3    H166125   4.038   0.951   4.050  0.6433 -2.2118 -0.0412
14878TIP3    H266126   3.895   0.959   4.098  0.9754  0.2281  0.6074
14879TIP3   OH266127   1.790   0.177  15.366  0.5873  0.4807 -0.4708
14879TIP3    H166128   1.796   0.082  15.368 -1.8991  0.3406  1.5074
14879TIP3    H266129   1.755   0.202  15.452  1.4294  3.2000 -0.8530
14880TIP3   OH266130   3.803   2.563   2.238  0.7203 -0.6010 -0.1395
14880TIP3    H166131   3.766   2.645   2.205  0.5057 -0.1625  1.1651
14880TIP3    H266132   3.894   2.564   2.206 -0.2945 -1.6356 -3.2557
14881TIP3   OH266133   2.546   4.001   1.456  0.3496  0.6846 -0.5549
14881TIP3    H166134   2.612   4.022   1.390  2.8661  2.3238  2.3597
14881TIP3    H266135   2.586   3.934   1.511 -2.1757 -1.5507 -1.3164
14882TIP3   OH266136   3.856   5.506   0.853  0.0273  0.5829  0.6480
14882TIP3    H166137   3.906   5.443   0.905 -0.0340 -0.6533 -0.7566
14882TIP3    H266138   3.831   5.457   0.775 -3.0300  1.3091  1.1315
14883TIP3   OH266139   2.962   6.405   5.225 -0.2619  0.1141 -0.3269
14883TIP3    H166140   2.918   6.321   5.210  0.3103 -0.2102 -0.1856
14883TIP3    H266141   2.913   6.445   5.296  0.1011 -0.5635  0.3094
14884TIP3   OH266142   6.255   3.404  16.508  0.1148 -0.0191  0.0789
14884TIP3    H166143   6.305   3.483  16.527  0.8243 -0.5595  0.4857
14884TIP3    H266144   6.201   3.428  16.433  0.0643  0.9582  0.4138
14885TIP3   OH266145   2.789   2.795  15.779  0.6063 -0.3643 -0.0269
14885TIP3    H166146   2.751   2.712  15.808  1.9505 -0.4521  1.5196
14885TIP3    H266147   2.715   2.842  15.739 -1.5368  0.0132  4.0715
14886TIP3   OH266148   2.812   1.161  12.432  0.4016 -0.1411 -0.5767
14886TIP3    H166149   2.874   1.233  12.417  0.1481 -0.0227 -1.0586
14886TIP3    H266150   2.743   1.175  12.367  0.0504 -0.4817 -0.2813
14887TIP3   OH266151   3.354   1.719  10.709  0.1938 -0.5110  0.0805
14887TIP3    H166152   3.362   1.627  10.684 -1.4201 -0.4008 -0.9712
14887TIP3    H266153   3.359   1.767  10.627 -1.3315  0.1473  0.3381
14888TIP3   OH266154   1.671   5.412   3.556 -0.2595 -0.1448  0.1838
14888TIP3    H166155   1.621   5.389   3.477 -1.5235 -1.4355  1.3077
14888TIP3    H266156   1.633   5.495   3.585 -0.7144 -0.3376  0.1572
14889TIP3   OH266157   2.726   0.976  15.487  0.0833  0.0597 -0.3506
14889TIP3    H166158   2.679   0.893  15.489 -1.1650  0.7821  0.8779
14889TIP3    H266159   2.681   1.031  15.551  1.5496  1.3372 -0.3852
14890TIP3   OH266160   6.026   2.431   2.435 -0.0550  0.7153 -0.4091
14890TIP3    H166161   6.083   2.361   2.404  1.2048  2.0504 -1.1578
14890TIP3    H266162   5.987   2.467   2.355  1.5983  2.7927 -0.3418
14891TIP3   OH266163   6.016   3.430   4.137  0.2797  0.1646  0.0806
14891TIP3    H166164   5.945   3.370   4.115 -1.0631  1.3486  1.0784
14891TIP3    H266165   5.982   3.481   4.210  2.4318  0.2733  1.0581
14892TIP3   OH266166   3.757   1.432  12.406  0.0682  0.1086  0.2535
14892TIP3    H166167   3.852   1.425  12.392 -0.2752 -1.2335 -1.7030
14892TIP3    H266168   3.721   1.444  12.318 -1.6785 -0.6619  0.8426
14893TIP3   OH266169   3.248   5.215  12.949 -0.0955  0.0313  0.1996
14893TIP3    H166170   3.258   5.305  12.980 -0.8744  0.1180  0.2023
14893TIP3    H266171   3.222   5.224  12.857 -1.8941 -0.1548  0.6756
14894TIP3   OH266172   3.930   0.193  10.850 -0.1942  0.1203  0.2756
14894TIP3    H166173   3.957   0.234  10.932 -1.7406  0.9170  0.4001
14894TIP3    H266174   3.865   0.127  10.876  1.9349 -2.1232  0.0347
14895TIP3   OH266175   2.390   2.282   1.286 -0.1806 -0.4140 -0.1386
14895TIP3    H166176   2.411   2.202   1.334 -0.4159  0.1320  0.8852
14895TIP3    H266177   2.429   2.269   1.199  0.2893 -1.3842  0.2126
14896TIP3   OH266178   3.303   4.830  16.789 -0.0073 -0.4498  0.5240
14896TIP3    H166179   3.263   4.893  16.729  0.5582  0.1240  0.7546
14896TIP3    H266180   3.349   4.883  16.853  1.0483 -1.1033  0.3199
14897TIP3   OH266181   4.916   4.705   1.885 -0.4580  0.3107  0.0916
14897TIP3    H166182   4.938   4.612   1.887  3.6622  1.1922 -0.9468
14897TIP3    H266183   4.919   4.733   1.976  0.9724 -0.0100  0.1486
14898TIP3   OH266184   5.481   3.467  16.196 -0.1902 -0.1844 -0.2739
14898TIP3    H166185   5.499   3.543  16.251 -0.2773 -0.5937  0.3243
14898TIP3    H266186   5.564   3.421  16.190  0.1227  0.5345 -1.5310
14899TIP3   OH266187   2.115   5.487  14.483  0.6830 -0.4417  0.3606
14899TIP3    H166188   2.035   5.496  14.534  0.2576 -2.6234  0.1293
14899TIP3    H266189   2.099   5.413  14.425  2.7433 -0.7110  0.0788
14900TIP3   OH266190   4.557   2.151  15.375  0.1700  0.2857 -0.2619
14900TIP3    H166191   4.564   2.056  15.370  2.3045  0.5077 -2.5896
14900TIP3    H266192   4.465   2.170  15.361 -0.3289 -1.4479  0.5629
14901TIP3   OH266193   1.335   6.468  12.210 -0.5980 -0.0509 -0.4998
14901TIP3    H166194   1.333   6.557  12.175  1.6665 -0.1587 -1.0184
14901TIP3    H266195   1.305   6.477  12.300 -0.8484  1.1579 -0.6943
14902TIP3   OH266196   2.220   6.799   2.582 -0.4461 -0.8442 -0.2242
14902TIP3    H166197   2.166   6.850   2.522  0.6976 -0.1584 -0.6942
14902TIP3    H266198   2.296   6.855   2.599 -0.8976 -0.8884  2.1097
14903TIP3   OH266199   4.548   2.582  15.897  0.0334 -0.4051 -0.1178
14903TIP3    H166200   4.549   2.675  15.876 -3.1013  0.2751  2.3817
14903TIP3    H266201   4.595   2.575  15.979 -2.2894 -0.5277  1.2502
14904TIP3   OH266202   1.047   6.319   3.127 -0.1987 -0.0130 -0.1221
14904TIP3    H166203   1.011   6.324   3.216 -0.7017  1.6435 -0.4047
14904TIP3    H266204   1.058   6.411   3.101  3.2312 -0.4347 -0.4441
14905TIP3   OH266205   5.491   6.583  11.490  0.1892  0.0624 -0.5159
14905TIP3    H166206   5.515   6.639  11.416  0.3550  0.3035 -0.2796
14905TIP3    H266207   5.396   6.593  11.497  0.1874  0.1268 -0.6235
14906TIP3   OH266208   3.414   0.048   3.643  0.1116 -0.3730 -0.3983
14906TIP3    H166209   3.430   0.090   3.559 -1.3454 -1.1250 -1.0694
14906TIP3    H266210   3.439   0.114   3.708  0.6539  0.4334 -1.4134
14907TIP3   OH266211   1.020   0.803  11.633 -0.2780  0.2843  0.1631
14907TIP3    H166212   1.028   0.723  11.582  1.0379  0.2776  0.3680
14907TIP3    H266213   0.931   0.800  11.668  0.9143 -3.0277  3.3177
14908TIP3   OH266214   5.690   4.439  12.993  0.1948  0.3607 -0.3156
14908TIP3    H166215   5.616   4.380  12.983  0.4328  0.0111 -0.0545
14908TIP3    H266216   5.663   4.520  12.950 -0.5051  0.3809  0.1589
14909TIP3   OH266217   5.959   6.635  16.131 -0.0301  0.1815 -0.2942
14909TIP3    H166218   5.897   6.701  16.161  1.6168  1.3438  0.6399
14909TIP3    H266219   5.915   6.591  16.058 -0.6959  3.0475 -1.6597
14910TIP3   OH266220   5.184   4.562   2.858 -0.2023 -0.2440 -0.2410
14910TIP3    H166221   5.110   4.513   2.823  0.7319 -3.2635  1.7458
14910TIP3    H266222   5.177   4.552   2.953  2.5131 -0.2761 -0.0022
14911TIP3   OH266223   1.117   4.249  14.396 -0.5221  0.4412 -0.2869
14911TIP3    H166224   1.070   4.167  14.411  1.3863 -0.1983  2.4763
14911TIP3    H266225   1.047   4.313  14.382 -2.1164 -1.1475  0.0681
14912TIP3   OH266226   1.440   4.576  15.915  0.0705 -1.0698  0.3900
14912TIP3    H166227   1.347   4.554  15.908  0.2475 -1.3511 -1.1685
14912TIP3    H266228   1.461   4.558  16.007 -1.5904 -0.2510  0.9601
14913TIP3   OH266229   3.666   6.006  16.005  0.3045 -0.1171 -0.1128
14913TIP3    H166230   3.618   6.028  15.924  1.4583 -0.0498 -0.7823
14913TIP3    H266231   3.689   5.914  15.994 -2.3406 -1.0619  1.5857
14914TIP3   OH266232   2.525   5.936   0.142  0.2904  0.0599 -0.1583
14914TIP3    H166233   2.545   5.861   0.197 -0.0461 -0.1658 -0.3398
14914TIP3    H266234   2.468   5.991   0.195 -0.7395 -0.5806 -0.5909
14915TIP3   OH266235   2.824   3.135  14.321  0.0193  0.6551 -0.0327
14915TIP3    H166236   2.755   3.197  14.346 -0.1320  0.3649  0.2758
14915TIP3    H266237   2.790   3.093  14.242 -0.0607  0.6726 -0.0076
14916TIP3   OH266238   5.676   5.483  13.077 -0.3008  0.1471  0.3781
14916TIP3    H166239   5.669   5.578  13.065 -1.3067  0.2265  1.4016
14916TIP3    H266240   5.665   5.471  13.172  1.0449 -0.8931  0.4099
14917TIP3   OH266241   5.361   3.664  12.079 -0.0155  0.1876 -0.2724
14917TIP3    H166242   5.410   3.599  12.028 -0.0685  0.6545 -0.9253
14917TIP3    H266243   5.300   3.613  12.131  0.7408 -0.3637  0.0928
14918TIP3   OH266244   0.863   2.187   2.564 -1.2066  0.1151  0.4330
14918TIP3    H166245   0.947   2.150   2.537 -1.6697  0.7127 -1.9613
14918TIP3    H266246   0.884   2.244   2.637  0.3680 -0.2931  0.3252
14919TIP3   OH266247   1.585   3.293   5.672  0.1163 -0.4121  0.6351
14919TIP3    H166248   1.503   3.249   5.695 -0.6707  0.2972 -0.7509
14919TIP3    H266249   1.563   3.386   5.673  0.6633 -0.2605 -0.6039
14920TIP3   OH266250   5.526   2.861   5.609  0.2390  0.7470 -0.8322
14920TIP3    H166251   5.441   2.873   5.654 -0.3302 -1.8300 -1.1594
14920TIP3    H266252   5.590   2.865   5.680 -0.2098  1.9981 -0.4801
14921TIP3   OH266253   2.165   1.836  16.008 -0.8523  0.0542  0.5202
14921TIP3    H166254   2.197   1.748  16.030 -1.3148 -0.4133 -0.6210
14921TIP3    H266255   2.109   1.822  15.931  1.0491  1.6904 -1.1965
14922TIP3   OH266256   0.574   4.451   0.533  0.1275 -1.0416 -0.0377
14922TIP3    H166257   0.617   4.513   0.474 -0.4025 -0.6532 -0.0123
14922TIP3    H266258   0.488   4.437   0.495 -1.0087  0.7994  1.7459
14923TIP3   OH266259   2.565   0.805  15.920 -0.2356  0.4923 -0.2591
14923TIP3    H166260   2.559   0.861  15.998  0.2861 -2.0792  1.6675
14923TIP3    H266261   2.658   0.806  15.898  0.4349 -2.4839  2.0296
14924TIP3   OH266262   4.736   5.188  15.774 -0.2065  0.2626 -0.0686
14924TIP3    H166263   4.751   5.193  15.680 -0.0516 -0.6112 -0.0980
14924TIP3    H266264   4.756   5.275  15.807  0.8523  0.2535 -0.6856
14925TIP3   OH266265   5.144   5.073  10.910  0.0578 -0.5842  0.7582
14925TIP3    H166266   5.158   5.014  10.836  0.1708  0.3750  0.0166
14925TIP3    H266267   5.050   5.091  10.909 -0.0782 -1.2300  1.3530
14926TIP3   OH266268   4.533   0.003   4.303 -0.4134 -0.2495 -0.1601
14926TIP3    H166269   4.467  -0.035   4.361  1.8769 -2.0122  1.3835
14926TIP3    H266270   4.587  -0.072   4.277  0.8511  1.1231 -1.5641
14927TIP3   OH266271   5.597   2.554   4.956  0.2828  0.0060 -0.2403
14927TIP3    H166272   5.635   2.591   4.876 -0.0045 -0.8598 -0.7856
14927TIP3    H266273   5.546   2.626   4.993 -1.6347 -0.3096 -2.1643
14928TIP3   OH266274   2.797   0.367  12.325  0.4063 -0.0531 -0.2055
14928TIP3    H166275   2.846   0.437  12.368 -0.6897  0.6128 -0.0255
14928TIP3    H266276   2.734   0.413  12.269  0.5604 -0.9014 -1.0922
14929TIP3   OH266277   2.980   0.148   6.313 -0.6310  0.1689 -1.0464
14929TIP3    H166278   3.060   0.143   6.261  0.6399 -2.7752  1.0787
14929TIP3    H266279   3.009   0.133   6.403 -3.5733 -0.9625 -0.2305
14930TIP3   OH266280   4.113   5.856   0.241 -0.2970 -0.3827  0.9115
14930TIP3    H166281   4.158   5.811   0.169 -1.5694 -1.3459  0.6890
14930TIP3    H266282   4.113   5.948   0.216 -0.6429 -0.6951 -0.2944
14931TIP3   OH266283   6.352   4.018   4.328 -0.0651  0.6843 -0.2642
14931TIP3    H166284   6.273   4.021   4.274  1.1217 -0.9201 -2.1720
14931TIP3    H266285   6.423   4.041   4.268  1.2107 -0.4193  0.7833
14932TIP3   OH266286   2.324   5.622  13.770  0.3835 -0.3101 -0.5309
14932TIP3    H166287   2.419   5.607  13.765  0.6915  1.4621 -0.4574
14932TIP3    H266288   2.299   5.648  13.682  0.1168  0.0465 -0.3517
14933TIP3   OH266289   3.166   5.040  17.001  0.6416 -0.0462  0.5302
14933TIP3    H166290   3.205   5.038  16.913  0.3964 -1.4842  0.4467
14933TIP3    H266291   3.211   4.970  17.048  1.3066  1.2036  1.8005
14934TIP3   OH266292   5.281   0.977   5.423 -0.0195  0.3235  0.4147
14934TIP3    H166293   5.257   1.045   5.359 -1.1319 -0.0945  0.3857
14934TIP3    H266294   5.374   0.993   5.440 -0.3670  2.1149  0.7237
14935TIP3   OH266295   4.616   2.286  10.933  0.2990  0.2210 -0.3736
14935TIP3    H166296   4.525   2.310  10.948  0.7869  1.0638  1.4479
14935TIP3    H266297   4.653   2.359  10.883  1.0033  1.9422  2.5264
14936TIP3   OH266298   1.409   4.000   2.761  0.1543 -0.2110  0.5358
14936TIP3    H166299   1.419   3.906   2.777  1.1105 -0.3018 -0.5627
14936TIP3    H266300   1.352   4.005   2.684  0.5994  0.1018  0.2275
14937TIP3   OH266301   2.491   6.235  15.726  0.1509  0.0415 -0.4733
14937TIP3    H166302   2.439   6.300  15.775 -0.9453 -1.8850  0.9879
14937TIP3    H266303   2.427   6.190  15.671  1.3362  2.0101 -3.6154
14938TIP3   OH266304   2.380   5.974  11.524 -0.0009 -0.6642 -0.0243
14938TIP3    H166305   2.347   6.047  11.473 -1.4278 -1.3399 -0.1037
14938TIP3    H266306   2.465   6.002  11.555  0.4671  0.1251 -1.9798
14939TIP3   OH266307   6.684   5.524  14.119  0.3988 -0.0633  0.1814
14939TIP3    H166308   6.594   5.496  14.102  0.3136  0.3188  0.0119
14939TIP3    H266309   6.677   5.617  14.140  0.8992  0.2717 -1.1253
14940TIP3   OH266310   3.661   3.380   3.616 -0.0826  0.0671 -0.1646
14940TIP3    H166311   3.635   3.297   3.656 -0.9630  1.2591  1.8074
14940TIP3    H266312   3.756   3.383   3.627 -0.0888 -0.5151  0.0641
14941TIP3   OH266313   3.753   5.417  10.454 -0.0015  0.3391  0.1796
14941TIP3    H166314   3.689   5.473  10.499 -1.1586 -0.8942  0.1216
14941TIP3    H266315   3.793   5.473  10.388  0.9417  1.8893  2.0242
14942TIP3   OH266316   3.778   0.226  12.286  0.2966 -0.1011  0.4511
14942TIP3    H166317   3.756   0.236  12.378 -0.0675  0.5085  0.2947
14942TIP3    H266318   3.848   0.289  12.270 -0.7632  0.9566 -0.0884
14943TIP3   OH266319   1.928   0.573   2.048  0.1585 -0.2803 -0.1780
14943TIP3    H166320   2.016   0.534   2.041  1.2201  1.8418  0.8249
14943TIP3    H266321   1.915   0.619   1.966 -0.1066 -0.7465 -0.4006
14944TIP3   OH266322   2.723   0.831   1.159 -0.3070  0.1582 -0.1442
14944TIP3    H166323   2.681   0.801   1.079  1.3678  0.7801 -1.2854
14944TIP3    H266324   2.709   0.926   1.159  1.1380  0.3806 -0.5757
14945TIP3   OH266325   2.427   2.937   3.610 -0.8036  0.4062 -0.3603
14945TIP3    H166326   2.364   2.864   3.608 -0.2618 -0.0403 -1.6851
14945TIP3    H266327   2.451   2.945   3.702 -2.3576  0.2004  0.0821
14946TIP3   OH266328   1.896   6.104   3.941 -0.9187 -0.1848  0.2024
14946TIP3    H166329   1.872   6.115   4.033 -0.8829  0.3043  0.1566
14946TIP3    H266330   1.814   6.115   3.893 -1.1402 -1.5890  0.2497
14947TIP3   OH266331   0.871   1.991  16.285 -0.9330  0.0876  0.3478
14947TIP3    H166332   0.896   2.005  16.193 -0.1661  1.5179  0.7573
14947TIP3    H266333   0.914   1.909  16.309 -0.7808 -0.0740 -0.4432
14948TIP3   OH266334   6.366   4.852  15.737  0.4255  0.3686  0.0659
14948TIP3    H166335   6.414   4.769  15.741 -0.6783 -0.2111  1.7965
14948TIP3    H266336   6.314   4.847  15.657 -1.7478 -1.8289  1.5540
14949TIP3   OH266337   0.346   3.884  14.403  0.9240 -0.2593 -0.0693
14949TIP3    H166338   0.403   3.832  14.346  0.3492  0.9028 -1.7322
14949TIP3    H266339   0.267   3.832  14.411  1.8517 -1.4742  1.5366
14950TIP3   OH266340   1.493   0.083   4.580 -0.2577 -0.1131  0.1346
14950TIP3    H166341   1.419   0.072   4.640 -2.2212  1.1703 -1.9696
14950TIP3    H266342   1.501   0.178   4.570 -0.3517 -0.3254 -2.0932
14951TIP3   OH266343   0.524   3.560  14.526 -0.7019 -0.3319  0.7854
14951TIP3    H166344   0.606   3.571  14.573 -0.4546  0.6691  0.1364
14951TIP3    H266345   0.456   3.590  14.586 -0.2442  2.5894 -0.0803
14952TIP3   OH266346   0.289   6.303   1.270  0.1300 -0.3498  0.2221
14952TIP3    H166347   0.232   6.320   1.195 -0.8458 -2.2429  0.4989
14952TIP3    H266348   0.262   6.216   1.301 -0.3499  0.8870  3.5323
14953TIP3   OH266349   1.079   1.402  17.048  0.3563  0.1183  0.2862
14953TIP3    H166350   1.096   1.461  17.121 -0.5666  1.6226 -0.6877
14953TIP3    H266351   1.136   1.327  17.064  0.3415  0.5308  2.4172
14954TIP3   OH266352   5.436   5.714   1.181  0.1144 -0.2618  0.4002
14954TIP3    H166353   5.429   5.770   1.105  0.5819 -1.1887 -0.3403
14954TIP3    H266354   5.346   5.705   1.213  0.0972  1.2844  0.8215
14955TIP3   OH266355   0.373   2.662   4.142 -0.6667  0.1531  0.5459
14955TIP3    H166356   0.375   2.685   4.235 -0.8897  1.8318  0.1571
14955TIP3    H266357   0.282   2.639   4.125 -0.2352 -2.1582  1.1812
14956TIP3   OH266358   3.226   2.947  10.735 -0.6594 -0.0340 -0.6198
14956TIP3    H166359   3.176   2.887  10.681  0.5704 -0.5811 -1.1561
14956TIP3    H266360   3.240   3.024  10.680  2.3432 -1.3942 -1.8608
14957TIP3   OH266361   1.642   6.155  12.528  0.1195  0.5863 -0.3654
14957TIP3    H166362   1.644   6.151  12.624 -1.9666  1.1972 -0.2538
14957TIP3    H266363   1.673   6.244  12.507 -0.2635  0.7616 -0.2001
14958TIP3   OH266364   3.748   6.704   1.722  0.1980 -0.4393  0.1060
14958TIP3    H166365   3.760   6.771   1.790  1.7575 -0.9257  0.3429
14958TIP3    H266366   3.735   6.755   1.642  1.4564  0.1684  0.2687
14959TIP3   OH266367   4.346   1.884  16.772 -0.0858  0.0261 -0.7841
14959TIP3    H166368   4.340   1.979  16.781 -2.4237 -0.2022  0.5237
14959TIP3    H266369   4.392   1.856  16.851  0.3376  0.0353 -1.0245
14960TIP3   OH266370   4.575   2.227   0.611 -0.5015  0.3583  0.1978
14960TIP3    H166371   4.568   2.176   0.692  1.1969 -1.7806 -0.9437
14960TIP3    H266372   4.506   2.191   0.555 -1.2344  1.3685  0.4529
14961TIP3   OH266373   3.183   2.748  15.773  0.4631 -0.0759  0.0140
14961TIP3    H166374   3.178   2.656  15.746  0.0056 -0.0559  0.0333
14961TIP3    H266375   3.268   2.755  15.816  0.2974 -0.6113  0.4486
14962TIP3   OH266376   1.309   6.224  12.058  0.3712  0.0941  0.1854
14962TIP3    H166377   1.331   6.314  12.035 -0.3407  0.1504 -0.2782
14962TIP3    H266378   1.386   6.192  12.106  1.6599  0.1515 -1.7691
14963TIP3   OH266379   5.769   1.608  13.862 -0.6194  0.0307 -0.4404
14963TIP3    H166380   5.775   1.690  13.911  0.7007 -0.3430  0.0247
14963TIP3    H266381   5.693   1.563  13.901 -1.4752  1.1088 -0.8379
14964TIP3   OH266382   3.422   2.653   1.741  0.1908 -0.5689 -0.1409
14964TIP3    H166383   3.512   2.671   1.715  0.3309 -0.1157  0.6606
14964TIP3    H266384   3.422   2.561   1.766  0.0002 -1.0887 -1.9608
14965TIP3   OH266385   1.751   6.674  17.088 -0.1553  0.3724  0.4301
14965TIP3    H166386   1.714   6.689  17.175  0.0698  0.2809  0.5413
14965TIP3    H266387   1.681   6.698  17.027 -0.4150  0.1514  0.6401
14966TIP3   OH266388   4.595   5.060   0.658  0.0390 -0.0954  0.4101
14966TIP3    H166389   4.612   4.971   0.629  0.3848 -0.2219  0.9909
14966TIP3    H266390   4.589   5.111   0.577  0.6499 -0.4981  0.1064
14967TIP3   OH266391   1.650   4.908   5.393 -0.2969 -0.2791  0.5040
14967TIP3    H166392   1.579   4.890   5.331  0.2048  0.6941 -0.3727
14967TIP3    H266393   1.619   4.873   5.476  0.1073 -3.9968 -0.8147
14968TIP3   OH266394   5.731   3.380   0.360 -0.2170 -0.1366  0.3075
14968TIP3    H166395   5.720   3.351   0.269 -3.2297  0.5357  0.3882
14968TIP3    H266396   5.791   3.454   0.354  1.3799 -1.4756 -0.8331
14969TIP3   OH266397   3.006   5.670  10.600  0.0220  0.2050 -0.6468
14969TIP3    H166398   3.080   5.723  10.629 -1.2293  0.6477  1.9356
14969TIP3    H266399   2.998   5.602  10.666 -2.7868  1.0748 -0.0262
14970TIP3   OH266400   6.469   1.052  11.147  0.3577  0.0315 -0.5062
14970TIP3    H166401   6.455   1.063  11.053  3.0028 -0.2140 -0.9659
14970TIP3    H266402   6.538   1.115  11.169  0.1493 -0.2934  1.1542
14971TIP3   OH266403   2.290   0.733  16.301  0.5757 -0.2899  0.3186
14971TIP3    H166404   2.286   0.829  16.291  1.7511 -0.3731 -1.0617
14971TIP3    H266405   2.382   0.712  16.288  0.4323 -1.5535  1.2928
14972TIP3   OH266406   4.473   6.715  17.045 -0.3012 -0.0831  0.5985
14972TIP3    H166407   4.440   6.661  17.118 -0.3721 -0.2417  0.4501
14972TIP3    H266408   4.434   6.801  17.060 -1.8455 -0.5917 -0.2924
14973TIP3   OH266409   3.328   4.420  14.936  0.2830 -0.4896  0.1863
14973TIP3    H166410   3.300   4.481  14.868 -0.8690 -1.1249  0.0634
14973TIP3    H266411   3.395   4.366  14.895 -0.1905 -0.6699 -0.3508
14974TIP3   OH266412   2.567   4.744  14.120 -0.0697 -0.0815 -0.2459
14974TIP3    H166413   2.621   4.741  14.199 -1.8034  0.8077  0.9961
14974TIP3    H266414   2.627   4.717  14.050  1.4435 -1.0837  1.3737
14975TIP3   OH266415   5.403   0.461   5.390 -0.0434 -0.6687  0.4427
14975TIP3    H166416   5.363   0.484   5.473 -1.2342 -2.2822  0.3452
14975TIP3    H266417   5.493   0.494   5.396 -0.8030  1.2899  1.4188
14976TIP3   OH266418   2.530   4.320   3.377  0.2417  0.3455 -0.1668
14976TIP3    H166419   2.493   4.264   3.310 -2.1629 -0.1763  1.5360
14976TIP3    H266420   2.461   4.382   3.398  0.7590  0.1890  2.1463
14977TIP3   OH266421   6.542   3.264  14.414 -0.1261 -0.2978 -0.4789
14977TIP3    H166422   6.591   3.313  14.348 -0.3164  1.1189  0.4004
14977TIP3    H266423   6.575   3.174  14.407  0.1798 -0.0678 -2.1710
14978TIP3   OH266424   2.795   1.523  11.483  0.0203 -0.5980  0.1130
14978TIP3    H166425   2.831   1.439  11.454 -0.5505 -0.7837 -0.0701
14978TIP3    H266426   2.725   1.499  11.543  0.4336 -0.2319  0.7396
14979TIP3   OH266427   1.585   3.597   6.377  0.4277  0.0626 -0.1408
14979TIP3    H166428   1.630   3.543   6.311  0.1678  2.0195 -1.9982
14979TIP3    H266429   1.642   3.673   6.388 -0.0443  0.2343  1.1684
14980TIP3   OH266430   2.776   0.406  15.017  0.2820  0.2887  0.0972
14980TIP3    H166431   2.813   0.340  15.075  1.2761  0.7135 -0.0459
14980TIP3    H266432   2.692   0.370  14.990  1.8365 -1.9916 -1.8380
14981TIP3   OH266433   1.554   0.449  13.905  0.5071  0.1012  0.1195
14981TIP3    H166434   1.543   0.528  13.853  1.8658  1.2744  1.5636
14981TIP3    H266435   1.475   0.445  13.959 -0.7247 -0.9116 -1.6778
14982TIP3   OH266436   6.173   4.454   2.348 -0.3615 -0.0718 -0.1894
14982TIP3    H166437   6.181   4.511   2.271  0.4692 -0.6414 -0.5340
14982TIP3    H266438   6.100   4.395   2.326 -0.8642  0.5063 -0.0627
14983TIP3   OH266439   1.498   6.770   1.986 -0.4008 -0.1178  0.2161
14983TIP3    H166440   1.576   6.731   2.024 -0.8189  0.6895  1.9309
14983TIP3    H266441   1.431   6.762   2.053 -1.4424  0.3982 -0.7290
14984TIP3   OH266442   1.706   0.599  17.184 -0.2171  0.4315  0.2680
14984TIP3    H166443   1.777   0.565  17.238  0.3320  1.1163 -0.0103
14984TIP3    H266444   1.638   0.625  17.247 -0.7973 -1.4909  0.4534
14985TIP3   OH266445   5.236   3.115  11.936  0.0584 -0.4432 -0.3098
14985TIP3    H166446   5.237   3.201  11.894 -0.8703 -0.3180 -0.0818
14985TIP3    H266447   5.166   3.067  11.892  0.4312 -1.0165 -0.2905
14986TIP3   OH266448   6.528   4.348  15.743  0.3334  0.8622 -0.3752
14986TIP3    H166449   6.605   4.367  15.689  0.7104  1.1231  0.2447
14986TIP3    H266450   6.469   4.300  15.685  0.2906  2.0459 -1.3338
14987TIP3   OH266451   5.862   1.825   2.061  0.0490 -0.8103 -0.2898
14987TIP3    H166452   5.870   1.857   2.150 -0.2190 -1.1138 -0.1549
14987TIP3    H266453   5.948   1.840   2.021  0.0198 -0.2194 -0.1335
14988TIP3   OH266454   0.583   3.262   5.839  0.4371  0.5363  0.2432
14988TIP3    H166455   0.650   3.193   5.844  0.1113  0.2261  0.3522
14988TIP3    H266456   0.569   3.275   5.745 -0.6027 -0.6246  0.2269
14989TIP3   OH266457   2.698   2.545  12.808  0.2039  0.0714  0.2816
14989TIP3    H166458   2.769   2.605  12.833 -0.6655  0.9896  0.6085
14989TIP3    H266459   2.660   2.517  12.891 -0.6191  0.5804  0.0836
14990TIP3   OH266460   6.272   6.746  15.353 -0.2350 -0.5554 -0.2980
14990TIP3    H166461   6.335   6.766  15.284  0.2487 -2.3979 -0.4266
14990TIP3    H266462   6.200   6.701  15.308 -1.7739  1.6793 -0.1837
14991TIP3   OH266463   4.967   3.566  13.097 -0.0753  0.5315 -0.0760
14991TIP3    H166464   5.012   3.588  13.016  0.6399  1.8149  0.6551
14991TIP3    H266465   4.963   3.649  13.146 -0.4037 -0.2414  1.2343
14992TIP3   OH266466   0.983   5.839   0.320  0.1532  0.2667 -0.2102
14992TIP3    H166467   1.009   5.887   0.241 -1.1892  1.8388  0.2779
14992TIP3    H266468   1.060   5.787   0.342  0.2277 -0.9824 -3.1196
14993TIP3   OH266469   1.014   2.105   4.047 -0.2710  0.3068 -0.1956
14993TIP3    H166470   1.048   2.194   4.040  1.8684 -0.4051  0.6333
14993TIP3    H266471   0.997   2.078   3.957  1.7413  0.5684 -0.6787
14994TIP3   OH266472   1.552   4.674  12.306 -0.3207 -0.3041 -0.2211
14994TIP3    H166473   1.492   4.675  12.381  0.7957  0.5719  0.6604
14994TIP3    H266474   1.608   4.598  12.321  1.6281  1.3852  1.2085
14995TIP3   OH266475   0.643   1.856   5.679  0.1342 -0.2323 -0.1993
14995TIP3    H166476   0.566   1.842   5.734  0.4737  1.0536  0.6234
14995TIP3    H266477   0.716   1.825   5.733  0.1342 -2.2377 -1.2996
14996TIP3   OH266478   4.973   4.022  13.462 -0.3440  0.1941 -0.0362
14996TIP3    H166479   4.885   4.058  13.468  0.1528  1.5463 -0.7636
14996TIP3    H266480   5.028   4.095  13.433  0.4693 -1.4166 -2.7667
14997TIP3   OH266481   3.448   6.807  12.465  0.3836 -0.1537  0.3548
14997TIP3    H166482   3.447   6.713  12.483 -0.8734 -0.2021  0.0343
14997TIP3    H266483   3.368   6.841  12.504 -0.4381  0.3674 -1.7041
14998TIP3   OH266484   2.156   1.040  13.195  0.7523 -0.1384 -0.2494
14998TIP3    H166485   2.060   1.036  13.200  0.5666  0.2718 -3.0235
14998TIP3    H266486   2.174   1.116  13.140  2.6683 -0.5920 -0.2671
14999TIP3   OH266487   2.096   2.595   1.981  0.2529  0.2553 -0.4579
14999TIP3    H166488   2.032   2.583   2.051  0.6265 -1.1063 -0.3275
14999TIP3    H266489   2.075   2.680   1.943 -1.7924 -0.3043 -0.5957
15000TIP3   OH266490   5.833   5.198   4.264 -0.4466  0.0941  0.1789
15000TIP3    H166491   5.757   5.149   4.296 -0.1124  0.0181  0.8547
15000TIP3    H266492   5.846   5.167   4.175 -1.3512  0.2684 -0.0207
15001TIP3   OH266493   1.164   5.494  13.323  0.2409  0.2316 -0.2807
15001TIP3    H166494   1.243   5.472  13.373  0.4254 -0.1846 -0.7427
15001TIP3    H266495   1.195   5.505  13.233  0.1254  2.2695 -0.0893
15002TIP3   OH266496   4.823   6.813  15.869 -0.2409  0.6263  0.8461
15002TIP3    H166497   4.904   6.765  15.854 -0.1586  0.7345  0.9418
15002TIP3    H266498   4.787   6.827  15.782  0.5299  1.7739  0.6992
15003TIP3   OH266499   4.459   5.014   4.527 -0.2409  0.1920  0.9510
15003TIP3    H166500   4.520   5.034   4.455 -0.5305  1.3266  0.9977
15003TIP3    H266501   4.504   5.046   4.605  0.4115 -1.7565  1.3879
15004TIP3   OH266502   2.512   0.821   0.977 -0.5281 -0.2864 -0.1776
15004TIP3    H166503   2.534   0.795   0.887 -2.3073 -1.8519 -0.1803
15004TIP3    H266504   2.432   0.872   0.969 -1.5206 -1.6893  0.6565
15005TIP3   OH266505   6.244   3.246  17.039  0.5209 -0.1240 -0.1966
15005TIP3    H166506   6.167   3.293  17.072  0.9892  0.8069 -0.4051
15005TIP3    H266507   6.218   3.154  17.038 -1.3275  0.4004 -2.3083
15006TIP3   OH266508   2.738   1.611  15.031 -0.2579  0.2549  0.3078
15006TIP3    H166509   2.713   1.533  14.981 -2.2789  1.0121  0.0592
15006TIP3    H266510   2.665   1.624  15.092  1.4426  0.2653  2.3659
15007TIP3   OH266511   1.859   0.508  14.876  0.3193 -0.6112  0.0148
15007TIP3    H166512   1.907   0.433  14.842 -0.3014 -0.9095 -0.2092
15007TIP3    H266513   1.906   0.534  14.955  0.3691 -1.4022  0.2393
15008TIP3   OH266514   0.680   6.730   3.065  0.6249 -0.1818 -0.3657
15008TIP3    H166515   0.761   6.679   3.064  0.9784  0.3713 -0.1606
15008TIP3    H266516   0.651   6.730   2.974 -1.1206 -3.4987  0.1283
15009TIP3   OH266517   2.145   2.432  13.176  0.5959 -0.3279  0.0585
15009TIP3    H166518   2.223   2.466  13.131 -1.7319  1.5223 -2.7245
15009TIP3    H266519   2.126   2.497  13.244 -0.8155  1.3407 -1.8840
15010TIP3   OH266520   0.588   2.272   1.876  0.4671  0.3697 -0.0461
15010TIP3    H166521   0.652   2.217   1.830  1.5210  1.8599 -0.4176
15010TIP3    H266522   0.610   2.261   1.968 -0.5281 -1.2601  0.0214
15011TIP3   OH266523   2.029   3.407   3.618  0.5873  0.0373  0.0045
15011TIP3    H166524   1.954   3.417   3.677  0.7340 -1.5448  0.4867
15011TIP3    H266525   2.088   3.479   3.641 -0.8018  1.3428 -0.4286
15012TIP3   OH266526   5.691   1.665  15.317 -0.0247  0.7461  0.1636
15012TIP3    H166527   5.605   1.658  15.359  0.7417  2.0940  1.9970
15012TIP3    H266528   5.743   1.717  15.377  1.4170  1.8972 -2.0333
15013TIP3   OH266529   6.724   6.446   7.135 -0.4288  0.1884 -0.1885
15013TIP3    H166530   6.705   6.517   7.074  0.5631  1.0313  0.4754
15013TIP3    H266531   6.641   6.398   7.143 -1.0188  1.0880 -0.8685
15014TIP3   OH266532   6.600   4.135   0.763 -0.1307 -0.2316 -0.1774
15014TIP3    H166533   6.686   4.123   0.803  0.0109 -1.3864 -0.8201
15014TIP3    H266534   6.616   4.191   0.688  0.2404 -1.2982 -0.9074
15015TIP3   OH266535   5.498   6.560   4.388  0.3044 -0.5314 -0.4849
15015TIP3    H166536   5.463   6.631   4.443 -0.4609 -0.1195 -1.4984
15015TIP3    H266537   5.443   6.485   4.409  2.0089 -1.2337  1.6477
15016TIP3   OH266538   0.233   2.580   4.579  0.0680  0.0464 -0.1657
15016TIP3    H166539   0.259   2.489   4.562 -0.8259 -0.3244  0.4154
15016TIP3    H266540   0.297   2.612   4.643 -0.4940 -0.6580  0.7654
15017TIP3   OH266541   5.723   6.540   4.535  0.3879  0.2881  0.3453
15017TIP3    H166542   5.779   6.618   4.531  0.3740  0.2724 -0.3277
15017TIP3    H266543   5.654   6.558   4.471  0.4347 -0.3155  0.1283
15018TIP3   OH266544   1.569   2.674   5.781 -0.0014 -0.4060 -0.5930
15018TIP3    H166545   1.541   2.719   5.861 -1.7772 -0.1967 -1.3071
15018TIP3    H266546   1.620   2.740   5.733  0.4962 -0.3200  0.0475
15019TIP3   OH266547   3.446   2.507   3.468 -0.2955 -0.1878 -0.6502
15019TIP3    H166548   3.493   2.589   3.449  1.4340 -1.5400 -2.3763
15019TIP3    H266549   3.414   2.519   3.558  1.0408  1.8649 -0.3974
15020TIP3   OH266550   0.039   1.538   3.983 -0.3758  0.3075 -0.1738
15020TIP3    H166551   0.057   1.630   4.002  0.8926  0.0525 -0.0991
15020TIP3    H266552   0.095   1.489   4.044 -0.0645 -0.4998 -1.0888
15021TIP3   OH266553   3.459   6.305  13.631  1.4496 -0.0242 -0.2197
15021TIP3    H166554   3.387   6.245  13.651  1.5357  0.2924  1.1251
15021TIP3    H266555   3.526   6.249  13.591  2.2920 -1.2504  2.7091
15022TIP3   OH266556   3.981   1.353   4.976  0.0796  0.0667  0.2751
15022TIP3    H166557   3.906   1.303   5.009 -1.0056  1.8640  0.5864
15022TIP3    H266558   3.981   1.336   4.882 -0.5109 -0.2072  0.3243
15023TIP3   OH266559   2.605   5.805   6.660 -0.7042  0.3247 -0.3718
15023TIP3    H166560   2.515   5.772   6.663 -0.7255  0.4784  1.1561
15023TIP3    H266561   2.659   5.726   6.655 -0.8784  0.1981 -0.2600
15024TIP3   OH266562   6.425   1.470   5.199  0.3294  0.0711  0.4177
15024TIP3    H166563   6.484   1.469   5.124  0.2009 -0.6268  0.3229
15024TIP3    H266564   6.350   1.521   5.169  0.4133  0.0533  0.1735
15025TIP3   OH266565   0.580   3.341   2.751 -0.4797 -0.0850  0.2007
15025TIP3    H166566   0.586   3.410   2.684  2.3679 -0.5709 -0.1127
15025TIP3    H266567   0.654   3.284   2.732 -1.2668 -1.7733  2.1102
15026TIP3   OH266568   5.420   4.358   0.501 -0.1689  0.0709  0.3620
15026TIP3    H166569   5.402   4.264   0.498 -1.3599  0.2531  1.3775
15026TIP3    H266570   5.434   4.383   0.410  0.7399 -1.1990  0.1426
15027TIP3   OH266571   6.222   2.947   0.311  0.4695 -0.0706 -0.0104
15027TIP3    H166572   6.135   2.935   0.273 -0.8770  1.2563  2.5091
15027TIP3    H266573   6.280   2.899   0.253 -2.2004 -2.7113 -0.6703
15028TIP3   OH266574   4.069   2.626  11.610 -0.3232  0.4930 -0.0030
15028TIP3    H166575   4.058   2.648  11.517 -0.6379 -1.7635 -0.5121
15028TIP3    H266576   4.143   2.680  11.638  1.1191 -0.3124 -2.1109
15029TIP3   OH266577   1.365   2.777  14.476  0.2327 -0.0055  0.1093
15029TIP3    H166578   1.380   2.704  14.416  0.0131  1.0242 -1.2144
15029TIP3    H266579   1.271   2.794  14.470  0.2630  0.3194  0.5099
15030TIP3   OH266580   6.767   1.505  13.869 -0.1113  0.0252  0.5965
15030TIP3    H166581   6.674   1.523  13.882  0.5888  2.5238  2.5082
15030TIP3    H266582   6.799   1.577  13.815  0.4841 -1.5189 -1.1661
15031TIP3   OH266583   1.534   6.672  16.270  0.1147  0.1995 -0.3881
15031TIP3    H166584   1.480   6.667  16.349 -0.5192 -0.5225 -0.8667
15031TIP3    H266585   1.496   6.743  16.219 -0.5867 -0.5083 -0.8671
15032TIP3   OH266586   1.409   3.062   4.787  0.0030  0.4350  0.2167
15032TIP3    H166587   1.428   3.113   4.865  1.6355  1.4002 -0.7887
15032TIP3    H266588   1.485   3.005   4.776  0.0441  0.7145 -0.9988
15033TIP3   OH266589   5.673   1.085  14.659  0.2183 -0.6387  0.5575
15033TIP3    H166590   5.695   1.116  14.571 -2.1187  0.9323  0.4993
15033TIP3    H266591   5.659   0.991  14.649  1.3244 -0.7018 -0.4663
15034TIP3   OH266592   4.608   2.555  16.227 -0.1799 -1.0398  0.1755
15034TIP3    H166593   4.551   2.492  16.182  1.0128 -1.1900 -1.1637
15034TIP3    H266594   4.590   2.541  16.320  0.0678 -3.4013 -0.0875
15035TIP3   OH266595   6.058   2.329   1.497  0.1608  0.5127  0.4236
15035TIP3    H166596   6.029   2.415   1.526 -0.8891  0.9557 -1.8534
15035TIP3    H266597   6.075   2.339   1.403  1.9783 -1.2593  0.5252
15036TIP3   OH266598   2.888   0.395   5.545 -0.0214  0.0826  0.1569
15036TIP3    H166599   2.915   0.356   5.463 -0.7985 -0.5150  0.1770
15036TIP3    H266600   2.808   0.443   5.524 -0.7051 -0.7891  0.7359
15037TIP3   OH266601   3.702   5.277   0.272  0.6307 -0.1784  0.3195
15037TIP3    H166602   3.784   5.228   0.277  1.5005  1.2673  0.3831
15037TIP3    H266603   3.727   5.368   0.289 -1.3575 -0.0895  3.2114
15038TIP3   OH266604   4.918   6.808   0.896  0.4268  0.7257  0.5049
15038TIP3    H166605   4.850   6.748   0.866  1.2416 -0.5882  1.2181
15038TIP3    H266606   4.996   6.782   0.847  0.4923  2.0393 -0.1091
15039TIP3   OH266607   3.410   4.055  15.330 -0.2957  0.3296  0.1713
15039TIP3    H166608   3.502   4.061  15.357 -0.6660 -0.2295  1.6225
15039TIP3    H266609   3.393   3.961  15.325 -0.6210  0.4316 -0.7357
15040TIP3   OH266610   3.051   6.475   0.441 -0.2758 -0.0577 -0.8112
15040TIP3    H166611   2.977   6.453   0.385  0.4046 -0.2371 -1.6654
15040TIP3    H266612   3.103   6.395   0.445  0.4308  0.3767 -1.1121
15041TIP3   OH266613   0.995   1.947  11.895  0.4007 -0.2125  0.6186
15041TIP3    H166614   0.947   2.013  11.945 -0.3246 -0.3001  0.0512
15041TIP3    H266615   1.073   1.928  11.948  0.4508  0.8591  0.9325
15042TIP3   OH266616   2.981   3.318  17.178 -0.3139  0.1700  0.1121
15042TIP3    H166617   2.894   3.328  17.140  0.3868  0.2577 -1.4890
15042TIP3    H266618   2.998   3.224  17.175 -0.6627  0.0665  1.1481
15043TIP3   OH266619   0.464   6.791  16.793 -0.1299 -0.6824  0.3518
15043TIP3    H166620   0.518   6.844  16.851  0.3341  0.8107 -1.3911
15043TIP3    H266621   0.389   6.848  16.772  0.3341 -0.7196 -1.4711
15044TIP3   OH266622   0.719   6.371  16.322 -0.3410 -0.3280 -0.0284
15044TIP3    H166623   0.810   6.359  16.293 -0.4732  1.2483 -1.1034
15044TIP3    H266624   0.713   6.316  16.401  1.5612 -0.4079  0.1038
15045TIP3   OH266625   3.533   6.793   5.049  0.5129  0.1426 -0.4520
15045TIP3    H166626   3.510   6.752   5.133  0.3637 -0.1805 -0.6526
15045TIP3    H266627   3.483   6.874   5.048  1.0638  0.5016  0.0992
15046TIP3   OH266628   5.468   4.113   5.299 -0.1281  0.1594  1.1558
15046TIP3    H166629   5.554   4.154   5.294  0.6137 -1.4760  0.0056
15046TIP3    H266630   5.456   4.095   5.392  0.9138  0.1094  1.2923
15047TIP3   OH266631   4.582   4.840   4.792  0.7526 -0.3429 -0.8758
15047TIP3    H166632   4.579   4.765   4.851  2.5111 -0.4279 -0.8685
15047TIP3    H266633   4.675   4.858   4.780  0.3662  1.7790 -0.9543
15048TIP3   OH266634   4.863   4.094  15.533  0.5331  0.4915 -0.3442
15048TIP3    H166635   4.869   4.139  15.449 -1.3454  0.2470 -0.6264
15048TIP3    H266636   4.790   4.136  15.578  0.6130 -0.3335  0.5814
15049TIP3   OH266637   4.313   2.255   5.302  0.0899  0.0505 -0.6274
15049TIP3    H166638   4.263   2.289   5.228 -0.2068  0.3925 -0.2698
15049TIP3    H266639   4.384   2.317   5.313  0.5251 -0.3692 -1.0559
15050TIP3   OH266640   1.285   3.339  16.844 -0.7099 -0.5346  0.1587
15050TIP3    H166641   1.212   3.384  16.801  0.0475  0.9299  0.3686
15050TIP3    H266642   1.359   3.399  16.834  0.1049 -1.3347  1.2573
15051TIP3   OH266643   6.170   3.412   5.125 -0.2766 -0.6683  0.4463
15051TIP3    H166644   6.087   3.426   5.079 -0.2384  0.2942  0.6591
15051TIP3    H266645   6.145   3.380   5.211 -0.5669  2.0774  1.4485
15052TIP3   OH266646   4.849   2.638  16.392 -0.0319 -0.0476  0.4447
15052TIP3    H166647   4.838   2.720  16.440 -1.3647 -0.0158  0.0994
15052TIP3    H266648   4.839   2.662  16.300 -1.7359 -0.8120  0.4233
15053TIP3   OH266649   4.569   6.297   4.311  0.0144 -0.1436  0.4853
15053TIP3    H166650   4.562   6.210   4.352 -0.1441  0.5013  1.8485
15053TIP3    H266651   4.536   6.283   4.222  0.5906 -1.6241  0.4770
15054TIP3   OH266652   6.633   6.402  14.392 -0.0064  0.4047  0.3433
15054TIP3    H166653   6.703   6.396  14.327 -0.2428  0.2673  0.0973
15054TIP3    H266654   6.674   6.375  14.474  0.5959  1.7072  0.4813
15055TIP3   OH266655   0.634   0.425   5.272 -0.0045 -0.7026 -0.4099
15055TIP3    H166656   0.566   0.491   5.256 -0.5857 -0.1166  3.9760
15055TIP3    H266657   0.661   0.398   5.184 -1.7337  3.3210 -2.3459
15056TIP3   OH266658   1.963   2.658   1.628 -0.0430 -0.5420  0.1981
15056TIP3    H166659   1.883   2.647   1.678  0.7543 -2.6829  1.0301
15056TIP3    H266660   1.981   2.572   1.591  1.4523  0.1013 -0.6349
15057TIP3   OH266661   0.601   4.652  12.363  0.4687  0.0246  0.2002
15057TIP3    H166662   0.540   4.617  12.428 -0.7877 -0.3477 -1.1476
15057TIP3    H266663   0.631   4.575  12.315  0.7723  0.3717 -0.1666
15058TIP3   OH266664   0.552   1.423   1.864  0.2193  0.1332  0.6251
15058TIP3    H166665   0.477   1.454   1.814  0.6431  1.9310  1.0521
15058TIP3    H266666   0.552   1.328   1.851 -1.5868  0.2029 -0.1027
15059TIP3   OH266667   0.895   3.610   5.908 -0.6000 -0.0909 -0.0619
15059TIP3    H166668   0.875   3.682   5.847 -1.2903  1.2843  1.7310
15059TIP3    H266669   0.810   3.568   5.922 -0.1634 -1.4114 -1.2521
15060TIP3   OH266670   5.817   1.044  12.208 -0.4587  0.4622  0.2306
15060TIP3    H166671   5.818   1.136  12.233  1.1409  0.8869 -1.2742
15060TIP3    H266672   5.787   1.043  12.118 -1.4596 -0.5932  0.5610
15061TIP3   OH266673   0.140   1.804   3.171 -1.0015 -0.6498  0.4928
15061TIP3    H166674   0.168   1.713   3.165 -1.3234 -0.6040 -2.2671
15061TIP3    H266675   0.056   1.807   3.126 -1.4477  0.8551  1.3564
15062TIP3   OH266676   5.915   6.610   1.768  0.5295  0.2384 -1.0551
15062TIP3    H166677   5.998   6.566   1.792 -0.6280 -0.2783  2.3701
15062TIP3    H266678   5.916   6.691   1.820 -2.1765 -0.9745  0.9980
15063TIP3   OH266679   4.403   6.006   0.252  0.1589 -0.2358  0.0136
15063TIP3    H166680   4.361   6.041   0.331 -0.5449  0.6460 -0.7320
15063TIP3    H266681   4.382   5.913   0.253 -0.9650  0.0136  0.1892
15064TIP3   OH266682   5.489   3.112  16.570  0.5274 -0.3418  0.3341
15064TIP3    H166683   5.581   3.115  16.596  0.5940 -0.5916  0.1305
15064TIP3    H266684   5.481   3.180  16.503  0.1046  1.0663  1.7827
15065TIP3   OH266685   0.978   6.110   6.277  0.1788  0.0448  0.4251
15065TIP3    H166686   0.923   6.035   6.256  0.7737 -0.5835  1.0809
15065TIP3    H266687   0.929   6.158   6.343  0.3059 -0.3802  0.8308
15066TIP3   OH266688   0.015   3.132  13.553  0.0566  0.3867  0.0224
15066TIP3    H166689   0.094   3.175  13.587  0.0518 -0.3547  0.9972
15066TIP3    H266690   0.042   3.041  13.539 -0.3335  0.3756 -0.6557
15067TIP3   OH266691   5.312   2.223  17.003 -0.2814 -0.2490 -0.4204
15067TIP3    H166692   5.357   2.147  17.041  0.7062  0.2081 -0.6749
15067TIP3    H266693   5.256   2.255  17.074 -0.1777 -0.7968 -0.0883
15068TIP3   OH266694   5.388   4.924   1.738 -0.0463  0.3813 -0.0918
15068TIP3    H166695   5.296   4.907   1.718  0.0803 -0.3855 -0.0451
15068TIP3    H266696   5.428   4.942   1.653 -0.1358  0.1863 -0.1770
15069TIP3   OH266697   0.970   1.338  14.842 -0.2965 -0.2630  0.0131
15069TIP3    H166698   0.894   1.282  14.855  0.0012 -0.5826  0.4029
15069TIP3    H266699   0.966   1.365  14.750  0.0837 -1.7087 -0.4318
15070TIP3   OH266700   2.320   3.179   2.789 -0.0867  0.5284 -0.5393
15070TIP3    H166701   2.340   3.114   2.722  0.9043  1.0719 -0.7778
15070TIP3    H266702   2.241   3.145   2.832 -0.3625 -0.1394 -1.5529
15071TIP3   OH266703   2.217   3.076   3.891  0.1997  0.1824  0.2364
15071TIP3    H166704   2.281   3.046   3.826  0.5358  0.2403  0.5329
15071TIP3    H266705   2.144   3.014   3.883  0.3140  0.0867 -0.0748
15072TIP3   OH266706   6.765   5.713   5.254 -0.2165  0.2395 -0.4670
15072TIP3    H166707   6.810   5.687   5.174 -0.7349  0.7295 -0.9192
15072TIP3    H266708   6.800   5.655   5.321  0.9559  0.4966 -0.8538
15073TIP3   OH266709   4.545   0.788  12.195  0.3959  0.2827  0.1943
15073TIP3    H166710   4.555   0.708  12.143  0.9706  1.0523 -0.8926
15073TIP3    H266711   4.564   0.761  12.284  1.6150 -0.5815 -0.3117
15074TIP3   OH266712   0.600   3.219  15.679  0.4093  0.3303  0.4047
15074TIP3    H166713   0.590   3.130  15.645 -1.6376  1.9539 -3.6038
15074TIP3    H266714   0.680   3.251  15.637  2.0593 -0.0916  3.1240
15075TIP3   OH266715   6.522   6.255   4.480  0.0246 -0.6110  0.0952
15075TIP3    H166716   6.575   6.325   4.517  0.4541 -1.1701  0.5615
15075TIP3    H266717   6.494   6.204   4.556 -3.4518  1.2299  0.0964
15076TIP3   OH266718   1.405   5.687  15.267  0.1129  0.3680 -0.0565
15076TIP3    H166719   1.485   5.662  15.313 -0.4428 -1.9264 -0.2826
15076TIP3    H266720   1.430   5.689  15.174  0.8526  3.5111  0.1568
15077TIP3   OH266721   1.093   3.538   4.815  0.4561 -0.2801 -0.5034
15077TIP3    H166722   1.025   3.557   4.880  1.8377  0.3434  0.8031
15077TIP3    H266723   1.132   3.455   4.845  0.5169 -0.4408 -1.0294
15078TIP3   OH266724   3.444   0.730   0.278 -0.5242 -0.5337 -0.2175
15078TIP3    H166725   3.521   0.676   0.263  0.5082  1.4828 -2.4951
15078TIP3    H266726   3.473   0.796   0.341 -0.5884 -0.1813 -0.5577
15079TIP3   OH266727   3.748   5.439   5.455 -0.1641  0.9362  0.0107
15079TIP3    H166728   3.668   5.467   5.409  1.3063  0.9886 -2.6127
15079TIP3    H266729   3.802   5.518   5.458  1.0564  0.1672 -1.0450
15080TIP3   OH266730   5.728   2.523   0.919  0.1838  0.2374  0.2737
15080TIP3    H166731   5.703   2.602   0.967  1.7597  3.2347 -3.4828
15080TIP3    H266732   5.646   2.492   0.880  0.0584  2.2009 -1.1352
15081TIP3   OH266733   1.184   6.148   6.561  0.2006 -0.9271  0.4115
15081TIP3    H166734   1.208   6.151   6.654  1.5934  0.3602  0.0392
15081TIP3    H266735   1.108   6.206   6.555 -0.6318 -1.9521  0.9452
15082TIP3   OH266736   2.774   1.702  14.510 -0.5197  0.2918 -0.1267
15082TIP3    H166737   2.856   1.712  14.462 -1.0166 -0.2352 -1.1243
15082TIP3    H266738   2.756   1.608  14.508  0.0239  0.1280  2.1124
15083TIP3   OH266739   0.391   4.540   2.452  0.3819 -0.1003  0.4337
15083TIP3    H166740   0.342   4.462   2.425 -1.5796  1.1179  0.3504
15083TIP3    H266741   0.410   4.586   2.370  0.9722 -0.1652  0.5332
15084TIP3   OH266742   4.460   3.331  12.967 -0.3977  0.1030 -0.3568
15084TIP3    H166743   4.400   3.343  12.894  0.2648 -0.2002 -0.9557
15084TIP3    H266744   4.542   3.370  12.938  0.0474 -0.5650 -0.0116
15085TIP3   OH266745   2.919   6.271  10.971 -0.3769  0.3818  0.1497
15085TIP3    H166746   2.844   6.235  10.923  0.2822  0.6502 -1.1055
15085TIP3    H266747   2.956   6.336  10.911  0.4883  0.6949  1.0190
15086TIP3   OH266748   6.584   4.285  13.573 -0.2133 -0.4837  0.3612
15086TIP3    H166749   6.551   4.271  13.661  1.3536 -2.5030  0.6752
15086TIP3    H266750   6.658   4.224  13.565 -0.7214 -0.8105 -2.5416
15087TIP3   OH266751   6.297   4.276  11.920  0.8483  0.3387  0.1886
15087TIP3    H166752   6.287   4.264  11.826 -0.0565 -0.9110  0.4280
15087TIP3    H266753   6.392   4.280  11.934  0.9851  0.5695 -0.7720
15088TIP3   OH266754   2.347   0.053  15.973  0.1742  0.1567 -0.3715
15088TIP3    H166755   2.389   0.044  16.059 -1.0879  0.3661  0.2775
15088TIP3    H266756   2.259   0.017  15.985 -0.1949  0.6818 -1.4327
15089TIP3   OH266757   4.452   6.483  14.895  0.4074  0.4157  0.0375
15089TIP3    H166758   4.547   6.477  14.905  0.4209  1.0030  0.2928
15089TIP3    H266759   4.433   6.436  14.814  0.6704 -1.5497  1.1075
15090TIP3   OH266760   1.368   0.972   3.919 -0.0842 -0.5632  0.1859
15090TIP3    H166761   1.368   0.894   3.974 -1.1008 -0.7770 -0.0988
15090TIP3    H266762   1.346   1.044   3.979 -1.6325 -0.8578  0.0019
15091TIP3   OH266763   5.722   2.659   3.810 -0.1112  0.0726  0.0192
15091TIP3    H166764   5.723   2.752   3.787  2.2208  0.1203  0.2556
15091TIP3    H266765   5.811   2.628   3.791 -0.4317 -1.7680  1.3617
15092TIP3   OH266766   5.272   4.571   5.250 -0.6631  0.1275 -0.1189
15092TIP3    H166767   5.195   4.530   5.290 -0.0298 -0.0084  0.9724
15092TIP3    H266768   5.282   4.654   5.296 -1.8241  1.4599 -2.1959
15093TIP3   OH266769   6.794   4.432  13.729 -0.3732 -0.0845 -0.6269
15093TIP3    H166770   6.794   4.340  13.704  0.1958 -0.3773  0.4213
15093TIP3    H266771   6.871   4.442  13.786 -1.0627  0.7681  0.1850
15094TIP3   OH266772   6.336   4.539  14.863  0.5207 -0.3182  0.1657
15094TIP3    H166773   6.260   4.591  14.839  0.7571  0.1530  0.4267
15094TIP3    H266774   6.301   4.452  14.881  0.3248 -0.6390 -1.6957
15095TIP3   OH266775   2.841   1.280   1.678 -0.4479 -0.3658 -0.0513
15095TIP3    H166776   2.815   1.372   1.681  1.2370  0.1601 -1.0046
15095TIP3    H266777   2.824   1.247   1.767 -1.8873  0.6218  0.0475
15096TIP3   OH266778   3.952   4.046  12.137 -0.1833 -0.2847  0.0788
15096TIP3    H166779   3.998   4.127  12.115  0.2618 -0.7444 -0.6974
15096TIP3    H266780   3.931   4.007  12.052  0.2379 -1.3393  0.4548
15097TIP3   OH266781   6.557   2.336  13.776 -0.3236 -0.3044 -1.0929
15097TIP3    H166782   6.473   2.371  13.746  0.1079  0.3970 -1.4950
15097TIP3    H266783   6.535   2.252  13.815 -1.2689  0.0448 -0.8593
15098TIP3   OH266784   4.602   4.681  13.219 -0.3264  0.0653  0.0449
15098TIP3    H166785   4.635   4.765  13.188  1.4734 -0.6855 -0.1384
15098TIP3    H266786   4.658   4.659  13.294  1.4356 -2.5307 -1.9310
15099TIP3   OH266787   5.437   6.790   5.277 -0.0500 -0.3050 -0.1369
15099TIP3    H166788   5.422   6.849   5.351  1.0760  1.8549 -1.5531
15099TIP3    H266789   5.393   6.833   5.203  1.9838 -0.4997 -1.4969
15100TIP3   OH266790   2.758   0.290   3.983  0.8001  0.8756  0.4798
15100TIP3    H166791   2.807   0.367   4.011 -0.1642  1.8801 -0.5711
15100TIP3    H266792   2.667   0.312   3.998  0.5747 -0.5216  1.2689
15101TIP3   OH266793   5.086   2.814  14.718 -0.0724 -0.3649  0.6761
15101TIP3    H166794   5.102   2.736  14.772  0.5613 -0.3576  0.5114
15101TIP3    H266795   5.140   2.882  14.758 -0.5008 -0.0505  0.7210
15102TIP3   OH266796   6.222   3.543   1.848  0.2178 -0.4584 -0.2026
15102TIP3    H166797   6.241   3.481   1.777 -1.6877 -0.6228 -0.6035
15102TIP3    H266798   6.129   3.531   1.865 -0.2671  2.5670 -0.5567
15103TIP3   OH266799   0.350   0.261  12.591  0.5110  0.2222  0.0582
15103TIP3    H166800   0.289   0.195  12.625 -2.3245  1.0248 -3.1934
15103TIP3    H266801   0.332   0.339  12.643 -0.9658  0.3320 -0.6034
15104TIP3   OH266802   5.496   2.517   0.438 -0.4177 -0.4171  0.3458
15104TIP3    H166803   5.476   2.430   0.403 -0.3590 -0.1732 -0.2974
15104TIP3    H266804   5.448   2.577   0.381  0.4165  0.0363  0.1197
15105TIP3   OH266805   4.656   5.686   1.354  0.2591 -0.1780  0.2137
15105TIP3    H166806   4.707   5.729   1.285  0.2318  1.3648  1.1243
15105TIP3    H266807   4.570   5.727   1.350 -0.2368 -1.2078  0.1313
15106TIP3   OH266808   1.752   1.035   2.326  0.6448  0.0838  0.2741
15106TIP3    H166809   1.670   1.075   2.353  1.1322  1.1165  0.2549
15106TIP3    H266810   1.763   1.061   2.235  0.6314 -0.6678  0.0541
15107TIP3   OH266811   4.485   2.672  14.240  0.0412 -0.3213 -0.3100
15107TIP3    H166812   4.553   2.622  14.195  1.1733  0.1450  0.8613
15107TIP3    H266813   4.511   2.672  14.332 -0.9894  0.7497  0.0014
15108TIP3   OH266814   6.596   5.900  11.022  0.3646 -0.3376 -0.2287
15108TIP3    H166815   6.579   5.990  10.995  0.6599  0.2715  1.5849
15108TIP3    H266816   6.610   5.853  10.940 -0.5012  1.1163 -1.2336
15109TIP3   OH266817   2.693   1.959   5.092 -0.2388  0.0425  0.4702
15109TIP3    H166818   2.644   2.007   5.026 -0.9140 -0.8681  0.2999
15109TIP3    H266819   2.782   1.993   5.085 -0.1615 -0.4735 -1.3344
15110TIP3   OH266820   5.952   1.959  12.620  0.1677  0.1156  0.2946
15110TIP3    H166821   5.881   1.967  12.557 -2.3959 -0.4966  3.0202
15110TIP3    H266822   5.975   1.866  12.618  0.4679  0.1944 -0.0995
15111TIP3   OH266823   5.754   6.704   6.320 -0.5354  0.1731 -0.4871
15111TIP3    H166824   5.686   6.764   6.349  0.8804  1.3416  0.4938
15111TIP3    H266825   5.833   6.734   6.364  0.4765 -1.6158 -1.0121
15112TIP3   OH266826   5.623   1.377   3.819 -0.0683  0.1566 -0.3569
15112TIP3    H166827   5.556   1.354   3.883  0.6308  0.6000  0.5504
15112TIP3    H266828   5.575   1.390   3.737 -0.8858 -1.1174 -0.0990
15113TIP3   OH266829   0.236   6.181  17.202  0.2693 -0.0822  0.1072
15113TIP3    H166830   0.233   6.276  17.214 -0.0752 -0.1500  0.5955
15113TIP3    H266831   0.298   6.167  17.130 -1.4581  0.6621 -1.5772
15114TIP3   OH266832   3.447   0.317   6.780 -0.1595 -0.2817  0.0234
15114TIP3    H166833   3.425   0.242   6.835  0.4225 -0.7369 -0.3646
15114TIP3    H266834   3.426   0.393   6.835 -0.8890 -0.7166  0.3594
15115TIP3   OH266835   0.073   2.065  15.564 -0.0294  0.2801 -0.1627
15115TIP3    H166836   0.087   2.121  15.488 -0.7056  1.6621  0.7044
15115TIP3    H266837   0.010   1.999  15.535 -0.7241  1.1507 -0.6270
15116TIP3   OH266838   4.340   0.933  12.085  0.0535  0.5385 -0.1770
15116TIP3    H166839   4.313   0.864  12.024 -1.9449  0.5745  0.6320
15116TIP3    H266840   4.417   0.896  12.129  2.0437  0.8297 -3.2269
15117TIP3   OH266841   2.395   2.063  16.678 -0.1925  0.0647 -0.0607
15117TIP3    H166842   2.479   2.092  16.714 -0.8675  0.8764  0.8931
15117TIP3    H266843   2.335   2.064  16.753 -1.2067  0.0940 -0.8600
15118TIP3   OH266844   6.796   2.336   0.882  0.5199  0.0291  0.1725
15118TIP3    H166845   6.849   2.330   0.802 -0.7050 -0.3271 -0.6379
15118TIP3    H266846   6.837   2.406   0.933  1.0543  0.5687 -0.9721
15119TIP3   OH266847   0.355   1.355   0.631 -0.1488  0.3709 -0.6558
15119TIP3    H166848   0.292   1.342   0.702 -2.4700  2.5654 -2.2590
15119TIP3    H266849   0.312   1.320   0.553  1.5654 -0.1791 -1.3950
15120TIP3   OH266850   4.233   6.735  11.619 -0.8918  0.4383 -0.2120
15120TIP3    H166851   4.197   6.791  11.688 -2.1006 -0.5035 -0.0540
15120TIP3    H266852   4.156   6.706  11.569 -0.1592 -0.0092 -1.0982
15121TIP3   OH266853   4.111   5.416  12.060  0.1548 -0.8032  0.4023
15121TIP3    H166854   4.119   5.411  12.155 -1.0663  0.4780  0.5970
15121TIP3    H266855   4.018   5.403  12.043  0.0150  1.1222 -0.4402
15122TIP3   OH266856   6.539   3.043   0.696  0.4876 -0.5788  0.6140
15122TIP3    H166857   6.544   3.002   0.609 -0.5206  0.8264 -0.1327
15122TIP3    H266858   6.629   3.040   0.729  1.8739  2.8668 -2.4079
15123TIP3   OH266859   1.110   4.017   1.568  0.0490  0.2385  0.1488
15123TIP3    H166860   1.094   4.095   1.515 -0.0426 -1.4603 -2.4715
15123TIP3    H266861   1.025   3.973   1.573  0.3899 -0.4103  0.3419
15124TIP3   OH266862   5.787   4.727  13.619  0.5896 -0.3418 -0.2192
15124TIP3    H166863   5.810   4.637  13.593  0.4527 -0.5874  0.4907
15124TIP3    H266864   5.857   4.753  13.679 -0.1074 -0.5017  0.6851
15125TIP3   OH266865   2.534   0.386   4.108  0.3093 -0.4467  0.0230
15125TIP3    H166866   2.550   0.477   4.084 -0.9597 -0.6761 -1.8340
15125TIP3    H266867   2.439   0.379   4.112  0.4218 -1.4798  1.0498
15126TIP3   OH266868   2.656   4.369  15.090 -0.7011 -0.1405  0.3552
15126TIP3    H166869   2.663   4.446  15.033  0.0529  0.6533  1.4897
15126TIP3    H266870   2.747   4.347  15.111 -0.8692 -1.8705 -0.6231
15127TIP3   OH266871   3.915   6.168   5.660 -0.3004 -0.5440 -0.0907
15127TIP3    H166872   3.953   6.181   5.747  1.5170 -1.6718 -0.6964
15127TIP3    H266873   3.823   6.145   5.677 -0.6769  1.9449  1.3971
15128TIP3   OH266874   2.339   1.281   4.335 -0.2604 -0.3197  0.2842
15128TIP3    H166875   2.320   1.374   4.348 -0.1847  0.3027 -3.4586
15128TIP3    H266876   2.433   1.274   4.351 -0.1148  0.4313 -0.2073
15129TIP3   OH266877   2.302   1.285  14.589  0.0902 -0.4686 -0.0824
15129TIP3    H166878   2.299   1.190  14.595  0.0371 -0.3411  2.9288
15129TIP3    H266879   2.247   1.306  14.514  0.2138 -2.8046 -0.8689
15130TIP3   OH266880   5.373   0.144  13.553 -0.4437 -0.1085  0.7569
15130TIP3    H166881   5.306   0.179  13.611  1.3853 -0.1158  2.9420
15130TIP3    H266882   5.429   0.219  13.534 -0.5334 -0.3069 -0.3082
15131TIP3   OH266883   6.439   0.144   6.462  0.0160  0.2547 -0.1632
15131TIP3    H166884   6.451   0.168   6.554  1.0649  0.1222 -0.2530
15131TIP3    H266885   6.467   0.221   6.413 -0.5284  0.3197 -0.3667
15132TIP3   OH266886   1.023   6.171   6.003  0.5111 -0.0691 -0.8458
15132TIP3    H166887   1.042   6.144   6.093 -1.4865  0.7129 -0.1659
15132TIP3    H266888   0.931   6.198   6.005  1.1679  2.4666 -2.5386
15133TIP3   OH266889   0.173   1.542   3.149 -0.1617 -0.1615 -1.2131
15133TIP3    H166890   0.265   1.522   3.132  0.3330 -0.7266  1.8736
15133TIP3    H266891   0.139   1.463   3.191 -1.1955  1.2438  0.6345
15134TIP3   OH266892   2.152   4.752  15.516 -0.7353 -0.9276  0.3373
15134TIP3    H166893   2.098   4.794  15.449  1.3794 -0.0602 -0.8721
15134TIP3    H266894   2.134   4.658  15.506 -0.9583 -0.7513 -1.0152
15135TIP3   OH266895   3.167   3.927   4.264 -0.2962  0.0785 -0.3367
15135TIP3    H166896   3.100   3.952   4.328 -0.0819 -2.6429  1.0146
15135TIP3    H266897   3.127   3.857   4.213  0.6547  0.1353 -1.1721
15136TIP3   OH266898   6.305   1.858   4.518  0.1130  0.2362 -0.2102
15136TIP3    H166899   6.304   1.779   4.464  0.2514  0.2671 -0.2576
15136TIP3    H266900   6.396   1.866   4.547  0.1582  0.5360 -0.4349
15137TIP3   OH266901   4.309   1.389   2.629 -0.4889 -0.0871 -0.0247
15137TIP3    H166902   4.266   1.393   2.714 -0.1751  1.2003  0.0897
15137TIP3    H266903   4.295   1.299   2.599 -0.9097 -0.4494  1.2165
15138TIP3   OH266904   2.881   2.212  12.672 -0.4102  0.4021  0.1373
15138TIP3    H166905   2.869   2.244  12.582 -0.4491  1.4985  0.5288
15138TIP3    H266906   2.792   2.189  12.700 -0.4272  0.2605 -0.0266
15139TIP3   OH266907   3.812   4.715   4.099  0.6016 -0.1864 -0.2632
15139TIP3    H166908   3.793   4.736   4.008  0.7236 -0.4846 -0.3609
15139TIP3    H266909   3.903   4.684   4.098  0.3079 -1.0613 -0.1872
15140TIP3   OH266910   1.090   4.287   1.836 -0.2071 -0.3445 -0.1757
15140TIP3    H166911   1.102   4.193   1.839 -2.0613 -0.5970 -0.1210
15140TIP3    H266912   1.082   4.314   1.928  0.4720 -0.1032 -0.1819
15141TIP3   OH266913   6.711   4.928   0.040  0.2876 -0.0505  0.3018
15141TIP3    H166914   6.621   4.925   0.007  0.3301 -0.6841  0.2280
15141TIP3    H266915   6.746   5.010   0.006  0.4198 -0.8212 -1.4927
15142TIP3   OH266916   5.211   4.842   4.936 -0.1263 -0.1223  0.1864
15142TIP3    H166917   5.186   4.924   4.978  0.7117 -0.3462  1.1324
15142TIP3    H266918   5.136   4.784   4.952 -0.4701  0.2681  0.0184
15143TIP3   OH266919   0.734   1.363   3.771  0.4405 -0.9767  0.1996
15143TIP3    H166920   0.733   1.407   3.856  1.4257 -0.6548  0.0491
15143TIP3    H266921   0.720   1.271   3.791 -1.1673 -0.6708  0.5567
15144TIP3   OH266922   3.692   5.138  15.745  0.1252 -0.7444 -0.2661
15144TIP3    H166923   3.713   5.046  15.756  0.9794 -0.9223 -2.9157
15144TIP3    H266924   3.776   5.180  15.727 -0.6137  0.0141 -2.0894
15145TIP3   OH266925   0.476   0.355   1.158 -0.1331 -0.1066 -0.2309
15145TIP3    H166926   0.486   0.404   1.239  0.6936  0.5956 -0.7398
15145TIP3    H266927   0.405   0.293   1.175  1.2988 -1.2822  1.6397
15146TIP3   OH266928   2.022   6.411  16.816 -0.0972  0.4781 -0.3551
15146TIP3    H166929   1.960   6.412  16.888 -0.1887  0.2840 -0.4294
15146TIP3    H266930   1.974   6.445  16.741 -0.6003 -1.1157 -0.7881
15147TIP3   OH266931   3.098   1.907  14.834  0.2597  0.3471 -0.3621
15147TIP3    H166932   3.013   1.896  14.878  0.2731 -0.2319 -0.4790
15147TIP3    H266933   3.103   1.833  14.773  1.1898 -0.0484  0.1960
15148TIP3   OH266934   3.541   2.591   1.040 -0.2789  0.2632 -0.3280
15148TIP3    H166935   3.583   2.562   1.121  2.0253  0.7775 -1.2932
15148TIP3    H266936   3.492   2.515   1.009 -0.4662 -0.1962  1.0829
15149TIP3   OH266937   1.528   3.283  15.643  0.4380  0.3412  0.4599
15149TIP3    H166938   1.554   3.375  15.643 -0.7776  0.7023  0.8994
15149TIP3    H266939   1.476   3.273  15.723 -0.5526 -0.3983 -0.2583
15150TIP3   OH266940   0.527   1.538  11.575  0.3994 -0.4338 -0.1727
15150TIP3    H166941   0.541   1.629  11.550 -1.1845 -0.3735 -0.9125
15150TIP3    H266942   0.541   1.537  11.669  1.1398  0.4326 -0.2668
15151TIP3   OH266943   0.031   2.906  14.891  0.6716  0.0022 -0.2866
15151TIP3    H166944  -0.016   2.858  14.823 -0.7278  0.4465  0.3533
15151TIP3    H266945  -0.019   2.987  14.901  1.2491  0.2206  0.8084
15152TIP3   OH266946   5.856   5.412   5.384  0.1637  0.1228 -0.0259
15152TIP3    H166947   5.871   5.358   5.461  2.7043  0.6843 -0.0642
15152TIP3    H266948   5.879   5.501   5.412  1.6867  0.2485 -1.5479
15153TIP3   OH266949   2.946   4.383   0.855 -0.2390 -0.2029 -0.8383
15153TIP3    H166950   3.013   4.387   0.787  2.8713 -0.0534  2.0741
15153TIP3    H266951   2.950   4.469   0.898 -0.3201 -1.1267  1.1054
15154TIP3   OH266952   4.226   5.799  17.152  0.0329  0.2251  0.5137
15154TIP3    H166953   4.236   5.890  17.125 -0.0838  0.2980  0.7173
15154TIP3    H266954   4.297   5.785  17.214 -0.9728  0.6743  1.7757
15155TIP3   OH266955   0.600   5.015  14.939  0.7672  0.3362  1.0681
15155TIP3    H166956   0.622   5.103  14.906 -0.1545  0.6268  1.2140
15155TIP3    H266957   0.679   4.986  14.984  0.7514  1.4946  1.8641
15156TIP3   OH266958   2.568   6.313   2.019  0.3550 -0.1543 -0.3429
15156TIP3    H166959   2.535   6.321   1.930 -1.7140 -0.7990  0.3336
15156TIP3    H266960   2.604   6.225   2.024 -0.8224 -0.6435 -0.1633
15157TIP3   OH266961   4.852   2.835   1.357  0.0618 -0.3035 -0.2940
15157TIP3    H166962   4.858   2.766   1.291  2.1359 -1.0528  0.6426
15157TIP3    H266963   4.870   2.916   1.309  0.3530 -0.7073 -0.8686
15158TIP3   OH266964   1.799   4.438   3.522 -0.2535  0.2848 -0.0962
15158TIP3    H166965   1.724   4.442   3.581 -0.7753  0.3409 -0.7552
15158TIP3    H266966   1.869   4.400   3.575 -0.9527 -0.4664  0.3160
15159TIP3   OH266967   3.451   6.484   6.167 -0.7271  0.3343  0.3734
15159TIP3    H166968   3.545   6.479   6.151 -0.8263 -1.2960  0.1932
15159TIP3    H266969   3.440   6.454   6.258 -0.8792  2.5514  1.1146
15160TIP3   OH266970   5.283   2.875  14.248 -0.4641 -0.1815 -0.0185
15160TIP3    H166971   5.293   2.900  14.340  0.9861 -1.3313  0.1707
15160TIP3    H266972   5.294   2.956  14.199  2.4467 -0.1007  0.6495
15161TIP3   OH266973   3.516   1.176   2.167 -0.4431 -0.1655  0.4614
15161TIP3    H166974   3.570   1.252   2.142  0.9138 -0.9711  0.8853
15161TIP3    H266975   3.502   1.186   2.261  0.6981 -1.0148  0.7378
15162TIP3   OH266976   6.102   6.314   3.686  0.3958 -0.2073  0.2154
15162TIP3    H166977   6.100   6.259   3.608  0.7315  1.3072 -0.8887
15162TIP3    H266978   6.104   6.252   3.759 -3.3659 -1.6619 -0.8179
15163TIP3   OH266979   0.697   4.124   2.027 -0.0289  0.2426 -0.0664
15163TIP3    H166980   0.736   4.038   2.015 -3.3588 -1.6299  1.7961
15163TIP3    H266981   0.768   4.178   2.062  2.0214 -1.8321 -0.9370
15164TIP3   OH266982   4.487   0.074  12.175 -0.1283  0.5134 -0.1046
15164TIP3    H166983   4.465   0.165  12.196  0.2116  0.7487 -0.7577
15164TIP3    H266984   4.403   0.032  12.158 -0.2193  0.9156 -0.6400
15165TIP3   OH266985   5.277   3.202   0.263  0.3195 -0.4947  0.2519
15165TIP3    H166986   5.250   3.140   0.196  2.2635 -1.3436  0.2217
15165TIP3    H266987   5.345   3.255   0.221 -0.0809  0.5135  0.8345
15166TIP3   OH266988   4.470   2.748  13.067  0.1588  0.3518  0.2454
15166TIP3    H166989   4.390   2.699  13.050  0.4439  0.4127 -1.3813
15166TIP3    H266990   4.455   2.834  13.027  0.4643  0.8902  1.2583
15167TIP3   OH266991   6.134   6.793   5.555  0.9832  0.0760 -0.0529
15167TIP3    H166992   6.064   6.771   5.494  0.5945 -0.0209  0.4272
15167TIP3    H266993   6.089   6.814   5.637  1.4888  0.4109  0.1415
15168TIP3   OH266994   5.449   4.103   2.962  1.1928 -0.1015 -0.1707
15168TIP3    H166995   5.395   4.131   2.889  2.0368 -0.8330 -1.0853
15168TIP3    H266996   5.515   4.171   2.972  0.1391  0.7750  0.9242
15169TIP3   OH266997   6.686   1.175  12.513  0.8879  0.0990 -0.3692
15169TIP3    H166998   6.667   1.202  12.423 -0.0893  1.1905  0.1557
15169TIP3    H266999   6.740   1.247  12.548  2.5438 -1.0256 -0.5418
15170TIP3   OH267000   6.409   1.156  15.439 -0.0443 -0.5262 -0.4265
15170TIP3    H167001   6.345   1.206  15.389  0.1732  1.0574  0.8130
15170TIP3    H267002   6.358   1.116  15.510  0.4801  1.6157  1.1913
15171TIP3   OH267003   3.435   2.049   0.862 -0.0301  0.0023  0.2808
15171TIP3    H167004   3.415   1.994   0.787 -1.1979  2.3895 -1.2150
15171TIP3    H267005   3.530   2.064   0.857  0.2205 -1.4639  0.4584
15172TIP3   OH267006   1.440   1.690  11.768  0.3234  0.0170 -0.1449
15172TIP3    H167007   1.429   1.733  11.684  0.1250 -3.2119 -1.8337
15172TIP3    H267008   1.529   1.713  11.796  0.4305  0.9974 -1.2836
15173TIP3   OH267009   2.571   0.647   1.289  0.1959 -0.3179  0.0600
15173TIP3    H167010   2.613   0.564   1.264  0.5057 -0.8767  2.3510
15173TIP3    H267011   2.621   0.714   1.242 -0.1019 -1.4122 -1.8664
15174TIP3   OH267012   1.007   4.052   0.785  0.0482 -0.0672  0.3068
15174TIP3    H167013   0.994   4.002   0.865 -1.1529 -0.0116  0.1483
15174TIP3    H267014   0.959   4.134   0.800 -0.7874 -0.3551 -0.7509
15175TIP3   OH267015   4.039   0.760   3.609 -0.0162 -0.0974  0.0879
15175TIP3    H167016   3.967   0.765   3.546 -0.0101  1.0928  0.1572
15175TIP3    H267017   4.069   0.851   3.618  0.3327 -0.3312  1.3920
15176TIP3   OH267018   6.597   2.543   3.819 -0.5976 -0.0535  0.2307
15176TIP3    H167019   6.613   2.557   3.725 -0.4330  2.0000  0.5352
15176TIP3    H267020   6.530   2.608   3.841  1.1743  1.1951  2.0475
15177TIP3   OH267021   6.342   1.178   3.500 -0.2576  0.0242  0.5704
15177TIP3    H167022   6.251   1.200   3.480 -0.5412 -1.6749 -0.1565
15177TIP3    H267023   6.366   1.235   3.573 -2.2273 -0.1759  1.3991
15178TIP3   OH267024   6.641   2.562  11.314  0.7698  0.3921  0.1959
15178TIP3    H167025   6.612   2.508  11.387  1.6534  0.5030  0.6348
15178TIP3    H267026   6.565   2.567  11.256  0.6713 -1.3106  0.1527
15179TIP3   OH267027   2.385   1.405   4.038 -0.1869 -0.2828  0.4298
15179TIP3    H167028   2.413   1.389   4.128 -0.6231 -1.5531  0.3485
15179TIP3    H267029   2.325   1.333   4.018 -2.0631  1.3434 -0.0280
15180TIP3   OH267030   5.374   0.225   4.617 -0.3361 -0.3095  0.6343
15180TIP3    H167031   5.368   0.280   4.539 -1.0181 -1.5149 -0.1693
15180TIP3    H267032   5.412   0.283   4.683  0.9828  0.5121 -0.7961
15181TIP3   OH267033   5.715   5.560  14.398  0.6289 -0.1715  0.1868
15181TIP3    H167034   5.720   5.598  14.485  0.8074 -0.3868  0.2723
15181TIP3    H267035   5.696   5.633  14.340 -1.5954 -0.3416  0.6597
15182TIP3   OH267036   1.982   2.474   5.053 -0.1238  0.4480 -0.3143
15182TIP3    H167037   1.902   2.520   5.079  0.6779  2.4215 -1.2402
15182TIP3    H267038   1.953   2.410   4.988 -0.9961  0.9468 -0.4242
15183TIP3   OH267039   3.357   6.682  11.726  0.0049 -0.2818  0.1996
15183TIP3    H167040   3.364   6.672  11.821  3.1358 -0.3951  0.0098
15183TIP3    H267041   3.363   6.777  11.712  3.9754 -0.4616 -0.0704
15184TIP3   OH267042   4.686   2.505  14.157  0.4835  0.6133  0.2426
15184TIP3    H167043   4.703   2.411  14.159 -0.3420  0.4103 -1.6706
15184TIP3    H267044   4.773   2.545  14.149  0.8108  0.0199  0.7640
15185TIP3   OH267045   4.236   4.380   3.972  0.2265  0.0868 -0.8092
15185TIP3    H167046   4.217   4.336   4.054  0.9300  1.4699  0.1173
15185TIP3    H267047   4.159   4.364   3.917  1.4259 -4.2427 -1.3802
15186TIP3   OH267048   4.659   1.846   3.494  0.6159  0.4124 -0.2888
15186TIP3    H167049   4.711   1.819   3.418  2.2478  1.1120  0.5454
15186TIP3    H267050   4.625   1.932   3.472  0.3135  0.2107 -0.6026
15187TIP3   OH267051   1.288   3.778  14.397  0.1106 -0.2653 -0.3285
15187TIP3    H167052   1.248   3.739  14.320  2.9010 -0.7426 -1.6054
15187TIP3    H267053   1.278   3.712  14.466  0.3416 -1.1329 -1.1209
15188TIP3   OH267054   5.998   2.903  11.304 -1.0035  0.1905 -0.0508
15188TIP3    H167055   6.054   2.931  11.232 -0.1262 -1.0739  0.1130
15188TIP3    H267056   5.963   2.984  11.341 -0.3847  0.9173 -1.0391
15189TIP3   OH267057   6.569   5.161   0.390  0.0541  0.3877  0.1199
15189TIP3    H167058   6.610   5.208   0.463 -3.2224 -0.7125  2.8057
15189TIP3    H267059   6.556   5.227   0.323  1.3029  1.8904  1.3190
15190TIP3   OH267060   3.959   3.580  13.123 -0.0238 -0.1168 -0.1687
15190TIP3    H167061   3.914   3.641  13.065 -1.6634 -2.5271 -1.4911
15190TIP3    H267062   3.992   3.512  13.065  2.4857 -0.0962  1.1979
15191TIP3   OH267063   0.585   3.394   6.087 -0.6886 -0.3678  0.2866
15191TIP3    H167064   0.559   3.333   6.156 -1.0880  1.3236  1.6508
15191TIP3    H267065   0.594   3.339   6.009 -3.0233 -1.8482  1.0285
15192TIP3   OH267066   4.516   2.128  17.018  0.7192  0.3882 -0.5339
15192TIP3    H167067   4.513   2.034  17.036  0.3468  0.5726  0.4007
15192TIP3    H267068   4.462   2.167  17.087  1.0464  1.3016 -0.7923
15193TIP3   OH267069   6.230   5.882   0.186 -0.2571  0.1318  0.0315
15193TIP3    H167070   6.296   5.920   0.244 -2.2378 -1.1183  3.2447
15193TIP3    H267071   6.248   5.788   0.188 -2.2631 -0.2478  1.1607
15194TIP3   OH267072   0.967   3.690  12.709  0.1392 -0.2000  0.8992
15194TIP3    H167073   0.945   3.677  12.617 -0.3351 -0.3199  1.0244
15194TIP3    H267074   1.028   3.763  12.710 -1.6942  1.3780  0.6955
15195TIP3   OH267075   6.677   2.134  16.165 -0.4537  0.4900  0.2536
15195TIP3    H167076   6.629   2.107  16.243  0.3476 -1.1540  0.2001
15195TIP3    H267077   6.609   2.148  16.099 -1.0008  0.0147  0.7071
15196TIP3   OH267078   3.512   0.401   2.980  0.1466 -0.3365  0.1893
15196TIP3    H167079   3.502   0.339   2.907  0.4849 -0.0898 -0.0722
15196TIP3    H267080   3.523   0.346   3.057 -1.5421 -0.6149  0.2605
15197TIP3   OH267081   4.721   0.384   6.461  0.4735  0.3437  0.1000
15197TIP3    H167082   4.742   0.473   6.433  0.4613  0.1921 -0.3994
15197TIP3    H267083   4.628   0.373   6.440  0.8932 -0.3808 -1.4748
15198TIP3   OH267084   3.445   2.337   4.136 -0.3383 -0.2481 -0.0489
15198TIP3    H167085   3.357   2.367   4.112 -0.5691  1.0423  2.2505
15198TIP3    H267086   3.491   2.326   4.052 -1.6867  2.1987 -1.1484
15199TIP3   OH267087   2.147   0.900   0.617  0.1146  0.1437  0.0876
15199TIP3    H167088   2.080   0.913   0.685 -1.3925 -0.0771 -1.3311
15199TIP3    H267089   2.141   0.979   0.563  1.4187  0.3909  0.2971
15200TIP3   OH267090   4.095   6.266  11.681  0.2766  0.0296 -0.4503
15200TIP3    H167091   4.177   6.316  11.685 -0.0277  0.6294 -1.4857
15200TIP3    H267092   4.026   6.333  11.682 -0.1511 -0.3825 -1.4164
15201TIP3   OH267093   5.129   4.559   2.092  0.2372 -0.0808  0.1165
15201TIP3    H167094   5.132   4.502   2.169  1.2943  0.8672  0.8052
15201TIP3    H267095   5.070   4.630   2.118  2.3243  1.4415  0.9656
15202TIP3   OH267096   5.787   4.429   4.931 -0.0257 -0.6202  0.5833
15202TIP3    H167097   5.782   4.500   4.867  2.2772 -0.2481  0.7652
15202TIP3    H267098   5.878   4.399   4.927 -0.4696 -2.2639  1.9064
15203TIP3   OH267099   3.886   5.487  11.349 -0.4942  0.3999 -0.1226
15203TIP3    H167100   3.887   5.534  11.433  1.0217  0.4091 -0.1316
15203TIP3    H267101   3.797   5.452  11.343 -1.2419  2.1175  0.5221
15204TIP3   OH267102   0.554   3.758  16.702 -0.6413  0.3632 -0.3677
15204TIP3    H167103   0.534   3.728  16.791 -0.1496  0.2152 -0.3076
15204TIP3    H267104   0.624   3.821  16.714 -0.4396  0.1958 -0.6729
15205TIP3   OH267105   3.589   6.117   2.506  0.4518  0.0024  0.2679
15205TIP3    H167106   3.667   6.131   2.559  0.5880  0.2631 -0.0008
15205TIP3    H267107   3.614   6.145   2.418 -0.6127  2.1727  0.6253
15206TIP3   OH267108   5.095   2.381  11.158  0.3009  0.3561  0.3165
15206TIP3    H167109   5.164   2.447  11.149  0.5491  0.0301 -0.2265
15206TIP3    H267110   5.015   2.432  11.174  0.5361  0.7765  0.1712
15207TIP3   OH267111   1.218   5.442   1.053 -0.4364  0.5202  0.2338
15207TIP3    H167112   1.143   5.490   1.088  0.1232  0.8029  1.0623
15207TIP3    H267113   1.179   5.366   1.009 -1.2960  1.4828 -0.7004
15208TIP3   OH267114   6.254   0.281   2.128 -0.0126 -0.5114 -0.1344
15208TIP3    H167115   6.334   0.277   2.181 -0.8582 -1.0596  1.1443
15208TIP3    H267116   6.281   0.323   2.047  1.5410 -0.5455  0.3402
15209TIP3   OH267117   6.697   3.396   3.519  0.1382 -0.1192  0.1354
15209TIP3    H167118   6.675   3.476   3.567 -0.6773 -0.3737  0.1875
15209TIP3    H267119   6.768   3.357   3.570 -2.3662 -1.6729  2.5886
15210TIP3   OH267120   3.798   1.252  11.898  0.4775  0.0295  0.3423
15210TIP3    H167121   3.775   1.345  11.892  1.1320  0.1498 -0.4074
15210TIP3    H267122   3.714   1.207  11.899  0.1562  0.6189  0.4731
15211TIP3   OH267123   6.816   2.937   0.747 -0.1239  0.8030  0.1149
15211TIP3    H167124   6.852   2.925   0.659  2.9326  1.4453  1.1955
15211TIP3    H267125   6.794   2.849   0.777  1.1949  0.2930 -0.3753
15212TIP3   OH267126   5.013   1.591  15.891 -0.6659  0.1816  0.6728
15212TIP3    H167127   4.953   1.602  15.817 -1.1308 -2.3826  0.6159
15212TIP3    H267128   4.976   1.518  15.940  1.2578 -0.0339  1.8272
15213TIP3   OH267129   5.838   3.708   3.911  0.0489 -0.3940  0.0804
15213TIP3    H167130   5.780   3.730   3.838  0.4278  1.7579  0.3866
15213TIP3    H267131   5.917   3.760   3.894  0.6985 -0.9899  1.2603
15214TIP3   OH267132   6.470   6.420  15.523  0.0337  0.3394 -0.0328
15214TIP3    H167133   6.393   6.380  15.482  1.4573 -2.0620 -0.4841
15214TIP3    H267134   6.532   6.432  15.450  2.4492 -3.6209  1.2096
15215TIP3   OH267135   3.502   6.733   3.941  0.5876  0.3682 -0.2133
15215TIP3    H167136   3.465   6.771   3.861 -0.6770  0.1230  0.2405
15215TIP3    H267137   3.501   6.805   4.004  0.4411  0.2278 -0.0575
15216TIP3   OH267138   5.454   6.189   3.868 -0.3444  0.6079  0.0141
15216TIP3    H167139   5.457   6.271   3.820 -1.6029  0.9794  0.5495
15216TIP3    H267140   5.365   6.157   3.855 -0.1352 -0.2081  0.5735
15217TIP3   OH267141   4.113   4.048  16.836 -0.4273  0.1518  0.4636
15217TIP3    H167142   4.115   4.100  16.916 -1.0089  0.5167  0.2469
15217TIP3    H267143   4.142   4.109  16.768 -0.5522  0.0209  0.2961
15218TIP3   OH267144   3.662   1.877  16.817  0.3842 -0.4002  0.8148
15218TIP3    H167145   3.726   1.815  16.852  1.1545  0.0147  0.1722
15218TIP3    H267146   3.705   1.912  16.739 -1.0582 -0.8917 -0.2172
15219TIP3   OH267147   3.210   6.335   3.449  0.2707 -0.2005  0.4696
15219TIP3    H167148   3.303   6.354   3.464  1.0681 -2.3835 -1.4909
15219TIP3    H267149   3.198   6.245   3.480 -0.1510 -1.4823 -3.1190
15220TIP3   OH267150   1.635   1.198  12.571 -0.1926  0.7180 -0.0110
15220TIP3    H167151   1.650   1.262  12.640  0.9670  0.3219  0.1057
15220TIP3    H267152   1.658   1.243  12.490 -1.8881  1.2989 -0.1942
15221TIP3   OH267153   6.613   2.032  12.969  0.1511  0.2226  0.2839
15221TIP3    H167154   6.631   2.124  12.990 -0.3360  0.2592  0.5538
15221TIP3    H267155   6.538   2.036  12.910  1.2258  0.0944 -1.0972
15222TIP3   OH267156   6.306   2.000   1.347  0.5405 -0.1663 -0.9973
15222TIP3    H167157   6.363   2.004   1.270  0.2215 -0.8224 -1.2717
15222TIP3    H267158   6.260   2.084   1.347  0.9834  0.0793 -1.1776
15223TIP3   OH267159   1.607   3.268  16.695  0.1841  0.2373 -0.1714
15223TIP3    H167160   1.577   3.206  16.761  1.0646 -0.4928 -0.4524
15223TIP3    H267161   1.527   3.313  16.667 -0.4053 -0.4921  0.3216
15224TIP3   OH267162   6.318   2.354   1.640 -0.0719  0.8551  0.0672
15224TIP3    H167163   6.284   2.403   1.714  0.2613  2.0912 -0.5741
15224TIP3    H267164   6.241   2.331   1.588 -0.3046 -0.0219  0.8020
15225TIP3   OH267165   2.903   6.576  15.657 -0.6333  0.4478 -0.3010
15225TIP3    H167166   2.922   6.566  15.564 -0.3335  0.6322 -0.2631
15225TIP3    H267167   2.826   6.522  15.673 -0.5774  0.2764 -0.6198
15226TIP3   OH267168   3.587   5.686  17.110  0.4352  0.4236 -0.9088
15226TIP3    H167169   3.497   5.661  17.091  0.9485 -2.3182 -0.0467
15226TIP3    H267170   3.596   5.673  17.204  1.9331 -0.0901 -1.1089
15227TIP3   OH267171   5.661   5.438  12.084 -0.4068 -0.3889 -0.1006
15227TIP3    H167172   5.660   5.346  12.112  0.4978  0.0579  1.4421
15227TIP3    H267173   5.569   5.460  12.070 -0.6594 -1.3930 -0.0517
15228TIP3   OH267174   0.981   0.032   2.615 -0.3194 -0.5506  0.1654
15228TIP3    H167175   0.958   0.079   2.695 -0.7198 -0.7251  0.1546
15228TIP3    H267176   0.951   0.089   2.544 -0.8338 -0.8339  0.1531
15229TIP3   OH267177   0.102   1.918  12.257 -0.3649  0.0117 -0.2595
15229TIP3    H167178   0.084   1.970  12.179  1.9473  1.0437 -0.1601
15229TIP3    H267179   0.082   1.977  12.330 -1.2743 -0.5065 -0.0843
15230TIP3   OH267180   4.596   1.396  15.273 -0.6997 -0.1634 -0.1135
15230TIP3    H167181   4.618   1.440  15.355  1.6166 -0.0269 -0.7700
15230TIP3    H267182   4.511   1.356  15.289 -0.3438 -0.0139  2.3062
15231TIP3   OH267183   6.444   5.303   5.650 -0.4797 -0.0137  0.3561
15231TIP3    H167184   6.357   5.336   5.674 -0.8458 -1.8508  1.6608
15231TIP3    H267185   6.459   5.230   5.710  1.7481 -0.0649 -0.2164
15232TIP3   OH267186   1.983   1.865   1.483  0.3086 -0.5827  0.3254
15232TIP3    H167187   1.994   1.944   1.430 -0.1836 -1.0329 -0.4487
15232TIP3    H267188   1.987   1.793   1.421  2.6195 -1.3145  1.2440
15233TIP3   OH267189   3.223   4.241   1.720 -0.1724  0.0335 -0.1367
15233TIP3    H167190   3.209   4.158   1.675 -0.5175 -0.5344  0.9849
15233TIP3    H267191   3.147   4.249   1.778  0.8067  0.1872  1.1506
15234TIP3   OH267192   0.560   4.734   1.802 -0.0088  0.6403 -0.1543
15234TIP3    H167193   0.618   4.714   1.876  2.0475  2.1325 -1.2938
15234TIP3    H267194   0.606   4.700   1.725 -1.0887  1.0235 -0.9858
15235TIP3   OH267195   2.768   4.719  17.059  0.0680 -0.4300 -0.4197
15235TIP3    H167196   2.798   4.640  17.014  0.0529 -0.7708  0.1681
15235TIP3    H267197   2.806   4.713  17.146 -2.4284 -1.3422  0.6614
15236TIP3   OH267198   4.736   1.205   5.644  0.1092 -0.2998  0.3731
15236TIP3    H167199   4.696   1.118   5.643  1.0100 -0.7222 -1.4788
15236TIP3    H267200   4.788   1.207   5.723 -0.2258 -1.3063  0.6301
15237TIP3   OH267201   3.834   5.617  14.100  0.1028 -0.0811  0.4980
15237TIP3    H167202   3.822   5.600  14.006  0.0060 -0.6842  0.6189
15237TIP3    H267203   3.871   5.705  14.103  2.4598 -1.0028 -0.2348
15238TIP3   OH267204   1.774   2.345  16.381 -0.0259 -0.2973  0.5657
15238TIP3    H167205   1.693   2.295  16.370  0.7216 -1.5286  0.5064
15238TIP3    H267206   1.792   2.340  16.475  0.8231 -1.3907  0.3537
15239TIP3   OH267207   2.846   6.177  10.580 -0.1923 -0.1511  0.1539
15239TIP3    H167208   2.778   6.117  10.609  0.4342 -0.4613  0.9783
15239TIP3    H267209   2.871   6.145  10.494 -2.5123  1.1518 -1.0866
15240TIP3   OH267210   3.797   2.086  13.151 -0.2167 -0.9252 -0.8478
15240TIP3    H167211   3.822   2.174  13.125 -0.1377 -1.3963 -2.4234
15240TIP3    H267212   3.880   2.038  13.160 -0.3430 -1.3290 -1.8096
15241TIP3   OH267213   3.788   2.042  11.833  0.3947  0.1127  0.0811
15241TIP3    H167214   3.851   2.113  11.838 -0.7601  1.0159  2.1071
15241TIP3    H267215   3.826   1.972  11.886  1.2685 -0.6032 -1.4586
15242TIP3   OH267216   2.999   2.222  13.003 -0.3363 -0.3298 -0.0454
15242TIP3    H167217   2.936   2.257  13.066 -0.2721 -1.1616  0.4820
15242TIP3    H267218   2.992   2.280  12.927  1.2389  2.0257  1.5828
15243TIP3   OH267219   0.482   4.071   0.073 -0.0946 -0.2779  0.2581
15243TIP3    H167220   0.497   3.980   0.100  1.3365 -0.3299 -0.5991
15243TIP3    H267221   0.464   4.118   0.154  0.7589 -1.0422  0.9017
15244TIP3   OH267222   2.307   4.176  11.197 -0.1822  0.3967 -0.1785
15244TIP3    H167223   2.369   4.105  11.182 -2.4708 -1.5443 -0.9174
15244TIP3    H267224   2.256   4.148  11.273 -1.3016  1.1002 -0.6540
15245TIP3   OH267225   3.354   4.401   5.667 -0.4256 -0.5069  0.8051
15245TIP3    H167226   3.317   4.406   5.578  2.9142 -0.3143 -0.6212
15245TIP3    H267227   3.396   4.315   5.670 -0.7520 -0.6237  2.3455
15246TIP3   OH267228   4.396   5.648  14.847 -0.4507  0.2332  0.0158
15246TIP3    H167229   4.334   5.643  14.775 -1.9129 -1.0852  1.3239
15246TIP3    H267230   4.440   5.563  14.847 -0.1622  0.3816  0.4160
15247TIP3   OH267231   5.419   1.053  12.896 -0.2740  0.8482  0.1714
15247TIP3    H167232   5.434   1.112  12.823 -0.2962 -1.0752 -1.4239
15247TIP3    H267233   5.341   1.087  12.939 -1.3804  0.9178 -1.8472
15248TIP3   OH267234   3.038   2.263  12.194  0.1184 -0.0925  0.2331
15248TIP3    H167235   2.958   2.270  12.142  1.1202  0.4031 -1.2877
15248TIP3    H267236   3.077   2.180  12.166  0.8002  0.3128 -0.0342
15249TIP3   OH267237   6.758   3.237  12.743  0.5610 -0.2687 -0.0442
15249TIP3    H167238   6.698   3.247  12.817  0.9740 -3.6902  0.8497
15249TIP3    H267239   6.845   3.242  12.782  0.7766 -2.2773 -0.2135
15250TIP3   OH267240   5.132   4.424   3.422 -0.2553  0.1449 -0.4139
15250TIP3    H167241   5.108   4.512   3.451  1.6879  0.7452 -0.5570
15250TIP3    H267242   5.200   4.438   3.356 -0.6922 -1.4328 -1.2388
15251TIP3   OH267243   1.912   2.352   5.647  0.7163 -0.1251 -0.0073
15251TIP3    H167244   1.989   2.407   5.659  0.0607  0.5203  1.3579
15251TIP3    H267245   1.839   2.408   5.673 -0.4360 -0.0473 -3.1118
15252TIP3   OH267246   1.785   3.726  16.630 -0.4375 -0.0045 -0.1004
15252TIP3    H167247   1.698   3.686  16.621 -0.2503 -0.4181 -0.0885
15252TIP3    H267248   1.789   3.790  16.560  0.7164 -2.6483 -2.5804
15253TIP3   OH267249   0.104   0.690  16.848  0.7072  0.6496 -0.2344
15253TIP3    H167250   0.105   0.644  16.764 -0.3653  0.5097 -0.1820
15253TIP3    H267251   0.070   0.777  16.828 -0.3360  0.3533  0.1648
15254TIP3   OH267252   5.865   3.592   3.213  0.2641  0.3893  0.5507
15254TIP3    H167253   5.899   3.553   3.133 -2.0148  1.7866 -1.1703
15254TIP3    H267254   5.876   3.686   3.201 -3.3469  0.8538  0.2550
15255TIP3   OH267255   4.162   1.919  11.738 -0.2822 -0.4737  0.5066
15255TIP3    H167256   4.248   1.914  11.780 -0.5574  1.4386  1.3179
15255TIP3    H267257   4.100   1.903  11.810 -0.7069  1.5129  0.5995
15256TIP3   OH267258   3.604   6.306  13.880 -0.1561  0.6858 -0.5302
15256TIP3    H167259   3.597   6.362  13.957 -0.0000  2.6344 -1.9025
15256TIP3    H267260   3.547   6.347  13.815 -0.1245 -0.8123 -1.5229
15257TIP3   OH267261   3.718   1.449   1.477 -0.6239  0.1992  0.3572
15257TIP3    H167262   3.710   1.354   1.471  0.8262  0.0378  0.7562
15257TIP3    H267263   3.686   1.482   1.393  0.9409 -0.7761 -0.6213
15258TIP3   OH267264   0.075   6.609  11.632  0.0592  0.7352  0.0681
15258TIP3    H167265   0.065   6.655  11.716  0.6485  0.2591  0.4019
15258TIP3    H267266  -0.015   6.600  11.600 -0.2676  0.0526  1.1248
15259TIP3   OH267267   5.978   2.291  12.572 -0.0234 -0.1504 -0.2104
15259TIP3    H167268   5.901   2.235  12.564 -0.3113  0.4199 -1.3767
15259TIP3    H267269   5.957   2.350  12.645  0.6609 -2.1358  1.6834
15260TIP3   OH267270   4.842   6.059  13.805  0.2711  0.0513 -0.4779
15260TIP3    H167271   4.786   6.005  13.748  0.6382  2.2777 -3.0567
15260TIP3    H267272   4.782   6.123  13.844  0.2485 -0.6325  0.6453
15261TIP3   OH267273   2.639   6.484  16.268 -0.0091  0.3526 -0.1229
15261TIP3    H167274   2.552   6.479  16.309  0.6707  0.1361  1.3068
15261TIP3    H267275   2.687   6.410  16.304  1.2411  1.3034  0.2065
15262TIP3   OH267276   3.541   2.088   3.799  0.2973 -0.1432  0.3663
15262TIP3    H167277   3.459   2.040   3.795  0.4670 -0.3410 -0.9579
15262TIP3    H267278   3.595   2.050   3.729  0.4400  1.9544 -0.6993
15263TIP3   OH267279   1.968   5.813  14.717  0.5338 -0.2453 -0.6127
15263TIP3    H167280   1.991   5.849  14.631  0.1677  0.0955 -0.5722
15263TIP3    H267281   2.030   5.853  14.778 -1.8525  2.8319 -0.0796
15264TIP3   OH267282   3.319   4.644   4.931 -0.1118  0.3989 -0.4877
15264TIP3    H167283   3.303   4.682   5.018 -0.1135  2.2691 -1.2853
15264TIP3    H267284   3.410   4.665   4.912 -0.2294  0.3425 -1.1203
15265TIP3   OH267285   1.419   2.801   1.757 -0.2480 -0.2783 -0.4462
15265TIP3    H167286   1.471   2.854   1.696 -0.3672 -0.5168 -0.7536
15265TIP3    H267287   1.328   2.815   1.730 -0.1579 -2.3698 -1.9250
15266TIP3   OH267288   6.612   0.865  10.579  0.0692  0.0110 -0.5867
15266TIP3    H167289   6.581   0.809  10.651 -0.8518  0.6541 -0.4756
15266TIP3    H267290   6.586   0.818  10.500  0.7797 -0.5295 -0.5095
15267TIP3   OH267291   1.038   1.007   0.607  0.0520  0.1268  0.5791
15267TIP3    H167292   1.090   1.049   0.538  1.9366 -0.6401  1.4891
15267TIP3    H267293   0.999   0.931   0.565  0.3171  0.2641  0.0766
15268TIP3   OH267294   0.596   1.583  11.847 -0.5597  0.2245  0.2554
15268TIP3    H167295   0.549   1.634  11.913 -0.4102  1.5782 -0.6786
15268TIP3    H267296   0.681   1.627  11.839 -0.1446 -0.6192 -0.0179
15269TIP3   OH267297   0.542   6.103   3.854 -0.0736  0.3609 -0.4115
15269TIP3    H167298   0.561   6.019   3.810  1.2299  0.3254  0.1962
15269TIP3    H267299   0.501   6.078   3.937  0.1352  0.3281 -0.3176
15270TIP3   OH267300   1.447   1.895  17.120 -0.4874  0.1798 -0.0008
15270TIP3    H167301   1.467   1.835  17.048 -0.4187 -0.5581  0.6242
15270TIP3    H267302   1.531   1.910  17.163 -0.3970  1.2392 -0.5423
15271TIP3   OH267303   3.183   2.796   1.963  0.5829 -0.5326  0.4659
15271TIP3    H167304   3.262   2.821   1.916  2.2124 -0.0071  3.3664
15271TIP3    H267305   3.161   2.872   2.017  0.4197 -2.0797  2.6585
15272TIP3   OH267306   1.001   2.085  13.695  0.0134 -0.3591 -0.0410
15272TIP3    H167307   0.973   2.099  13.605 -0.0225  1.0240  0.1633
15272TIP3    H267308   0.921   2.094  13.747 -0.2451 -2.7029  0.0118
15273TIP3   OH267309   6.102   6.568  11.751 -0.0474  0.1459  0.4429
15273TIP3    H167310   6.101   6.664  11.752 -0.7258  0.1375  0.2873
15273TIP3    H267311   6.191   6.545  11.777  1.0574  0.8490 -2.5240
15274TIP3   OH267312   1.889   6.750  15.877 -0.3062  0.4385  0.6737
15274TIP3    H167313   1.822   6.700  15.924  0.1762 -2.2263 -1.3537
15274TIP3    H267314   1.871   6.841  15.899 -2.3564 -0.4830  3.0332
15275TIP3   OH267315   2.553   2.252  14.934  0.0355 -0.5015 -0.2806
15275TIP3    H167316   2.537   2.304  15.013  1.1305  0.0054 -0.3805
15275TIP3    H267317   2.495   2.176  14.942 -0.0094 -0.3424  0.8989
15276TIP3   OH267318   1.018   2.697  10.678  0.4774  0.2802  0.0349
15276TIP3    H167319   0.978   2.746  10.751 -0.4083  1.9204 -1.5159
15276TIP3    H267320   0.958   2.624  10.663  0.7185 -0.1330  1.0041
15277TIP3   OH267321   2.946   1.486  12.193 -0.0515 -0.2003 -0.8151
15277TIP3    H167322   3.011   1.432  12.238 -0.5127 -0.2359 -0.1827
15277TIP3    H267323   2.884   1.424  12.155 -0.5276 -0.1232 -0.1699
15278TIP3   OH267324   1.872   5.056  11.956  0.2109  0.2459 -0.2231
15278TIP3    H167325   1.832   4.969  11.945 -0.0690  0.2919  0.3924
15278TIP3    H267326   1.871   5.071  12.051  1.3424  0.4137 -0.2257
15279TIP3   OH267327   5.850   4.088   5.903 -0.1099  0.8539 -0.3205
15279TIP3    H167328   5.893   4.168   5.933 -0.8860  0.7135  1.2100
15279TIP3    H267329   5.922   4.028   5.884  0.5008  2.0397 -1.9289
15280TIP3   OH267330   1.417   5.357  17.236  0.2319  0.5592 -0.1300
15280TIP3    H167331   1.440   5.446  17.263  0.0247  1.0717 -1.6147
15280TIP3    H267332   1.403   5.363  17.142  0.7701 -1.1701 -0.3352
15281TIP3   OH267333   5.441   5.909  15.462 -0.4946  0.2626 -0.2291
15281TIP3    H167334   5.516   5.963  15.483 -0.1291 -0.3661  0.0963
15281TIP3    H267335   5.477   5.821  15.450 -1.4098 -0.4317  1.8447
15282TIP3   OH267336   3.667   0.607   0.958  0.1357  0.4248 -0.6561
15282TIP3    H167337   3.691   0.682   0.903 -1.5829  0.2956 -1.5955
15282TIP3    H267338   3.608   0.555   0.904  0.2308 -0.9075  0.4945
15283TIP3   OH267339   5.032   4.451   0.447 -0.1301  0.0893  0.5930
15283TIP3    H167340   5.092   4.395   0.497 -0.8072 -0.8942  0.3138
15283TIP3    H267341   5.025   4.530   0.499  2.3009  0.6843  0.0746
15284TIP3   OH267342   4.161   3.276   2.930 -0.0070  0.1526 -0.3196
15284TIP3    H167343   4.082   3.330   2.935 -1.7238 -2.3122  0.2482
15284TIP3    H267344   4.151   3.226   2.848  1.2456  0.2588 -0.5452
15285TIP3   OH267345   1.814   6.734   5.608  0.4880 -0.4068  0.5853
15285TIP3    H167346   1.903   6.746   5.642  0.5757 -0.1391  0.2736
15285TIP3    H267347   1.758   6.732   5.685  0.8963 -1.7791  0.8606
15286TIP3   OH267348   1.202   4.668  12.219  0.0794 -0.0233  0.4268
15286TIP3    H167349   1.242   4.754  12.211  0.6357 -0.1653  1.6313
15286TIP3    H267350   1.137   4.665  12.149  0.0926  1.3520  0.3503
15287TIP3   OH267351   0.664   0.318   4.643  0.5613 -0.0468  0.3474
15287TIP3    H167352   0.600   0.389   4.646 -0.6585 -1.1352  0.4723
15287TIP3    H267353   0.681   0.305   4.550 -0.5542 -0.7736  0.2412
15288TIP3   OH267354   3.054   2.745  13.903 -0.0161  0.2194 -0.1373
15288TIP3    H167355   3.088   2.674  13.958  0.4956 -0.3321 -1.1424
15288TIP3    H267356   2.959   2.734  13.906  0.1166 -2.5535 -2.8552
15289TIP3   OH267357   5.918   0.561   1.644  0.1484 -0.2826 -0.6242
15289TIP3    H167358   5.889   0.547   1.734  0.4753 -0.4685 -0.5502
15289TIP3    H267359   5.893   0.651   1.624 -1.6067 -0.8212 -0.9722
15290TIP3   OH267360   0.929   5.937   0.885 -0.0295  0.5191  0.5317
15290TIP3    H167361   0.859   5.872   0.885  0.1916  0.2737 -0.4188
15290TIP3    H267362   0.984   5.914   0.960  0.4961 -0.8876 -0.2712
15291TIP3   OH267363   6.163   2.890  11.028 -0.3330  0.2013 -0.2725
15291TIP3    H167364   6.227   2.834  11.072  0.7320  0.8694 -0.9575
15291TIP3    H267365   6.212   2.966  10.999 -1.6297  1.1708  0.0044
15292TIP3   OH267366   0.388   3.391  12.825  0.1334 -0.5032  0.0062
15292TIP3    H167367   0.436   3.312  12.800 -0.2782 -0.4695 -0.9204
15292TIP3    H267368   0.442   3.464  12.794 -1.3365 -0.4765 -2.7308
15293TIP3   OH267369   3.586   3.788   4.855 -0.0609  0.1882  0.6902
15293TIP3    H167370   3.608   3.832   4.937  1.6528  0.7758 -0.0643
15293TIP3    H267371   3.594   3.856   4.788  1.3930 -0.9413 -0.3197
15294TIP3   OH267372   6.539   4.498   6.023 -0.3799 -0.2464  0.7212
15294TIP3    H167373   6.509   4.451   6.100 -0.4613  0.6838  1.2694
15294TIP3    H267374   6.460   4.538   5.986 -0.0639  0.9075  1.2697
15295TIP3   OH267375   6.699   5.599  13.802  0.3962  0.1542  0.1117
15295TIP3    H167376   6.789   5.590  13.835 -0.5928 -0.5318  2.7064
15295TIP3    H267377   6.656   5.517  13.827 -0.5435 -0.2245 -2.5521
15296TIP3   OH267378   6.619   2.848   4.568  0.1312  0.0222 -0.0104
15296TIP3    H167379   6.527   2.874   4.577  0.0718  0.2534 -1.1827
15296TIP3    H267380   6.621   2.756   4.593 -1.0062 -0.8834 -2.9673
15297TIP3   OH267381   1.130   5.939   2.345  0.1304  0.0710  0.5452
15297TIP3    H167382   1.221   5.917   2.364  0.4040  0.9140  0.2196
15297TIP3    H267383   1.120   6.030   2.372 -0.5123  0.1026  0.2224
15298TIP3   OH267384   2.623   5.282  16.468 -0.7474 -0.0855 -0.2687
15298TIP3    H167385   2.696   5.240  16.515 -0.9680 -0.8205 -0.5762
15298TIP3    H267386   2.583   5.339  16.533 -1.1634 -1.2348  0.5003
15299TIP3   OH267387   3.078   2.805  11.319  0.3684  0.4280 -0.1044
15299TIP3    H167388   3.055   2.810  11.226 -2.0631 -0.3316  0.4149
15299TIP3    H267389   3.128   2.723  11.326 -0.0780  0.1037 -0.6207
15300TIP3   OH267390   1.268   0.924   4.222 -0.3788 -0.4151  0.3738
15300TIP3    H167391   1.353   0.951   4.257 -0.4713  0.5206 -0.1120
15300TIP3    H267392   1.278   0.831   4.203  1.1050  0.0767 -1.3433
15301TIP3   OH267393   1.098   4.663   2.279 -0.8304 -0.3489  0.2462
15301TIP3    H167394   1.110   4.751   2.243  0.1042 -0.8806 -0.7880
15301TIP3    H267395   1.171   4.613   2.243 -1.7608 -1.7250  0.2403
15302TIP3   OH267396   4.831   1.004   4.674  0.3095 -0.4472 -0.5610
15302TIP3    H167397   4.909   0.996   4.618 -0.0130 -2.0631 -0.8024
15302TIP3    H267398   4.758   1.001   4.612 -0.0182 -1.3304 -0.1315
15303TIP3   OH267399   0.839   5.926  13.218 -0.6414  0.4896  0.1997
15303TIP3    H167400   0.811   5.886  13.136 -1.3695 -0.0002  0.6776
15303TIP3    H267401   0.875   5.854  13.269 -1.4263  0.5332  0.8382
15304TIP3   OH267402   1.552   2.025  15.496  0.0878  0.6520 -0.1251
15304TIP3    H167403   1.516   2.094  15.440  0.4297  0.8333 -0.1208
15304TIP3    H267404   1.507   2.037  15.580  0.3316  1.0323 -0.0450
15305TIP3   OH267405   2.101   4.399  15.117  0.3571 -0.2259  0.4547
15305TIP3    H167406   2.194   4.378  15.104  0.5603 -0.7346  2.4722
15305TIP3    H267407   2.078   4.353  15.198 -1.3133  0.9686  0.6792
15306TIP3   OH267408   3.446   5.272  13.762 -0.8279 -0.2385 -0.3801
15306TIP3    H167409   3.528   5.227  13.747 -0.5587  0.2028 -0.2522
15306TIP3    H267410   3.407   5.282  13.675 -0.2453  0.4864 -0.5628
15307TIP3   OH267411   5.211   6.302   3.340  0.2217 -0.0586 -0.1989
15307TIP3    H167412   5.195   6.370   3.275 -0.1715 -0.2165 -0.2747
15307TIP3    H267413   5.129   6.298   3.390  0.1512 -0.6427 -0.3557
15308TIP3   OH267414   3.520   4.153   6.524  0.1130  0.3592  0.6170
15308TIP3    H167415   3.464   4.108   6.586 -0.9227 -1.2308 -1.4071
15308TIP3    H267416   3.609   4.144   6.560 -0.5774  0.4165  2.3685
15309TIP3   OH267417   2.243   3.786  16.184  0.1792  0.4177  0.2451
15309TIP3    H167418   2.300   3.860  16.206  0.6444  0.1177  0.0491
15309TIP3    H267419   2.293   3.735  16.121  0.3385 -0.6848  1.2318
15310TIP3   OH267420   4.398   2.626   2.236 -0.2805 -0.6296  0.3845
15310TIP3    H167421   4.374   2.704   2.186 -0.4350 -0.6881  0.3647
15310TIP3    H267422   4.490   2.611   2.215 -0.2163 -0.3809  0.4867
15311TIP3   OH267423   4.623   6.029   2.106  0.0884  0.1352  0.0966
15311TIP3    H167424   4.646   5.978   2.183  0.4626  2.1005  1.3119
15311TIP3    H267425   4.531   6.009   2.091  0.3373 -1.1950  0.3243
15312TIP3   OH267426   0.044   1.230   4.906  0.1385 -0.1454  0.3326
15312TIP3    H167427  -0.041   1.271   4.895  0.1725  0.0185  0.6662
15312TIP3    H267428   0.093   1.291   4.962  0.1933 -0.6246  0.8160
15313TIP3   OH267429   3.438   5.269  15.551 -0.0939 -0.0405 -0.6348
15313TIP3    H167430   3.442   5.192  15.607  0.8295  0.9699  0.7483
15313TIP3    H267431   3.528   5.301  15.548 -0.8017  2.2169  0.6554
15314TIP3   OH267432   5.701   5.577  16.113  0.3069  0.0292 -0.3916
15314TIP3    H167433   5.774   5.535  16.067  0.4127 -0.0635 -0.1384
15314TIP3    H267434   5.629   5.577  16.049  0.3751 -0.3350 -0.4664
15315TIP3   OH267435   1.072   4.434  12.679 -0.5005 -0.2123  0.7069
15315TIP3    H167436   1.110   4.347  12.671  1.0351  0.4532  0.6001
15315TIP3    H267437   1.089   4.475  12.594  1.0209  1.0596  1.6090
15316TIP3   OH267438   3.388   2.167  11.516  0.1142  0.5631  0.2398
15316TIP3    H167439   3.414   2.081  11.485 -1.4608  0.1355  0.0414
15316TIP3    H267440   3.292   2.168  11.508 -0.0381  1.7066  1.8238
15317TIP3   OH267441   0.263   1.055  12.003  0.2729  0.0879 -0.3053
15317TIP3    H167442   0.186   1.032  12.055  1.5574  0.0238  1.6071
15317TIP3    H267443   0.268   1.151  12.008  1.2179 -0.0139  0.9175
15318TIP3   OH267444   5.247   4.258   5.230  0.3285  0.2758 -0.0810
15318TIP3    H167445   5.184   4.240   5.300  1.3774  1.6777  1.2550
15318TIP3    H267446   5.322   4.200   5.250  0.3118  0.1138 -0.4846
15319TIP3   OH267447   6.694   2.608  14.435 -0.6141 -0.4427 -0.7531
15319TIP3    H167448   6.662   2.577  14.350 -1.3191  2.4128 -1.5823
15319TIP3    H267449   6.789   2.603  14.428 -0.6884 -1.7829 -1.0610
15320TIP3   OH267450   6.375   3.094  16.008  0.1907  0.0578  0.4383
15320TIP3    H167451   6.350   3.040  15.933  0.2905 -0.2088  0.5975
15320TIP3    H267452   6.343   3.045  16.084  1.3784 -0.3853  0.6620
15321TIP3   OH267453   5.423   1.491   5.170  0.3429  0.2871 -0.1236
15321TIP3    H167454   5.366   1.429   5.215  1.2305 -1.1576 -0.9577
15321TIP3    H267455   5.362   1.554   5.130 -0.5178  0.5603  1.5793
15322TIP3   OH267456   3.960   3.106   3.589  0.2195  0.3123 -0.1009
15322TIP3    H167457   3.995   3.079   3.673  1.8032  1.9105 -0.2377
15322TIP3    H267458   3.957   3.201   3.593  0.2356  0.4023 -1.8178
15323TIP3   OH267459   5.695   6.082  14.161 -0.7148  0.3930 -0.2183
15323TIP3    H167460   5.756   6.144  14.202  0.6184 -0.8162 -0.3321
15323TIP3    H267461   5.745   6.046  14.087 -1.4633 -0.8481 -0.1228
15324TIP3   OH267462   4.450   6.515   2.587  0.1616  0.3071  0.6414
15324TIP3    H167463   4.521   6.469   2.633 -1.4960 -1.8146  1.1349
15324TIP3    H267464   4.487   6.536   2.501  1.2370 -1.1879  0.7295
15325TIP3   OH267465   6.271   0.076  15.712  0.3967 -0.7808  0.0973
15325TIP3    H167466   6.333   0.009  15.681  0.1584 -0.0477 -2.0590
15325TIP3    H267467   6.278   0.146  15.647 -2.3206 -0.4722  0.0954
15326TIP3   OH267468   1.216   1.176   6.011 -0.5703 -0.2602  0.0597
15326TIP3    H167469   1.203   1.111   5.942 -0.7616 -0.5509  0.3691
15326TIP3    H267470   1.162   1.145   6.084 -2.2466  1.3055 -0.4824
15327TIP3   OH267471   2.579   6.374  10.789  0.2415  0.2891 -0.1280
15327TIP3    H167472   2.664   6.360  10.746  1.4623  2.0178  1.6510
15327TIP3    H267473   2.557   6.288  10.826  1.7653  0.0932  0.3504
15328TIP3   OH267474   2.406   0.192  14.458  1.0234  0.1419  0.2260
15328TIP3    H167475   2.479   0.132  14.469  2.0301  1.0146 -1.4725
15328TIP3    H267476   2.406   0.246  14.537  1.4941 -0.6276  0.7497
15329TIP3   OH267477   5.586   5.087   2.410 -0.5524  0.5794 -0.0271
15329TIP3    H167478   5.611   5.099   2.318 -0.9580  0.9083 -0.0946
15329TIP3    H267479   5.576   5.176   2.444 -2.5165  0.4559 -0.2374
15330TIP3   OH267480   3.983   1.956   2.269  0.1406  0.3696  0.3459
15330TIP3    H167481   4.002   2.042   2.233 -0.3743  0.3126 -0.0669
15330TIP3    H267482   3.976   1.899   2.193 -1.6582  0.3811  0.4750
15331TIP3   OH267483   1.067   6.539  12.146 -0.1461 -0.1811 -0.0839
15331TIP3    H167484   1.113   6.500  12.220  0.2771  0.1986 -0.1412
15331TIP3    H267485   1.084   6.480  12.073 -0.6430 -0.6052  0.1495
15332TIP3   OH267486   3.938   6.802  15.155 -0.4791  0.0969  0.1884
15332TIP3    H167487   3.932   6.709  15.179  0.7136 -0.2810 -0.9055
15332TIP3    H267488   4.032   6.818  15.148 -0.7070  1.1924 -0.3695
15333TIP3   OH267489   1.536   5.471   3.855  0.5244  0.0418  0.5670
15333TIP3    H167490   1.538   5.540   3.921 -0.2697  0.3210  0.3059
15333TIP3    H267491   1.510   5.516   3.775  1.6495 -0.2588  0.0152
15334TIP3   OH267492   4.070   4.414   4.751 -0.3698 -0.0245  0.2354
15334TIP3    H167493   3.988   4.426   4.799 -0.7645  0.8544 -0.6391
15334TIP3    H267494   4.075   4.490   4.693  0.5613 -0.5919 -0.4454
15335TIP3   OH267495   0.771   2.444  16.656  0.0530 -0.2277 -0.1705
15335TIP3    H167496   0.781   2.374  16.592  0.3727 -1.6880  1.4635
15335TIP3    H267497   0.861   2.473  16.674 -0.0485  0.2961 -0.4915
15336TIP3   OH267498   6.792   6.192   2.821  0.0982 -0.6863  0.0237
15336TIP3    H167499   6.702   6.223   2.827  0.7970  1.2636  0.7234
15336TIP3    H267500   6.825   6.229   2.739  1.2797  1.4327  1.4071
15337TIP3   OH267501   3.111   6.734   5.128 -0.3532  0.3110  0.1591
15337TIP3    H167502   3.128   6.653   5.079  0.1592  0.3554  0.2547
15337TIP3    H267503   3.016   6.743   5.127 -0.4150 -0.2870  0.1360
15338TIP3   OH267504   5.056   5.117   0.762  0.2594  0.1184 -0.7043
15338TIP3    H167505   5.112   5.080   0.830 -1.5119 -0.9153  0.2511
15338TIP3    H267506   5.086   5.207   0.752  1.9688 -0.3680 -0.1194
15339TIP3   OH267507   1.189   0.327   3.431 -0.7221 -0.1345 -0.2068
15339TIP3    H167508   1.219   0.240   3.405  1.1900  0.5504 -0.3132
15339TIP3    H267509   1.259   0.362   3.486 -0.1481  2.4826 -2.5202
15340TIP3   OH267510   6.386   4.886  10.403  0.5707  0.1095 -0.4958
15340TIP3    H167511   6.468   4.841  10.422  0.3185  0.2744  1.0409
15340TIP3    H267512   6.320   4.817  10.400  0.6413  0.0593 -1.0180
15341TIP3   OH267513   6.675   6.044  16.824  0.1625  0.4332  0.5712
15341TIP3    H167514   6.674   6.139  16.814 -1.9342  0.5647  1.7536
15341TIP3    H267515   6.718   6.030  16.909  1.1212  0.2636  0.0707
15342TIP3   OH267516   1.566   3.821  12.003  0.5627  0.0222  0.4128
15342TIP3    H167517   1.483   3.862  11.979  0.4497  0.1543  1.0032
15342TIP3    H267518   1.540   3.737  12.040  0.7685 -0.4123 -0.4280
15343TIP3   OH267519   3.620   3.719  14.438  0.3342  0.2245 -0.7456
15343TIP3    H167520   3.596   3.787  14.500 -0.7512  0.9086 -1.8945
15343TIP3    H267521   3.616   3.637  14.488  0.9671  0.9202  0.4571
15344TIP3   OH267522   3.503   5.481   0.440  0.3499 -0.4261  0.5299
15344TIP3    H167523   3.518   5.386   0.435  0.0014 -0.5160  1.1923
15344TIP3    H267524   3.427   5.496   0.384  1.0728 -0.3829 -0.4545
15345TIP3   OH267525   2.446   4.753   4.812 -0.1025  0.5592  0.2530
15345TIP3    H167526   2.489   4.785   4.732 -0.3337  0.4145  0.0711
15345TIP3    H267527   2.366   4.805   4.818 -0.3630  0.1748  0.0845
15346TIP3   OH267528   6.656   4.113   5.744  0.5855 -0.2688  0.1139
15346TIP3    H167529   6.663   4.203   5.776  1.9383 -0.0625 -0.7146
15346TIP3    H267530   6.619   4.064   5.818 -0.0043  0.9291  0.6279
15347TIP3   OH267531   4.947   4.716  16.510  0.2913 -0.2196 -0.2220
15347TIP3    H167532   4.920   4.788  16.452 -2.0154 -1.1369 -0.3619
15347TIP3    H267533   4.995   4.656  16.453 -0.4371 -0.2566 -0.8082
15348TIP3   OH267534   2.474   5.803  17.200  0.2376 -0.0223 -0.1778
15348TIP3    H167535   2.547   5.766  17.150  1.3392 -1.1478  2.1599
15348TIP3    H267536   2.516   5.844  17.276 -1.5150 -0.4034  1.0331
15349TIP3   OH267537   1.786   2.240   0.147 -0.2290  0.6862  0.0953
15349TIP3    H167538   1.744   2.264   0.064 -2.3332  2.0308  1.5050
15349TIP3    H267539   1.855   2.178   0.122 -0.2628  1.7198 -2.7395
15350TIP3   OH267540   2.895   0.949   0.643  0.3085  0.7325 -0.6516
15350TIP3    H167541   2.925   1.010   0.575 -0.3179  0.5316 -1.1157
15350TIP3    H267542   2.814   0.988   0.675  0.0388  0.2754 -0.7748
15351TIP3   OH267543   1.248   3.525  15.667  0.5252 -0.3218  0.3823
15351TIP3    H167544   1.272   3.557  15.580 -1.1603 -0.3509 -0.1139
15351TIP3    H267545   1.152   3.528  15.668  0.5333 -0.3276  2.2440
15352TIP3   OH267546   6.422   2.284   1.398 -0.1684 -0.4308 -0.2363
15352TIP3    H167547   6.425   2.288   1.494  3.0424  2.2520 -0.3520
15352TIP3    H267548   6.511   2.308   1.371 -1.6959  1.3728 -3.9428
15353TIP3   OH267549   0.369   5.648   3.764 -0.2362 -0.2999  0.0385
15353TIP3    H167550   0.301   5.627   3.700  0.1078  0.8404 -0.7325
15353TIP3    H267551   0.447   5.663   3.711  0.4594 -0.9697  0.8675
15354TIP3   OH267552   5.303   5.025  14.030 -0.4484 -0.1053  0.1074
15354TIP3    H167553   5.281   4.965  13.959  0.5454  0.8757 -1.0567
15354TIP3    H267554   5.379   4.986  14.072  2.1969  1.8333 -2.6364
15355TIP3   OH267555   2.632   4.024  14.548 -0.4847 -0.2667 -0.4447
15355TIP3    H167556   2.572   4.098  14.541  0.1000  0.2312 -0.2587
15355TIP3    H267557   2.618   3.990  14.636 -1.5129 -1.0454 -0.8925
15356TIP3   OH267558   3.736   4.094  10.618  0.1934  0.5328  0.0112
15356TIP3    H167559   3.784   4.039  10.680 -0.5149 -0.2747 -0.1436
15356TIP3    H267560   3.661   4.127  10.667 -0.5680 -0.4018 -0.5027
15357TIP3   OH267561   1.689   4.613   1.249  0.1816  0.1428 -0.3786
15357TIP3    H167562   1.722   4.523   1.246  1.6488  0.6055  0.8151
15357TIP3    H267563   1.710   4.643   1.338 -0.4297  1.6144 -0.7102
15358TIP3   OH267564   5.317   0.397   3.681 -0.1569 -0.1337  0.3811
15358TIP3    H167565   5.372   0.476   3.682  1.8004 -1.4637  2.0047
15358TIP3    H267566   5.310   0.374   3.588  0.2463  1.2535 -0.0080
15359TIP3   OH267567   6.818   6.012   4.605  0.3449  0.0879  0.1143
15359TIP3    H167568   6.743   5.992   4.549  1.2265 -1.8087 -0.4615
15359TIP3    H267569   6.893   5.977   4.557  1.2221 -0.9014  2.1366
15360TIP3   OH267570   0.190   2.910  15.948  0.6350  0.0186  0.4057
15360TIP3    H167571   0.129   2.853  15.901  0.8151  0.8142 -0.8390
15360TIP3    H267572   0.141   2.941  16.024 -1.3309  2.4057 -1.7406
15361TIP3   OH267573   3.582   6.494   5.625  0.0966  0.0122  0.1383
15361TIP3    H167574   3.528   6.509   5.547 -1.2033 -1.8991  0.6151
15361TIP3    H267575   3.568   6.402   5.646  0.5401  0.4499  2.5368
15362TIP3   OH267576   6.231   1.647   5.053 -0.1758  0.5293 -0.4161
15362TIP3    H167577   6.205   1.567   5.007 -1.3539  0.2153  0.7709
15362TIP3    H267578   6.165   1.712   5.028 -0.1605  0.6736 -0.0843
15363TIP3   OH267579   3.691   5.274   1.481  0.0989  0.2072  0.3346
15363TIP3    H167580   3.730   5.322   1.555 -1.3063 -0.1923  1.3524
15363TIP3    H267581   3.625   5.333   1.446 -0.0128 -0.0485  0.1129
15364TIP3   OH267582   1.182   2.480  12.778 -0.1657 -0.3059  0.1733
15364TIP3    H167583   1.241   2.518  12.842  1.2462  1.7934 -2.2614
15364TIP3    H267584   1.095   2.487  12.818  0.7190  0.5701  1.9818
15365TIP3   OH267585   3.007   0.635  17.068  0.4973 -0.6223  0.0850
15365TIP3    H167586   2.924   0.633  17.019  1.6251  1.1987 -1.9562
15365TIP3    H267587   2.982   0.664  17.156 -1.3868 -2.7261  0.2912
15366TIP3   OH267588   5.651   1.682  16.121  0.1110 -0.7381  0.1473
15366TIP3    H167589   5.738   1.704  16.091 -0.3813  1.3949  0.2338
15366TIP3    H267590   5.645   1.587  16.110  1.9772 -0.7355 -1.0100
15367TIP3   OH267591   2.096   3.555   4.291  0.3879  0.0770 -0.5750
15367TIP3    H167592   2.104   3.604   4.209  1.0393 -0.1606 -0.6586
15367TIP3    H267593   2.119   3.465   4.266  1.4011  0.1653  0.0413
15368TIP3   OH267594   3.522   6.778   0.558 -0.6548 -0.6507  0.2875
15368TIP3    H167595   3.489   6.703   0.508  1.1329 -0.0855 -1.8354
15368TIP3    H267596   3.618   6.771   0.551 -0.4433  1.2251  0.9509
15369TIP3   OH267597   4.134   5.952   0.686  0.6134 -0.6422  0.2187
15369TIP3    H167598   4.094   6.014   0.625  2.1373 -0.9765 -1.1490
15369TIP3    H267599   4.073   5.879   0.691 -0.2594  0.0815  0.3216
15370TIP3   OH267600   5.667   6.456   3.867 -0.3486 -0.2909 -0.0541
15370TIP3    H167601   5.613   6.479   3.942 -0.0723 -0.6776  0.2637
15370TIP3    H267602   5.719   6.381   3.896  1.6934  1.1942  0.2487
15371TIP3   OH267603   5.351   5.972   2.573  0.3699 -0.3357 -0.0242
15371TIP3    H167604   5.435   5.992   2.616  1.5219 -1.6725 -1.6063
15371TIP3    H267605   5.347   6.032   2.499  0.7819 -1.4872 -0.9909
15372TIP3   OH267606   2.875   2.132  14.790  0.3451 -0.0283 -0.5670
15372TIP3    H167607   2.859   2.041  14.814  1.2290 -0.0098  0.0948
15372TIP3    H267608   2.825   2.144  14.709 -2.1561 -0.2455  0.9124
15373TIP3   OH267609   0.933   5.506   3.600 -0.5349 -0.2111  0.2300
15373TIP3    H167610   0.989   5.579   3.576  0.1575 -0.8223 -0.0395
15373TIP3    H267611   0.993   5.441   3.637 -0.8560 -1.4489 -1.3881
15374TIP3   OH267612   2.543   0.264  15.293 -0.0123  0.0543 -0.3896
15374TIP3    H167613   2.525   0.264  15.199 -1.1293  1.2637 -0.1875
15374TIP3    H267614   2.457   0.276  15.334  0.6789  1.2600  0.7373
15375TIP3   OH267615   0.535   2.058   4.532  0.5494  0.3314  0.0192
15375TIP3    H167616   0.624   2.026   4.520 -0.2270 -0.8915 -3.0829
15375TIP3    H267617   0.484   1.980   4.552 -0.3618  0.4892 -1.6030
15376TIP3   OH267618   2.853   0.636   0.296  0.8241  0.3448 -0.0511
15376TIP3    H167619   2.809   0.685   0.365  0.8100  0.3647 -0.0744
15376TIP3    H267620   2.814   0.549   0.300  1.0186  0.2635  0.1513
15377TIP3   OH267621   3.538   6.498   3.604 -0.0396  0.2862  0.1130
15377TIP3    H167622   3.613   6.514   3.662  0.8825 -1.2656 -0.6220
15377TIP3    H267623   3.474   6.454   3.660  0.5074 -0.4385  0.1761
15378TIP3   OH267624   0.476   1.047  13.760  0.2103 -0.3584  0.2964
15378TIP3    H167625   0.391   1.091  13.762 -0.3892 -1.5296  1.1276
15378TIP3    H267626   0.524   1.085  13.834  0.7349  0.8871 -0.6513
15379TIP3   OH267627   1.714   0.335   1.312  0.1118 -0.1907 -0.4780
15379TIP3    H167628   1.627   0.362   1.284  0.1651 -1.4851 -1.9705
15379TIP3    H267629   1.774   0.392   1.262  0.1476  0.5155  0.3478
15380TIP3   OH267630   3.662   1.418  16.929 -0.0073 -0.1464  0.1212
15380TIP3    H167631   3.694   1.455  16.847  2.4935 -1.9702  0.2054
15380TIP3    H267632   3.651   1.494  16.987 -0.0699  0.9743 -1.3352
15381TIP3   OH267633   6.568   4.988   3.365 -0.2667 -0.2136 -0.1199
15381TIP3    H167634   6.649   5.035   3.387 -1.8502  2.5722  0.0051
15381TIP3    H267635   6.531   4.964   3.450  0.0032 -0.7405 -0.1506
15382TIP3   OH267636   1.218   6.107  15.727 -0.2657 -0.2520 -0.4126
15382TIP3    H167637   1.265   6.029  15.758  0.2099 -0.1710 -0.9459
15382TIP3    H267638   1.268   6.138  15.653  1.5223  2.6010  1.8848
15383TIP3   OH267639   2.477   1.733  10.819 -0.3892  0.2469  0.6913
15383TIP3    H167640   2.410   1.686  10.769  0.4385  1.4078 -1.5714
15383TIP3    H267641   2.428   1.787  10.881 -1.6001  1.3422 -1.1691
15384TIP3   OH267642   1.031   4.722  16.410  0.0095 -0.1512 -0.1362
15384TIP3    H167643   0.990   4.773  16.480 -0.8040  1.0798 -1.4929
15384TIP3    H267644   1.060   4.642  16.453  0.2526  0.9437  1.7854
15385TIP3   OH267645   4.842   3.833   5.536  0.2138  0.2672  0.7013
15385TIP3    H167646   4.853   3.739   5.553 -0.6315 -0.1566 -1.0617
15385TIP3    H267647   4.924   3.859   5.494 -0.1873 -0.0360 -0.2798
15386TIP3   OH267648   4.085   3.068  14.441 -0.2599 -0.2061 -0.5132
15386TIP3    H167649   4.174   3.036  14.456  0.1405  0.1569 -2.0080
15386TIP3    H267650   4.095   3.162  14.425 -0.5600 -0.6216 -3.4291
15387TIP3   OH267651   2.751   6.750  13.116 -0.4397 -0.2025  0.2729
15387TIP3    H167652   2.798   6.774  13.195 -0.7125 -0.7792  0.6110
15387TIP3    H267653   2.660   6.775  13.133 -0.1057  1.7982 -0.7446
15388TIP3   OH267654   6.210   6.276  12.094  0.1715 -0.2967  0.1169
15388TIP3    H167655   6.123   6.257  12.058  0.0434  1.3911 -0.4952
15388TIP3    H267656   6.213   6.226  12.175 -0.9466 -1.2604 -0.4224
15389TIP3   OH267657   3.505   1.822  14.354 -0.1216  0.3944 -0.3751
15389TIP3    H167658   3.575   1.802  14.292  0.0445 -0.6118  0.1156
15389TIP3    H267659   3.551   1.838  14.437 -0.3429  1.6281 -0.4886
15390TIP3   OH267660   1.718   6.183  13.690  0.3062 -0.4279  0.4188
15390TIP3    H167661   1.637   6.181  13.639  0.1005  2.6719  0.5539
15390TIP3    H267662   1.757   6.096  13.677 -1.6458 -0.9954 -1.8753
15391TIP3   OH267663   5.653   3.843   1.156  0.4588 -0.6965  0.4075
15391TIP3    H167664   5.611   3.882   1.079  1.8573 -0.1473 -0.0794
15391TIP3    H267665   5.705   3.771   1.122  1.8879  0.1768  0.7030
15392TIP3   OH267666   2.085   0.994  13.994  0.0471  0.0957 -0.1363
15392TIP3    H167667   2.031   0.954  13.927 -1.9377  2.2238  0.1254
15392TIP3    H267668   2.173   0.996  13.956 -1.1572  1.9398 -3.0623
15393TIP3   OH267669   0.699   0.648  13.427  0.5851  0.1611  0.3371
15393TIP3    H167670   0.792   0.664  13.408  0.5133  0.9000  0.5976
15393TIP3    H267671   0.654   0.727  13.397 -0.0360 -0.4533 -0.3608
15394TIP3   OH267672   5.312   4.040   1.123 -0.3058  0.1209 -0.2870
15394TIP3    H167673   5.377   4.108   1.102  0.2666 -0.1242  0.6500
15394TIP3    H267674   5.349   3.995   1.200 -1.9495  0.4670  0.7273
15395TIP3   OH267675   1.866   3.136  12.811 -0.0131  0.3469  0.1521
15395TIP3    H167676   1.951   3.093  12.822 -0.8652 -1.4940 -0.2805
15395TIP3    H267677   1.881   3.201  12.742  1.1227  0.2571  0.3100
15396TIP3   OH267678   6.020   6.676   4.648  0.8845 -0.3221 -0.3919
15396TIP3    H167679   6.099   6.623   4.634  0.6078 -1.0010  0.5420
15396TIP3    H267680   5.957   6.614   4.685  0.9946  0.9691  2.0473
15397TIP3   OH267681   5.741   3.677  16.856  0.6191  0.4099  0.0316
15397TIP3    H167682   5.829   3.643  16.873  0.7597  1.4507  1.4851
15397TIP3    H267683   5.753   3.772  16.847 -0.6574  0.8652  2.6533
15398TIP3   OH267684   2.997   5.875  13.838  0.4747  0.2529  0.1660
15398TIP3    H167685   2.912   5.911  13.814 -0.9683 -2.0097  1.7164
15398TIP3    H267686   3.036   5.849  13.754  0.0683  2.1124 -0.6414
15399TIP3   OH267687   5.548   0.554   1.647  0.0146  0.1704 -0.1993
15399TIP3    H167688   5.578   0.562   1.738 -0.0233  2.4559 -0.3656
15399TIP3    H267689   5.625   0.522   1.599  0.4896  0.4398  0.3749
15400TIP3   OH267690   3.242   6.179  11.643  0.2439 -0.3731 -0.4174
15400TIP3    H167691   3.331   6.213  11.653 -0.0256 -0.2481  1.6884
15400TIP3    H267692   3.254   6.086  11.625  0.8276 -0.1327 -1.3113
15401TIP3   OH267693   5.297   2.545  11.052  0.3606 -0.0784  0.6242
15401TIP3    H167694   5.367   2.607  11.034 -0.6086  0.6477 -0.7701
15401TIP3    H267695   5.296   2.487  10.976 -1.5711  0.9123 -0.1505
15402TIP3   OH267696   2.767   5.596   3.279  0.3552  0.0894 -0.2277
15402TIP3    H167697   2.814   5.527   3.233  2.1769  0.8408  0.4214
15402TIP3    H267698   2.764   5.669   3.216  1.3032  0.5103  0.1923
15403TIP3   OH267699   1.089   2.281  15.842 -0.0961  0.6250 -0.1734
15403TIP3    H167700   1.144   2.332  15.901 -1.1847  0.5258  0.9726
15403TIP3    H267701   1.141   2.270  15.762  1.2712  1.0497  0.6502
15404TIP3   OH267702   4.528   4.343   0.087 -0.4997  0.1230 -0.0428
15404TIP3    H167703   4.622   4.348   0.067 -0.8749  1.1496 -1.6473
15404TIP3    H267704   4.495   4.430   0.066 -1.9134 -0.3922  0.0341
15405TIP3   OH267705   3.040   1.797  13.321 -0.7649  0.2963  0.3481
15405TIP3    H167706   3.058   1.704  13.309 -1.1664  0.0408  1.6715
15405TIP3    H267707   3.110   1.828  13.379  0.8704  1.4028 -2.1197
15406TIP3   OH267708   4.789   3.757  15.690  0.2551  0.3455 -1.0874
15406TIP3    H167709   4.871   3.800  15.665 -0.0823  1.9899  0.5092
15406TIP3    H267710   4.722   3.824  15.677 -0.1208  0.7593  2.5752
15407TIP3   OH267711   5.505   4.908  14.145 -0.1214  0.1263 -0.5943
15407TIP3    H167712   5.516   4.838  14.081  2.6903  0.4748 -0.5586
15407TIP3    H267713   5.594   4.928  14.175 -1.2579  0.6749  2.6612
15408TIP3   OH267714   0.430   0.422   4.882 -0.5078  0.6435  0.1282
15408TIP3    H167715   0.432   0.443   4.789 -0.7154  1.4034  0.2909
15408TIP3    H267716   0.516   0.446   4.915 -0.5556  0.7068  0.2065
15409TIP3   OH267717   0.755   0.136  15.573  0.8446 -0.3467 -0.0532
15409TIP3    H167718   0.696   0.204  15.607  0.6072 -0.6096  0.0705
15409TIP3    H267719   0.842   0.161  15.606  0.7951  0.0176 -0.1962
15410TIP3   OH267720   3.379   1.292  15.948 -0.3572 -0.0191 -0.0598
15410TIP3    H167721   3.397   1.199  15.933  0.7351 -0.1686  2.0130
15410TIP3    H267722   3.312   1.314  15.883 -0.0566 -2.0506 -1.1042
15411TIP3   OH267723   5.863   1.440  13.220 -0.2609  0.2299  0.0750
15411TIP3    H167724   5.819   1.450  13.304 -0.4460  0.0368  0.0012
15411TIP3    H267725   5.792   1.425  13.158 -0.1590  0.7632 -0.1765
15412TIP3   OH267726   4.658   1.244   0.543 -0.9657  0.0683  0.4089
15412TIP3    H167727   4.680   1.297   0.620 -0.1845 -1.6246  1.3662
15412TIP3    H267728   4.740   1.202   0.518 -1.1219  0.8828 -1.6112
15413TIP3   OH267729   0.754   4.673  12.590  0.1851  0.2351 -0.4024
15413TIP3    H167730   0.706   4.667  12.507 -1.2759  1.7019  0.3087
15413TIP3    H267731   0.730   4.759  12.625 -0.3806 -0.9625  2.2646
15414TIP3   OH267732   4.183   0.845   0.911 -0.2080  0.3875  0.0444
15414TIP3    H167733   4.215   0.824   0.823 -0.3795  2.3524 -0.5022
15414TIP3    H267734   4.207   0.769   0.964  4.2214  1.2353 -0.6144
15415TIP3   OH267735   3.363   2.116  17.047  0.3465 -0.5131 -0.1031
15415TIP3    H167736   3.455   2.129  17.023  0.3230  0.1447  0.1323
15415TIP3    H267737   3.334   2.203  17.074 -0.4772 -0.6176 -0.6344
15416TIP3   OH267738   0.393   4.103  16.386 -0.3686 -0.6582 -0.0828
15416TIP3    H167739   0.375   4.119  16.293 -0.8507 -1.3320 -0.1090
15416TIP3    H267740   0.405   4.009  16.392 -0.0266 -0.5793  0.4910
15417TIP3   OH267741   5.264   6.132  14.365  0.5017  0.0555  0.4670
15417TIP3    H167742   5.187   6.080  14.389  1.2628 -0.7493  1.2337
15417TIP3    H267743   5.301   6.086  14.290 -1.4695  2.1704 -1.8666
15418TIP3   OH267744   6.803   2.750   2.393 -0.0274  0.1485 -0.0597
15418TIP3    H167745   6.800   2.843   2.418 -0.1540  0.4029 -1.0025
15418TIP3    H267746   6.770   2.704   2.470  0.0819  0.8842  0.4346
15419TIP3   OH267747   1.743   0.348   0.036 -0.2597 -0.1861 -0.0923
15419TIP3    H167748   1.653   0.381   0.031  0.5693  1.8384 -4.4949
15419TIP3    H267749   1.766   0.327  -0.055  4.0437  0.3272  0.7655
15420TIP3   OH267750   1.807   1.858  13.616  0.4354 -0.0927  0.6934
15420TIP3    H167751   1.876   1.793  13.628 -0.0881 -1.2047 -1.9590
15420TIP3    H267752   1.853   1.939  13.597  1.0380 -0.8343 -1.0922
15421TIP3   OH267753   3.589   6.624  12.825 -0.0148 -0.4757  0.2395
15421TIP3    H167754   3.627   6.589  12.905 -2.1879 -0.4443  1.3426
15421TIP3    H267755   3.509   6.572  12.812 -0.8721  1.0083 -0.6352
15422TIP3   OH267756   5.027   2.742  15.306  0.6244 -0.4099  0.3775
15422TIP3    H167757   5.018   2.650  15.282 -1.4447  0.1035 -1.0082
15422TIP3    H267758   4.950   2.760  15.360  0.0963  0.9038 -0.7645
15423TIP3   OH267759   3.257   5.294  10.684 -0.4885  0.3722  0.1594
15423TIP3    H167760   3.352   5.296  10.668 -0.6708 -1.1701 -1.2971
15423TIP3    H267761   3.222   5.368  10.634 -0.0847  0.7587  0.4490
15424TIP3   OH267762   1.558   3.613   0.003  0.3661  0.1111  0.3777
15424TIP3    H167763   1.593   3.602   0.091  0.4246 -1.6351  0.1490
15424TIP3    H267764   1.464   3.593   0.011  0.4486 -0.4539 -0.0288
15425TIP3   OH267765   5.374   6.499  16.337  0.2917 -0.7456 -0.3777
15425TIP3    H167766   5.388   6.500  16.243  1.6691  0.6540 -0.1864
15425TIP3    H267767   5.303   6.562  16.352  0.6171 -0.3689 -0.4100
15426TIP3   OH267768   3.269   3.760  15.227  0.3925  0.4637 -0.2585
15426TIP3    H167769   3.246   3.785  15.137 -0.0971 -1.0176 -0.5668
15426TIP3    H267770   3.190   3.779  15.278 -0.6133 -2.0135 -0.8124
15427TIP3   OH267771   4.761   0.581  16.443 -0.0225 -0.1961 -0.6680
15427TIP3    H167772   4.670   0.602  16.423 -0.6237 -0.0107  1.9902
15427TIP3    H267773   4.785   0.645  16.511  1.5051 -1.3771 -0.0740
15428TIP3   OH267774   0.761   3.011  15.932 -0.2572 -0.3147 -0.2985
15428TIP3    H167775   0.767   3.076  16.003  0.2636  0.3729 -0.9647
15428TIP3    H267776   0.669   2.985  15.932 -0.4147  0.2189  0.1663
15429TIP3   OH267777   3.213   6.670  16.114  0.3095  0.0094 -0.7857
15429TIP3    H167778   3.163   6.592  16.139 -0.2134  0.6916  0.3504
15429TIP3    H267779   3.149   6.741  16.116  1.3600  0.9389  0.9146
15430TIP3   OH267780   5.961   2.935  10.837  0.1694  0.1628 -0.0239
15430TIP3    H167781   6.050   2.915  10.866  0.1749  2.1062  1.4335
15430TIP3    H267782   5.964   3.028  10.813 -1.0728 -0.1701 -1.5553
15431TIP3   OH267783   3.765   1.811   5.243 -0.2187 -0.1182 -0.2902
15431TIP3    H167784   3.740   1.841   5.330  1.9331 -0.7214  0.5761
15431TIP3    H267785   3.783   1.717   5.255 -0.4013 -0.3121 -1.4953
15432TIP3   OH267786   3.518   0.104   0.801 -0.4251 -0.4718 -0.1844
15432TIP3    H167787   3.434   0.148   0.812  0.3203  1.1125 -0.7431
15432TIP3    H267788   3.514   0.067   0.712 -0.8358 -1.1131  0.0899
15433TIP3   OH267789   6.296   4.391  13.453  0.5230 -0.1914  0.6587
15433TIP3    H167790   6.256   4.337  13.520  1.4962 -0.5323  0.9754
15433TIP3    H267791   6.370   4.434  13.496  1.5162 -0.8691 -0.3201
15434TIP3   OH267792   3.871   6.156   5.930 -0.0898  0.0505  0.1532
15434TIP3    H167793   3.882   6.062   5.914  0.4181  0.1798 -0.2583
15434TIP3    H267794   3.915   6.171   6.014 -0.6066 -0.1656  0.4725
15435TIP3   OH267795   0.672   0.632   1.090 -0.2190 -0.2079  0.3264
15435TIP3    H167796   0.650   0.724   1.074  0.4680 -0.0807  0.1230
15435TIP3    H267797   0.599   0.599   1.142 -0.5022  0.4345  0.3405
15436TIP3   OH267798   2.158   1.407  11.644  0.4736 -0.0129  0.5279
15436TIP3    H167799   2.230   1.344  11.651 -1.0310 -1.9141 -0.6019
15436TIP3    H267800   2.101   1.387  11.718  0.7329  1.0301  1.0193
15437TIP3   OH267801   3.081   2.985  15.665 -0.0138  0.0784 -0.6551
15437TIP3    H167802   3.085   2.894  15.694 -1.5849 -0.0101 -0.6998
15437TIP3    H267803   3.009   3.023  15.714  0.1491  1.1077 -1.1964
15438TIP3   OH267804   6.432   3.081  15.069  0.7119 -0.1372 -0.4471
15438TIP3    H167805   6.406   3.032  14.991 -2.0485 -0.5562  0.6846
15438TIP3    H267806   6.384   3.164  15.062  2.4993  0.9215 -0.4908
15439TIP3   OH267807   6.116   3.623   2.331 -0.2213  0.1935  0.0468
15439TIP3    H167808   6.026   3.639   2.359 -0.0947  0.1188  0.5062
15439TIP3    H267809   6.147   3.708   2.302  0.1164  0.5954  1.5131
15440TIP3   OH267810   5.864   2.507   3.425 -0.2184  0.4869 -0.6333
15440TIP3    H167811   5.818   2.475   3.347  0.1583 -1.5039 -0.0670
15440TIP3    H267812   5.794   2.528   3.487 -0.4615 -0.0625 -0.7157
15441TIP3   OH267813   0.451   0.851  16.183  0.1588 -0.3912  0.1579
15441TIP3    H167814   0.489   0.764  16.165  0.6789  0.0564 -0.9406
15441TIP3    H267815   0.357   0.836  16.182  0.2548 -1.0850  0.6827
15442TIP3   OH267816   2.004   6.400   2.770 -0.0570 -0.5518 -0.6694
15442TIP3    H167817   1.956   6.320   2.749 -1.8856  0.7108 -1.4486
15442TIP3    H267818   2.003   6.451   2.688 -0.0979  0.8429  0.1703
15443TIP3   OH267819   5.777   6.294   5.415 -0.0018  0.0012 -0.4536
15443TIP3    H167820   5.851   6.235   5.428 -0.1498 -0.3230 -1.0568
15443TIP3    H267821   5.817   6.380   5.400  0.1802  0.4422  2.2670
15444TIP3   OH267822   5.015   1.412  15.654  0.2288  0.3440  0.8449
15444TIP3    H167823   5.077   1.365  15.599 -1.2159 -1.6214  0.8581
15444TIP3    H267824   5.015   1.501  15.618  0.1312 -0.6115 -1.6671
15445TIP3   OH267825   6.385   0.397  11.345  0.2359 -0.4201 -0.0003
15445TIP3    H167826   6.324   0.323  11.336  0.4214 -0.7327  1.2251
15445TIP3    H267827   6.331   0.470  11.374  0.4209 -0.6818  1.0276
15446TIP3   OH267828   6.379   4.005   3.753  0.4214 -0.2477  0.2099
15446TIP3    H167829   6.405   3.969   3.837 -1.9117 -0.1406  1.0084
15446TIP3    H267830   6.452   4.062   3.728  0.4810  0.9548  2.9193
15447TIP3   OH267831   3.773   6.450   5.025 -0.0683 -0.0845  0.3447
15447TIP3    H167832   3.856   6.492   5.045 -0.7906  1.1834  0.6925
15447TIP3    H267833   3.713   6.478   5.094 -0.7512 -1.1127  0.1943
15448TIP3   OH267834   5.573   4.098  12.942 -0.1771 -0.3612  0.4053
15448TIP3    H167835   5.554   4.056  13.026  0.3680  2.4378  2.0094
15448TIP3    H267836   5.662   4.132  12.951  0.1840 -0.7205 -1.6111
15449TIP3   OH267837   4.635   3.969  14.465  0.4132  0.1253  0.9410
15449TIP3    H167838   4.552   4.010  14.489  1.1377  1.6351  0.9542
15449TIP3    H267839   4.641   3.980  14.371  1.3568  1.5150  1.1493
15450TIP3   OH267840   6.148   3.876   1.211  0.5846 -0.1685 -0.0613
15450TIP3    H167841   6.094   3.797   1.213  0.8733 -0.4021 -1.0752
15450TIP3    H267842   6.151   3.900   1.119  1.5170  0.3167  0.0914
15451TIP3   OH267843   3.861   5.599   3.070  0.0925  0.2895  0.2519
15451TIP3    H167844   3.898   5.534   3.011  0.1648 -0.1936  0.8228
15451TIP3    H267845   3.781   5.558   3.103 -0.6224  1.0655 -0.4808
15452TIP3   OH267846   0.059   4.894   5.860 -0.3043 -0.3819  0.5356
15452TIP3    H167847   0.140   4.928   5.899 -0.2482  0.5970 -0.4055
15452TIP3    H267848  -0.000   4.881   5.934  0.2065  0.3217  1.0710
15453TIP3   OH267849   0.684   0.853  15.408 -0.3831  0.4154 -0.5019
15453TIP3    H167850   0.657   0.761  15.401 -1.5150  0.6704  0.4696
15453TIP3    H267851   0.759   0.860  15.348 -0.2522 -1.1503 -0.5451
15454TIP3   OH267852   3.434   3.840  16.455 -0.2364  0.8752 -0.2990
15454TIP3    H167853   3.376   3.865  16.526 -0.3555  1.6543 -0.6681
15454TIP3    H267854   3.433   3.915  16.395  0.5077  0.5638 -0.7076
15455TIP3   OH267855   4.680   1.373  14.223 -0.3891 -0.4637 -0.5099
15455TIP3    H167856   4.754   1.319  14.193 -0.1274 -0.6279  0.4075
15455TIP3    H267857   4.602   1.322  14.202 -0.1748 -0.8682 -0.3273
15456TIP3   OH267858   3.915   3.405   2.922  1.4606  0.1659 -0.0640
15456TIP3    H167859   3.940   3.460   2.848  1.2167  0.8034  0.3280
15456TIP3    H267860   3.851   3.457   2.971  1.8450 -0.1306  0.7635
15457TIP3   OH267861   0.448   3.585   2.870  0.5238  0.1487  0.4637
15457TIP3    H167862   0.439   3.494   2.898  1.4208  0.6430  2.4600
15457TIP3    H267863   0.531   3.588   2.823 -1.7421 -1.0293 -3.8542
15458TIP3   OH267864   6.199   5.601  16.849  0.2265  0.0831 -0.7019
15458TIP3    H167865   6.178   5.565  16.763  1.3476 -0.6748 -0.6598
15458TIP3    H267866   6.198   5.525  16.908  1.8428  0.2230 -0.4746
15459TIP3   OH267867   6.732   3.275  13.346 -0.0064  0.0972 -0.3512
15459TIP3    H167868   6.650   3.238  13.313  0.3622  0.9705 -2.3243
15459TIP3    H267869   6.755   3.219  13.420 -2.2233 -0.3374  0.0569
15460TIP3   OH267870   0.060   4.452   4.473 -0.1900 -0.0607  0.1278
15460TIP3    H167871   0.076   4.377   4.530  0.3056 -0.2318 -0.2334
15460TIP3    H267872  -0.034   4.468   4.480 -0.2583 -0.5700  0.3879
15461TIP3   OH267873   4.900   2.723   4.145 -0.5561 -0.4255 -0.0961
15461TIP3    H167874   4.850   2.692   4.220 -0.2327  0.2992  0.4292
15461TIP3    H267875   4.851   2.692   4.069 -1.4101 -0.3407  0.4079
15462TIP3   OH267876   2.909   6.101   1.903  0.0884  0.4154  0.3943
15462TIP3    H167877   2.961   6.155   1.962  0.8300 -1.9044  1.9428
15462TIP3    H267878   2.827   6.086   1.950 -1.1931  2.3316 -1.1553
15463TIP3   OH267879   6.203   4.447  16.278 -0.1889  0.5641 -0.0378
15463TIP3    H167880   6.205   4.427  16.185 -0.1591 -1.2259  0.3134
15463TIP3    H267881   6.292   4.431  16.309 -0.2822  0.7845  0.3580
15464TIP3   OH267882   6.076   3.397  15.043 -0.5114 -0.3270  0.2000
15464TIP3    H167883   6.050   3.460  15.111  1.3814  0.4716  0.2223
15464TIP3    H267884   6.115   3.325  15.092  0.5617  0.1049 -0.0117
15465TIP3   OH267885   6.062   2.375   4.247 -0.3399  0.0901 -0.3646
15465TIP3    H167886   6.096   2.447   4.300  0.2694  0.4697 -1.2742
15465TIP3    H267887   6.136   2.315   4.237 -0.1746  0.4956 -1.6158
15466TIP3   OH267888   3.932   5.558   2.141  0.4209 -0.0275 -0.1307
15466TIP3    H167889   3.939   5.489   2.076  0.8229 -1.8336  1.7890
15466TIP3    H267890   3.996   5.535   2.208  0.0463  1.8054  0.9013
15467TIP3   OH267891   4.983   2.210  16.831 -0.2386 -0.3743 -0.4149
15467TIP3    H167892   5.050   2.278  16.825  0.2931 -0.8698 -0.2632
15467TIP3    H267893   4.900   2.255  16.814 -0.0508  0.5800  1.0975
15468TIP3   OH267894   1.711   2.375   3.520 -0.2847 -0.2358 -0.5352
15468TIP3    H167895   1.761   2.296   3.498  0.8177  0.4142 -0.4402
15468TIP3    H267896   1.686   2.362   3.611  0.0441 -0.3989 -0.4664
15469TIP3   OH267897   3.651   6.226  13.404  0.4497  0.2108  0.0044
15469TIP3    H167898   3.656   6.216  13.309 -0.8923 -0.5628  0.0003
15469TIP3    H267899   3.710   6.160  13.439  0.7881  0.3597 -0.2846
15470TIP3   OH267900   0.827   0.097  15.054 -0.2231 -0.0399 -0.3213
15470TIP3    H167901   0.844   0.080  15.146  0.6155 -0.0534 -0.4767
15470TIP3    H267902   0.835   0.011  15.012  2.1218  0.3907 -0.8168
15471TIP3   OH267903   2.458   2.768   2.328  0.2994 -1.2112 -0.4291
15471TIP3    H167904   2.431   2.776   2.237  1.3884 -2.0924 -0.8496
15471TIP3    H267905   2.385   2.804   2.379 -0.4847 -1.0950 -1.6260
15472TIP3   OH267906   6.537   6.516  12.294  0.2535 -0.3529 -0.6594
15472TIP3    H167907   6.478   6.567  12.349 -1.7219 -1.9522 -1.2551
15472TIP3    H267908   6.614   6.500  12.349 -0.1010  1.2218  0.3297
15473TIP3   OH267909   6.600   2.085   0.163 -0.2320 -0.3923 -0.2388
15473TIP3    H167910   6.689   2.051   0.156 -0.5595 -1.0274 -1.4012
15473TIP3    H267911   6.572   2.098   0.073 -1.3563 -0.2968  0.1193
15474TIP3   OH267912   4.869   4.533  12.096  0.5728  0.2620  0.8738
15474TIP3    H167913   4.827   4.553  12.179  0.7497 -0.2184  1.0792
15474TIP3    H267914   4.910   4.448  12.110  2.5043  1.2032  0.9996
15475TIP3   OH267915   1.809   5.498  12.732 -0.6057 -0.7381  0.0439
15475TIP3    H167916   1.805   5.416  12.782 -1.2602 -1.4258 -1.1010
15475TIP3    H267917   1.832   5.470  12.643  3.6611  0.7149  0.5792
15476TIP3   OH267918   0.700   4.596   4.557 -0.3993  0.6829  0.2597
15476TIP3    H167919   0.751   4.582   4.477 -1.5855  1.5707 -0.6908
15476TIP3    H267920   0.747   4.664   4.604 -0.7910  1.6305 -0.6978
15477TIP3   OH267921   1.440   0.437   1.540  0.1753  0.2681 -0.5762
15477TIP3    H167922   1.419   0.446   1.633  1.8226  0.2213 -0.1929
15477TIP3    H267923   1.532   0.463   1.534 -0.2387  1.4020 -2.3714
15478TIP3   OH267924   3.802   6.178  14.884 -0.1679 -0.4323  0.0571
15478TIP3    H167925   3.788   6.087  14.859  0.0163 -0.8497  1.3998
15478TIP3    H267926   3.889   6.179  14.924 -1.2666 -0.2361  2.5317
15479TIP3   OH267927   6.754   4.079  11.108  0.3189  0.3417  0.2956
15479TIP3    H167928   6.748   4.174  11.093  0.7170  0.2822 -0.2699
15479TIP3    H267929   6.674   4.057  11.157  0.4067  1.0275  0.7483
15480TIP3   OH267930   1.477   0.817   1.434  0.3038  0.2633  0.3307
15480TIP3    H167931   1.400   0.784   1.387  0.6694 -1.7130  1.1076
15480TIP3    H267932   1.502   0.896   1.385 -0.6716 -0.5032 -1.4689
15481TIP3   OH267933   3.997   6.617  14.762  0.2862 -0.4466 -0.0086
15481TIP3    H167934   4.071   6.677  14.767  1.1265 -1.3458 -1.1764
15481TIP3    H267935   3.920   6.673  14.753  0.7472  0.5147  1.7839
15482TIP3   OH267936   5.552   2.678   1.264  0.1196  0.1577  0.1135
15482TIP3    H167937   5.505   2.634   1.192  0.7798 -0.3872  0.0089
15482TIP3    H267938   5.617   2.614   1.292 -0.1884  0.3351  1.2624
15483TIP3   OH267939   1.588   1.789   5.095  0.5973 -0.3377 -0.1025
15483TIP3    H167940   1.562   1.779   5.003 -0.7906  0.5306  0.1843
15483TIP3    H267941   1.682   1.806   5.091  0.7421 -1.3221 -1.3010
15484TIP3   OH267942   0.976   1.769   1.641  0.1928 -0.2935  0.1739
15484TIP3    H167943   0.973   1.863   1.619  1.6781 -0.1210  0.6712
15484TIP3    H267944   0.969   1.767   1.736  0.2560 -0.6886  0.1676
15485TIP3   OH267945   6.207   2.228  16.377  0.1704 -0.0010 -0.5644
15485TIP3    H167946   6.227   2.247  16.469 -0.1189  0.2432 -0.5485
15485TIP3    H267947   6.265   2.156  16.353 -0.9071 -1.1877  0.3043
15486TIP3   OH267948   0.169   6.268   5.985  0.1716 -0.6855 -0.2187
15486TIP3    H167949   0.191   6.213   5.910  2.5864  0.4031 -0.3476
15486TIP3    H267950   0.209   6.224   6.060  2.8253  1.2325 -0.4314
15487TIP3   OH267951   4.590   5.088   2.876  0.5354 -0.3964 -0.9569
15487TIP3    H167952   4.659   5.154   2.884  2.0631 -2.0088 -0.2100
15487TIP3    H267953   4.548   5.107   2.793  2.5563  0.0369 -1.9227
15488TIP3   OH267954   2.241   2.461   3.656  0.3703  0.0518 -0.1705
15488TIP3    H167955   2.217   2.427   3.742  0.0288 -2.7279 -1.3113
15488TIP3    H267956   2.326   2.421   3.638  0.0081 -0.1399 -1.5130
15489TIP3   OH267957   2.850   1.384  12.844 -0.4561  0.7062 -0.7439
15489TIP3    H167958   2.900   1.456  12.884 -2.0160  2.7344 -2.3035
15489TIP3    H267959   2.849   1.405  12.751 -4.0411  0.7008 -0.7898
15490TIP3   OH267960   5.775   2.616  11.397  0.0192 -0.7771  0.7408
15490TIP3    H167961   5.819   2.531  11.386 -0.4931 -0.8667 -0.8504
15490TIP3    H267962   5.690   2.595  11.436  1.1388 -0.6610  3.2889
15491TIP3   OH267963   2.441   2.214   1.572 -0.0860  0.1109  0.0647
15491TIP3    H167964   2.435   2.309   1.587  0.0082 -0.2364  2.5333
15491TIP3    H267965   2.352   2.188   1.550 -0.4315  0.5652  0.8657
15492TIP3   OH267966   3.623   6.609  11.636  0.8271  0.3010 -0.2627
15492TIP3    H167967   3.532   6.637  11.636  0.8087  0.3184  1.4277
15492TIP3    H267968   3.672   6.686  11.608  0.3463  0.3133 -1.1010
15493TIP3   OH267969   0.267   2.122  16.389  0.4313 -0.5519 -0.2196
15493TIP3    H167970   0.333   2.067  16.431  0.1966  0.7098  1.8818
15493TIP3    H267971   0.205   2.060  16.350  0.5340 -1.7787  1.5206
15494TIP3   OH267972   5.406   2.076   2.189 -0.2154  0.0040  0.2696
15494TIP3    H167973   5.340   2.028   2.240  0.6311 -0.5883  0.8225
15494TIP3    H267974   5.440   2.012   2.127 -0.2254  0.3333 -0.0780
15495TIP3   OH267975   6.731   4.408  14.610  0.2788 -0.2055 -0.0647
15495TIP3    H167976   6.672   4.478  14.636  0.5251  0.5071 -1.3863
15495TIP3    H267977   6.695   4.329  14.651 -0.6767  0.4886  0.4376
15496TIP3   OH267978   5.773   2.037   6.372  0.0842  0.1704  0.6085
15496TIP3    H167979   5.733   2.087   6.443 -1.5140 -0.0790 -0.0902
15496TIP3    H267980   5.712   1.964   6.358  0.5012  0.1026 -0.8709
15497TIP3   OH267981   1.917   3.985  11.215  0.4814 -0.1311 -0.5141
15497TIP3    H167982   1.867   4.018  11.140  0.4937  2.4715  0.5565
15497TIP3    H267983   1.851   3.968  11.282  0.8004  1.4506  0.2373
15498TIP3   OH267984   1.556   5.090  15.395 -0.2782 -0.6030  0.5047
15498TIP3    H167985   1.519   5.148  15.462  0.3153 -1.2537  1.4274
15498TIP3    H267986   1.638   5.132  15.370 -1.5145  0.7429 -1.4040
15499TIP3   OH267987   3.033   3.801   0.972  0.1492 -0.2608 -0.0250
15499TIP3    H167988   2.961   3.804   1.035 -0.0744  2.0746 -0.3368
15499TIP3    H267989   2.991   3.778   0.889 -0.3469  1.5444 -0.3005
15500TIP3   OH267990   3.161   2.464  10.174 -0.3131 -0.1925  0.0027
15500TIP3    H167991   3.069   2.491  10.173 -0.7342 -1.5279  0.8218
15500TIP3    H267992   3.158   2.370  10.191  1.1306 -0.6479 -2.0754
15501TIP3   OH267993   6.593   1.796   0.318 -0.0701  0.1630  0.1714
15501TIP3    H167994   6.589   1.864   0.251 -0.8297  1.2248  1.2650
15501TIP3    H267995   6.502   1.773   0.335  0.0881  0.2299  1.1631
15502TIP3   OH267996   1.832   4.720   0.617  0.3142 -0.0808 -0.9645
15502TIP3    H167997   1.803   4.710   0.527 -2.1079 -1.8213 -0.0380
15502TIP3    H267998   1.808   4.638   0.660  3.1038 -0.0194  0.8578
15503TIP3   OH267999   3.315   3.288  11.804  0.0947  0.1051 -0.0851
15503TIP3    H168000   3.349   3.238  11.878 -1.5706  1.8176  1.8923
15503TIP3    H268001   3.376   3.362  11.795  0.0264  0.1581 -0.1129
15504TIP3   OH268002   1.177   6.487   3.357  0.4580  0.5222  0.3640
15504TIP3    H168003   1.153   6.448   3.441 -2.9243 -2.0047 -1.6618
15504TIP3    H268004   1.115   6.560   3.345 -0.2607 -0.2538 -0.7242
15505TIP3   OH268005   6.166   5.901  11.936  0.4234 -0.0243 -0.0314
15505TIP3    H168006   6.138   5.887  12.026 -0.1014 -0.4231 -0.2524
15505TIP3    H268007   6.097   5.861  11.883  0.5472  0.5255 -0.6161
15506TIP3   OH268008   2.275   6.438   5.985  0.0085 -0.2032  0.2369
15506TIP3    H168009   2.362   6.461   6.018 -0.4415  0.6774  0.8126
15506TIP3    H268010   2.238   6.380   6.052  0.0753 -0.4270  0.0811
15507TIP3   OH268011   2.140   6.493  12.304 -0.5103  0.4308 -0.4498
15507TIP3    H168012   2.234   6.485  12.324 -0.3749  1.1350 -0.7739
15507TIP3    H268013   2.124   6.428  12.235 -0.1030  0.8032 -0.9003
15508TIP3   OH268014   6.617   2.973   4.870 -0.1116 -0.8159 -0.1837
15508TIP3    H168015   6.593   2.945   4.958 -1.0641  2.2805  0.6097
15508TIP3    H268016   6.702   3.016   4.880 -0.8817  0.8375 -0.4599
15509TIP3   OH268017   6.311   0.609   2.095  0.1388 -0.0744  0.2328
15509TIP3    H168018   6.304   0.557   2.016 -1.7740  0.1864  0.2040
15509TIP3    H268019   6.404   0.603   2.120  0.1949 -2.4562 -0.4277
15510TIP3   OH268020   4.039   5.778   3.961  0.1185  0.1292  0.1867
15510TIP3    H168021   4.074   5.700   3.918  0.5306  0.3988  0.0244
15510TIP3    H268022   4.101   5.796   4.032 -0.8951 -0.6666  1.2832
15511TIP3   OH268023   0.795   3.234   0.903  0.3157  0.1332  0.3588
15511TIP3    H168024   0.851   3.156   0.898 -0.9933 -0.8677  0.8383
15511TIP3    H268025   0.729   3.221   0.835 -1.9618 -0.8953  2.6639
15512TIP3   OH268026   2.715   6.384  15.660  0.1676 -0.1129  0.7840
15512TIP3    H168027   2.632   6.336  15.655 -0.0024  0.3302 -1.0251
15512TIP3    H268028   2.776   6.321  15.698 -0.3219 -1.4350 -0.5375
15513TIP3   OH268029   5.913   2.589   4.158  0.1903 -0.2611  0.4154
15513TIP3    H168030   5.979   2.644   4.116 -0.3754  1.1202  1.2995
15513TIP3    H268031   5.952   2.502   4.160  1.4856  0.2901 -0.1673
15514TIP3   OH268032   4.222   0.510   0.437 -0.0388 -0.0474 -0.4082
15514TIP3    H168033   4.284   0.557   0.493 -0.1637  0.1565 -0.4404
15514TIP3    H268034   4.228   0.419   0.467  0.1824 -0.0082 -0.3271
15515TIP3   OH268035   6.243   3.788   5.197 -0.4141  0.1508  0.1318
15515TIP3    H168036   6.326   3.740   5.197 -0.9942 -0.8595  0.0790
15515TIP3    H268037   6.210   3.776   5.286 -0.0674  1.3343  0.4341
15516TIP3   OH268038   0.200   5.442  13.440 -0.5518 -0.2354  0.8298
15516TIP3    H168039   0.223   5.401  13.357  0.9455 -0.5138  1.3635
15516TIP3    H268040   0.176   5.369  13.497  1.2197 -0.3270  1.4984
15517TIP3   OH268041   1.717   4.143  16.243 -0.1115  0.3484  0.2212
15517TIP3    H168042   1.761   4.228  16.248 -0.1131  0.2553  2.5443
15517TIP3    H268043   1.624   4.164  16.241 -0.1071  0.4114  0.6234
15518TIP3   OH268044   2.000   0.722   1.401  0.8696  0.0654 -0.4646
15518TIP3    H168045   1.920   0.772   1.380  1.2484  1.1210  0.5467
15518TIP3    H268046   2.071   0.781   1.378  1.3060  0.9380  2.9542
15519TIP3   OH268047   2.999   1.449  14.933  0.1631  0.1408 -1.1135
15519TIP3    H168048   2.908   1.421  14.946  0.7697 -0.7410  1.4259
15519TIP3    H268049   3.010   1.523  14.991  1.6629 -1.0775  0.1956
15520TIP3   OH268050   6.647   6.610  13.353  0.1640 -0.0543 -0.2405
15520TIP3    H168051   6.613   6.665  13.282  1.1900  0.4795 -0.3251
15520TIP3    H268052   6.596   6.529  13.347 -1.8176  1.1104  0.2834
15521TIP3   OH268053   6.125   1.274   1.321 -0.2135 -0.1685  0.0840
15521TIP3    H168054   6.122   1.198   1.379 -1.6109  1.0317  1.6126
15521TIP3    H268055   6.064   1.252   1.250 -3.1000  0.8164  2.1776
15522TIP3   OH268056   1.062   6.049  16.535 -0.3935  0.2107  0.0468
15522TIP3    H168057   1.116   6.129  16.533  1.5354 -0.9453  2.8383
15522TIP3    H268058   1.085   6.003  16.455 -1.1524  2.2064 -1.3493
15523TIP3   OH268059   3.636   4.936   0.559  0.1413  0.0828  0.0337
15523TIP3    H168060   3.619   4.892   0.642 -0.5954 -0.3177 -0.3241
15523TIP3    H268061   3.673   4.867   0.503  0.6048  0.3433  0.0122
15524TIP3   OH268062   2.078   0.254   0.102  0.3707  0.2898 -0.1527
15524TIP3    H168063   2.094   0.304   0.182  1.3203 -0.9661  0.4596
15524TIP3    H268064   1.990   0.218   0.114 -0.6133  2.3635 -0.9124
15525TIP3   OH268065   3.491   3.993   6.260  0.0398 -0.4384 -0.0181
15525TIP3    H168066   3.401   4.022   6.270  0.0102 -0.7638  0.7170
15525TIP3    H268067   3.542   4.056   6.312  0.2912  0.0563 -0.8631
15526TIP3   OH268068   5.963   3.792   1.723 -0.3888  0.4393 -0.0989
15526TIP3    H168069   5.905   3.767   1.651  0.8099 -3.4833  0.2082
15526TIP3    H268070   6.048   3.809   1.680  0.0459 -0.8219  0.2521
15527TIP3   OH268071   6.143   5.856  14.334  0.1208 -0.0082  0.4920
15527TIP3    H168072   6.221   5.882  14.383 -0.7776 -0.1020  2.0203
15527TIP3    H268073   6.136   5.761  14.348  0.5627 -0.2474 -0.8708
15528TIP3   OH268074   2.292   2.316  14.489 -0.2453 -0.0856 -0.0523
15528TIP3    H168075   2.229   2.266  14.540  0.5778 -0.9091  0.1763
15528TIP3    H268076   2.364   2.334  14.550 -1.2329  2.8482  0.3699
15529TIP3   OH268077   0.431   5.978  16.699 -0.3705 -0.1779  0.2933
15529TIP3    H168078   0.369   5.988  16.627 -1.2812 -1.6984  0.8317
15529TIP3    H268079   0.516   5.999  16.662 -1.3085  3.0179 -0.2031
15530TIP3   OH268080   4.273   3.787  11.429 -0.3186 -0.2549 -0.4856
15530TIP3    H168081   4.211   3.842  11.381  0.6977 -0.6270 -2.3073
15530TIP3    H268082   4.355   3.836  11.427 -0.1380 -0.5153  0.4548
15531TIP3   OH268083   2.412   1.185  16.275 -0.4892 -0.1820 -0.5298
15531TIP3    H168084   2.336   1.235  16.245 -0.3865  0.9240  1.0143
15531TIP3    H268085   2.433   1.222  16.360  1.0283 -1.3222 -0.3906
15532TIP3   OH268086   0.667   3.142   0.305 -0.4506  0.0739 -0.1301
15532TIP3    H168087   0.687   3.204   0.235  0.5319 -0.3064 -0.1929
15532TIP3    H268088   0.725   3.068   0.289  0.8180  0.5694  1.8895
15533TIP3   OH268089   3.283   6.571   2.232  0.3557 -0.2309  0.1905
15533TIP3    H168090   3.215   6.637   2.216  1.1023  0.4998  0.0101
15533TIP3    H268091   3.339   6.609   2.299  1.5895 -0.0859 -0.9020
15534TIP3   OH268092   2.557   2.415  14.591 -0.1269  0.0032 -0.1159
15534TIP3    H168093   2.515   2.501  14.585  0.8488  0.6001  1.4041
15534TIP3    H268094   2.614   2.421  14.667  1.3220 -1.4070 -1.0459
15535TIP3   OH268095   1.967   1.854   2.221 -0.0460 -0.4445  0.3521
15535TIP3    H168096   2.048   1.904   2.210  1.1055 -2.2744  0.2993
15535TIP3    H268097   1.949   1.856   2.315  1.4399 -2.0771  0.7060
15536TIP3   OH268098   6.047   6.559  16.791 -0.4253  0.7347 -0.1533
15536TIP3    H168099   6.075   6.587  16.878 -0.4073  1.0815 -0.2717
15536TIP3    H268100   5.957   6.590  16.783 -0.1663  1.3990 -0.5674
15537TIP3   OH268101   4.230   6.431  13.666 -0.4605 -0.1528  0.6154
15537TIP3    H168102   4.292   6.489  13.710  0.7343 -1.7664  1.1009
15537TIP3    H268103   4.196   6.483  13.593  1.4216  0.7708  0.3698
15538TIP3   OH268104   1.741   5.813  14.911 -0.1434 -0.8679  0.5491
15538TIP3    H168105   1.827   5.812  14.867 -0.2897  2.6387  0.0960
15538TIP3    H268106   1.679   5.786  14.843 -0.0107  1.7045 -0.6255
15539TIP3   OH268107   3.924   1.685  12.594  0.0455 -0.6358 -0.1487
15539TIP3    H168108   3.987   1.613  12.584 -0.2580 -1.1883  1.6807
15539TIP3    H268109   3.842   1.641  12.617 -0.0080  0.3223  1.5358
15540TIP3   OH268110   2.982   3.434   4.731 -0.3855  0.3721  0.1361
15540TIP3    H168111   2.985   3.338   4.729  0.5464  0.3591  1.2490
15540TIP3    H268112   2.971   3.455   4.824  1.4536  1.3649  0.1561
15541TIP3   OH268113   4.136   1.990  10.195  0.3916 -0.0650 -0.1747
15541TIP3    H168114   4.068   1.975  10.260  0.8008  1.4111  0.6071
15541TIP3    H268115   4.203   2.041  10.241  0.6241  1.1241 -1.7835
15542TIP3   OH268116   0.343   4.900   1.805 -0.4158 -0.1588 -0.5762
15542TIP3    H168117   0.347   4.922   1.898  0.1856  0.2003 -0.6899
15542TIP3    H268118   0.403   4.825   1.796 -0.3859 -0.1202 -0.6958
15543TIP3   OH268119   4.968   0.459   4.050 -0.2590  0.0620 -0.7543
15543TIP3    H168120   4.956   0.387   4.112 -1.6081 -0.0061 -1.0776
15543TIP3    H268121   5.045   0.433   3.999  0.0148 -0.5530 -0.0411
15544TIP3   OH268122   3.913   0.502   2.543  0.4129 -0.1354  0.0915
15544TIP3    H168123   3.879   0.536   2.460 -0.2232 -0.3360  0.2720
15544TIP3    H268124   3.982   0.441   2.516  0.1901 -0.2236 -0.2918
15545TIP3   OH268125   1.818   3.967  13.850  0.5021  0.1670 -0.3062
15545TIP3    H168126   1.734   4.013  13.853 -0.2796 -1.2626 -0.1937
15545TIP3    H268127   1.877   4.022  13.903 -0.3178  1.2171 -0.4647
15546TIP3   OH268128   5.929   0.579  11.491  0.0988 -0.3617 -0.4251
15546TIP3    H168129   5.874   0.650  11.459  0.2192 -0.0823 -0.0108
15546TIP3    H268130   5.929   0.588  11.586  1.3502  0.0193 -0.4461
15547TIP3   OH268131   3.074   0.721  14.990 -0.1113  0.6140  0.5805
15547TIP3    H168132   2.993   0.750  15.033  0.0908  1.5915  0.3136
15547TIP3    H268133   3.072   0.762  14.904  0.0202 -0.4592  0.0572
15548TIP3   OH268134   3.958   5.848   4.266  0.2008  0.2143 -0.1510
15548TIP3    H168135   3.872   5.870   4.230 -0.1200  1.1077  1.1004
15548TIP3    H268136   3.940   5.778   4.329  0.8911 -2.0184 -2.4001
15549TIP3   OH268137   6.360   4.310  17.271  0.4025  0.3478 -0.6910
15549TIP3    H168138   6.404   4.225  17.265 -0.4865 -0.1868  0.2596
15549TIP3    H268139   6.291   4.305  17.206 -0.3050 -0.0568  0.0872
15550TIP3   OH268140   1.179   1.895   3.498  0.1953  0.3660  0.0134
15550TIP3    H168141   1.214   1.818   3.543 -1.8758  0.1526  1.3267
15550TIP3    H268142   1.173   1.962   3.566 -0.8473  0.7419 -0.4410
15551TIP3   OH268143   5.432   1.774   2.811  0.2738 -0.0672 -0.1605
15551TIP3    H168144   5.396   1.739   2.730  2.2134  0.0977 -1.1259
15551TIP3    H268145   5.494   1.841   2.783 -0.4514  1.3469  1.5388
15552TIP3   OH268146   3.401   1.012  15.922  0.0562 -0.2209 -0.2364
15552TIP3    H168147   3.319   0.970  15.896  1.0452 -1.5799 -1.2609
15552TIP3    H268148   3.429   0.964  16.000 -0.2492  0.3839  0.2391
15553TIP3   OH268149   2.565   0.042   5.409  0.1171  0.1927 -0.1484
15553TIP3    H168150   2.615   0.073   5.333 -1.7546  0.7084 -1.2262
15553TIP3    H268151   2.630   0.003   5.467  1.5774 -0.3739 -2.1086
15554TIP3   OH268152   4.718   6.464  14.840 -0.0126  0.6792 -0.1276
15554TIP3    H168153   4.703   6.519  14.763 -1.6688 -0.7218 -0.8287
15554TIP3    H268154   4.785   6.512  14.890 -0.0596  2.3923 -1.6275
15555TIP3   OH268155   2.312   3.003   4.207 -0.1149 -0.2375 -0.1307
15555TIP3    H168156   2.292   3.064   4.136 -0.2670 -0.2142 -0.0678
15555TIP3    H268157   2.269   2.922   4.181 -0.1304 -0.2427 -0.0885
15556TIP3   OH268158   5.633   5.206  10.967  0.1143  0.3360 -0.0733
15556TIP3    H168159   5.721   5.240  10.952  0.5568 -0.5544  0.5182
15556TIP3    H268160   5.619   5.142  10.897  0.2423 -0.1057  0.3044
15557TIP3   OH268161   1.208   3.057  15.594  0.6770  0.5108  1.0363
15557TIP3    H168162   1.169   3.105  15.667 -3.4726  0.6492 -1.1397
15557TIP3    H268163   1.217   3.123  15.524 -3.2402 -1.2646 -1.3121
15558TIP3   OH268164   4.020   4.004  14.461  0.3038 -0.4461  0.2381
15558TIP3    H168165   3.962   4.004  14.385  0.1384  1.1791  0.3615
15558TIP3    H268166   4.017   3.914  14.493 -2.3939 -0.3097  0.4318
15559TIP3   OH268167   5.137   3.013  13.464  0.2361 -0.1808 -0.3698
15559TIP3    H168168   5.215   3.061  13.440  0.9475  0.0303  2.1694
15559TIP3    H268169   5.169   2.942  13.520 -1.2266 -1.0361 -0.5905
15560TIP3   OH268170   2.404   1.711  12.449  0.3452  0.8660  0.0808
15560TIP3    H168171   2.310   1.722  12.440 -0.1833 -2.4529  0.7038
15560TIP3    H268172   2.421   1.725  12.543  0.3139  0.5361  0.1372
15561TIP3   OH268173   1.400   0.663  16.753  0.1667  0.2843 -0.2412
15561TIP3    H168174   1.417   0.722  16.827  1.5184 -1.3246  0.7850
15561TIP3    H268175   1.306   0.646  16.757  0.0375  1.0957  0.4401
15562TIP3   OH268176   4.492   4.158   4.191 -0.1093  0.2412 -0.9321
15562TIP3    H168177   4.565   4.218   4.180  1.9276 -1.8237  0.8760
15562TIP3    H268178   4.509   4.088   4.128 -0.6820 -0.1021 -0.7083
15563TIP3   OH268179   3.516   5.537  15.717  0.5574  0.4906  0.0097
15563TIP3    H168180   3.588   5.480  15.690  0.2565 -0.0415  0.3393
15563TIP3    H268181   3.559   5.609  15.765  0.8349 -0.0435  0.5694
15564TIP3   OH268182   5.617   1.691   4.821 -0.1890 -0.0574  0.3471
15564TIP3    H168183   5.635   1.765   4.763 -1.2585  1.0614  1.4219
15564TIP3    H268184   5.669   1.708   4.899 -1.1854  0.0645  0.9950
15565TIP3   OH268185   3.690   2.961  12.277 -0.7207  0.0713 -0.0456
15565TIP3    H168186   3.601   2.969  12.245 -1.1598  1.1044  1.3499
15565TIP3    H268187   3.684   2.982  12.371  0.9521  0.0127  0.1026
15566TIP3   OH268188   1.377   2.890  14.077  0.1715  0.7104 -0.4180
15566TIP3    H168189   1.328   2.924  14.002  0.2283  1.1584 -0.2507
15566TIP3    H268190   1.316   2.830  14.120  0.7233 -0.9020 -1.8155
15567TIP3   OH268191   1.902   6.383  12.815  0.5266 -0.3234 -0.4009
15567TIP3    H168192   1.923   6.290  12.825 -2.1929 -1.0197 -0.8725
15567TIP3    H268193   1.910   6.399  12.720 -1.5906 -0.7466 -0.6666
15568TIP3   OH268194   1.939   6.376   3.347  0.0755 -0.6045  0.2224
15568TIP3    H168195   1.961   6.439   3.279 -0.3367  0.2702  0.8908
15568TIP3    H268196   1.849   6.351   3.328  0.3531 -1.2871 -0.2546
15569TIP3   OH268197   1.999   1.055  16.822  0.0311  0.3088 -0.1806
15569TIP3    H168198   1.982   0.988  16.889 -2.0105 -0.7528 -1.7174
15569TIP3    H268199   1.997   1.138  16.871 -2.5008 -0.3630  0.9352
15570TIP3   OH268200   0.089   4.338  13.050 -0.0606 -0.6656  0.0963
15570TIP3    H168201   0.061   4.261  13.100  0.9255 -0.2013  1.3967
15570TIP3    H268202   0.056   4.413  13.100 -0.3801 -0.2263 -0.7629
15571TIP3   OH268203   6.227   3.739  15.544  0.0987  0.0793 -0.0677
15571TIP3    H168204   6.145   3.769  15.505 -1.0769 -1.1286  1.3932
15571TIP3    H268205   6.231   3.781  15.629  1.2812  0.5254 -0.3187
15572TIP3   OH268206   3.896   0.531   0.142 -1.0580 -0.0356  0.0537
15572TIP3    H168207   3.868   0.518   0.051 -0.1617  0.3367 -0.2781
15572TIP3    H268208   3.829   0.589   0.179 -0.2167  1.6659 -1.0212
15573TIP3   OH268209   5.329   6.735  12.926  0.1244 -0.1084 -0.2175
15573TIP3    H168210   5.318   6.640  12.926  1.7621 -0.3111 -2.1598
15573TIP3    H268211   5.249   6.768  12.886  0.6756 -0.8276 -1.9445
15574TIP3   OH268212   3.347   2.552  14.500  0.2413 -0.0269  0.0110
15574TIP3    H168213   3.270   2.595  14.539 -0.2784  0.8832 -1.9729
15574TIP3    H268214   3.327   2.547  14.407  2.9523  0.9607 -0.6655
15575TIP3   OH268215   4.070   2.020   3.367 -0.1364  0.1516  0.1717
15575TIP3    H168216   4.049   2.099   3.417 -0.3289  0.0454  0.2573
15575TIP3    H268217   3.986   1.976   3.355 -0.1181  0.2579 -0.3846
15576TIP3   OH268218   6.608   6.303  14.694 -0.5728  0.3241 -0.0667
15576TIP3    H168219   6.556   6.372  14.735  0.6485  1.4997 -0.4672
15576TIP3    H268220   6.698   6.332  14.703 -0.0285 -1.2557 -0.1975
15577TIP3   OH268221   1.052   5.353   0.311 -0.0298 -0.1505 -0.3468
15577TIP3    H168222   0.974   5.399   0.341 -0.4848 -1.1941  0.0843
15577TIP3    H268223   1.050   5.362   0.215 -0.5396  0.0329 -0.3172
15578TIP3   OH268224   1.326   3.276  16.310  0.8928 -0.0594 -0.2365
15578TIP3    H168225   1.242   3.231  16.313  0.4046  0.9040  0.7520
15578TIP3    H268226   1.381   3.221  16.254 -0.4451 -0.5981 -1.0366
15579TIP3   OH268227   0.018   0.344  14.018  0.3105  0.8044 -0.1154
15579TIP3    H168228   0.083   0.326  14.086 -0.0957  1.4389  0.4354
15579TIP3    H268229  -0.008   0.435  14.032 -0.3966  0.6809 -0.5880
15580TIP3   OH268230   5.689   2.625  12.169  0.4310 -0.1146  0.3619
15580TIP3    H168231   5.739   2.695  12.127  1.6101  0.7133  3.0517
15580TIP3    H268232   5.755   2.574  12.217 -0.5490 -2.4920 -0.7420
15581TIP3   OH268233   0.991   2.812   0.469 -0.1459 -0.5622  0.9462
15581TIP3    H168234   0.955   2.870   0.402  0.6213  0.7669  1.6694
15581TIP3    H268235   1.086   2.818   0.458 -0.0711 -2.3933  0.4484
15582TIP3   OH268236   5.972   4.807  15.797  0.3549  0.4307  0.1898
15582TIP3    H168237   5.912   4.866  15.751 -1.3536 -0.5656  1.0928
15582TIP3    H268238   6.044   4.794  15.736 -1.1069  0.3937 -1.5686
15583TIP3   OH268239   5.217   4.010  13.149 -0.0230  0.5482  0.3853
15583TIP3    H168240   5.241   4.044  13.235  1.8322 -0.2032  0.1842
15583TIP3    H268241   5.286   3.946  13.128 -1.8412 -1.1709 -0.5307
15584TIP3   OH268242   6.659   0.138   4.229 -0.1124 -0.1344  0.2055
15584TIP3    H168243   6.672   0.184   4.312  1.4541 -3.1804  1.7320
15584TIP3    H268244   6.698   0.195   4.163  1.5568  0.8270  1.9972
15585TIP3   OH268245   2.423   5.733  13.469 -0.5520  0.4612  0.0634
15585TIP3    H168246   2.506   5.737  13.516 -1.2856  2.0268  1.2671
15585TIP3    H268247   2.406   5.639  13.459  0.8644  0.1222  0.6692
15586TIP3   OH268248   1.303   6.626  13.469 -0.3350 -0.1932 -0.3603
15586TIP3    H168249   1.333   6.630  13.560 -1.7310  0.9876  0.0657
15586TIP3    H268250   1.367   6.570  13.425  0.6952 -0.2776  1.2127
15587TIP3   OH268251   0.890   1.354   2.091  0.0808  0.3380  0.0571
15587TIP3    H168252   0.910   1.381   2.001 -0.0565 -0.9267 -0.3601
15587TIP3    H268253   0.922   1.426   2.145  1.7595  0.3369 -0.9001
15588TIP3   OH268254   6.755   0.924   2.691 -0.2158  0.1836  0.7705
15588TIP3    H168255   6.661   0.926   2.673 -0.5624  1.6215  2.5509
15588TIP3    H268256   6.770   0.840   2.733 -0.3311 -0.9014 -1.3123
15589TIP3   OH268257   6.212   0.626   2.767 -0.1048  0.0083 -0.0195
15589TIP3    H168258   6.119   0.626   2.787 -0.5609 -0.7391 -2.0621
15589TIP3    H268259   6.225   0.702   2.711  0.7258  0.7389  1.1425
15590TIP3   OH268260   3.046   2.489  12.861  0.0420 -0.2807  0.2767
15590TIP3    H168261   2.996   2.537  12.794  1.3962  1.5625  0.5770
15590TIP3    H268262   2.993   2.497  12.940 -0.4163 -0.4660 -0.0091
15591TIP3   OH268263   6.689   4.998   4.166 -0.6206 -0.1563  0.1882
15591TIP3    H168264   6.684   5.056   4.089  1.4337 -1.4312 -0.9576
15591TIP3    H268265   6.631   5.039   4.230 -3.4400  0.2573 -2.4700
15592TIP3   OH268266   6.668   0.972  16.548  0.1978  0.0084 -0.1161
15592TIP3    H168267   6.593   0.962  16.490  1.1925 -2.8697 -0.9813
15592TIP3    H268268   6.741   0.934  16.499  1.8882  1.2184  1.3946
15593TIP3   OH268269   4.183   1.666   2.234 -0.2817  0.7970 -0.0062
15593TIP3    H168270   4.247   1.601   2.263  0.6030  1.9313  0.6232
15593TIP3    H268271   4.217   1.750   2.266 -1.1402  1.6423 -1.2359
15594TIP3   OH268272   6.250   0.195  15.469  0.4311 -0.2869 -0.6856
15594TIP3    H168273   6.256   0.108  15.430 -0.4670  0.4440 -2.4831
15594TIP3    H268274   6.311   0.248  15.418 -0.7513  0.6795 -1.1019
15595TIP3   OH268275   1.045   4.851  14.744 -0.4056  0.0947 -0.2607
15595TIP3    H168276   0.999   4.934  14.756  0.4094  0.3873  0.8745
15595TIP3    H268277   1.005   4.792  14.808 -0.6459 -0.2661 -0.7297
15596TIP3   OH268278   5.898   1.932  15.757  0.1483  0.2081 -0.7956
15596TIP3    H168279   5.908   1.909  15.849  1.0962 -0.0689 -0.9558
15596TIP3    H268280   5.816   1.980  15.752  0.0997  0.2256  0.1962
15597TIP3   OH268281   2.057   4.964   0.116  0.8121  0.1702 -0.1374
15597TIP3    H168282   2.042   5.058   0.101 -1.1395 -0.0509  0.2568
15597TIP3    H268283   1.973   4.932   0.149  1.0810 -1.9951 -1.5263
15598TIP3   OH268284   3.453   1.497   6.710  0.0059  0.5867 -0.1449
15598TIP3    H168285   3.470   1.406   6.737  1.9691  0.5159 -1.4996
15598TIP3    H268286   3.534   1.524   6.667 -0.2733  3.2741  0.9629
15599TIP3   OH268287   0.919   6.683   2.036  0.5119  0.4880 -0.7805
15599TIP3    H168288   0.974   6.690   1.957 -0.0347  0.2254 -1.1862
15599TIP3    H268289   0.837   6.725   2.012  0.5034  0.8028 -0.1985
15600TIP3   OH268290   5.241   5.349   0.783  0.2264  0.2740 -0.2134
15600TIP3    H168291   5.220   5.427   0.732 -1.2924 -0.4016 -0.6744
15600TIP3    H268292   5.230   5.376   0.874 -1.4292  0.3059 -0.4072
15601TIP3   OH268293   2.461   3.941  11.146  0.4621  0.0431 -0.2576
15601TIP3    H168294   2.418   3.868  11.192  1.0589 -1.0526 -1.4072
15601TIP3    H268295   2.546   3.949  11.188 -0.3793  1.4265  1.2216
15602TIP3   OH268296   0.572   0.701  15.784  0.2633 -0.3004 -0.4880
15602TIP3    H168297   0.478   0.702  15.768  0.0076  1.0995  1.0631
15602TIP3    H268298   0.584   0.637  15.854  0.5511 -0.9353 -1.1057
15603TIP3   OH268299   1.726   5.688  16.824  0.2697  0.4448 -0.4828
15603TIP3    H168300   1.771   5.625  16.879 -0.8015 -1.0510 -1.2689
15603TIP3    H268301   1.696   5.756  16.884  0.6492 -0.2619  0.5067
15604TIP3   OH268302   4.294   2.990   4.476  0.0493  0.6132  0.5202
15604TIP3    H168303   4.308   2.900   4.505 -1.7000 -0.4028 -1.6434
15604TIP3    H268304   4.231   2.983   4.404 -1.0899  3.6869  1.1222
15605TIP3   OH268305   5.150   3.306   3.454  0.2221 -0.6978  0.4948
15605TIP3    H168306   5.122   3.245   3.385  0.9203  0.1068 -0.5223
15605TIP3    H268307   5.237   3.334   3.427  0.2346  0.1340  1.3737
15606TIP3   OH268308   3.859   1.902   1.571  0.6085 -0.0633 -0.0718
15606TIP3    H168309   3.864   1.815   1.611  1.7953 -0.6930 -1.5300
15606TIP3    H268310   3.942   1.911   1.523 -0.4292  0.9944 -1.7054
15607TIP3   OH268311   3.725   6.117  17.088  0.2507  0.2610  0.4441
15607TIP3    H168312   3.683   6.203  17.093  0.6020  0.5882 -1.7480
15607TIP3    H268313   3.818   6.136  17.079  0.1221 -0.2429 -2.4182
15608TIP3   OH268314   2.975   2.744   3.076 -0.1757 -0.4401  0.4926
15608TIP3    H168315   3.036   2.725   3.146  0.8611 -0.9412 -0.5318
15608TIP3    H268316   3.013   2.818   3.029  0.1258 -1.3087 -0.6777
15609TIP3   OH268317   6.772   4.662   2.622  0.9067 -0.3114  0.3457
15609TIP3    H168318   6.731   4.577   2.606 -0.7568  0.6230 -0.5593
15609TIP3    H268319   6.732   4.720   2.557  2.9383  0.8899  0.1355
15610TIP3   OH268320   6.687   0.825  15.333 -0.0206  0.0965  0.0173
15610TIP3    H168321   6.782   0.810  15.327 -0.0250 -0.5148  1.2072
15610TIP3    H268322   6.654   0.806  15.245  1.0172  0.6984 -0.5100
15611TIP3   OH268323   0.985   2.623  16.701 -0.3228  0.1974 -0.0500
15611TIP3    H168324   0.944   2.700  16.741 -1.1082  0.5793 -1.5367
15611TIP3    H268325   1.049   2.593  16.766 -0.1300  1.9973  0.6318
15612TIP3   OH268326   1.363   3.102  16.973 -0.0371 -0.3653 -0.1653
15612TIP3    H168327   1.379   3.019  16.929 -0.1125 -0.1914 -0.5227
15612TIP3    H268328   1.333   3.161  16.904  1.5729  0.4119 -0.2306
15613TIP3   OH268329   2.427   0.284   1.246 -0.3222  0.1092 -0.0006
15613TIP3    H168330   2.409   0.299   1.153  0.5790  2.4626  0.1630
15613TIP3    H268331   2.348   0.314   1.291 -0.5287 -0.4717  0.0197
15614TIP3   OH268332   6.807   5.384   4.417 -0.0502  0.1171  0.2051
15614TIP3    H168333   6.734   5.338   4.377  0.4097  0.6383 -1.2454
15614TIP3    H268334   6.770   5.469   4.441  0.6072  1.2137 -2.5120
15615TIP3   OH268335   2.988   1.165   1.154 -0.1816  0.1482  0.5717
15615TIP3    H168336   2.967   1.160   1.248  0.4466  0.9458  0.7575
15615TIP3    H268337   2.994   1.074   1.126  2.2078 -0.1524  1.8992
15616TIP3   OH268338   1.324   5.148  14.581  0.0210  0.7832 -0.2017
15616TIP3    H168339   1.348   5.209  14.651  1.6983  0.8020 -0.7763
15616TIP3    H268340   1.364   5.185  14.503  0.9749 -0.9907 -0.5793
15617TIP3   OH268341   3.782   2.311   2.386  0.4460 -0.1606 -1.4252
15617TIP3    H168342   3.873   2.281   2.392  0.5912  0.5148  0.0025
15617TIP3    H268343   3.789   2.402   2.356  0.2060 -0.3254 -1.9819
15618TIP3   OH268344   5.386   3.948  13.529 -0.3137  0.1376  0.2009
15618TIP3    H168345   5.379   3.857  13.501  0.0507  0.7479 -1.9459
15618TIP3    H268346   5.385   3.998  13.447  0.5073  1.9925  1.3105
15619TIP3   OH268347   3.007   5.537  11.380  0.1072 -0.3287 -0.2745
15619TIP3    H168348   3.093   5.532  11.339 -0.8329 -0.0512 -2.3431
15619TIP3    H268349   2.958   5.598  11.325 -0.7305  1.2350  2.1447
15620TIP3   OH268350   0.166   0.791  16.271 -0.1563 -0.2269  0.2333
15620TIP3    H168351   0.226   0.741  16.215  0.1914 -0.6290  0.9537
15620TIP3    H268352   0.084   0.741  16.267 -0.0077 -0.4892  0.4169
15621TIP3   OH268353   4.146   2.152   2.829 -0.3818  0.0935  0.3340
15621TIP3    H168354   4.107   2.148   2.917 -0.2989 -0.9615  0.3315
15621TIP3    H268355   4.075   2.183   2.773 -0.7855 -0.3946  0.5733
15622TIP3   OH268356   0.037   1.482   1.032 -0.0464  0.2716  0.3637
15622TIP3    H168357   0.033   1.571   0.998 -0.0053  0.4530  0.8340
15622TIP3    H268358  -0.053   1.464   1.060  0.0424  0.3273  0.6828
15623TIP3   OH268359   3.308   1.722   0.275  0.0406  0.1909 -0.0962
15623TIP3    H168360   3.304   1.808   0.234 -3.0230  0.1854  0.0586
15623TIP3    H268361   3.388   1.724   0.329 -0.4026  3.2040  0.5220
15624TIP3   OH268362   5.054   1.967  12.699  0.8108  0.1531  0.0381
15624TIP3    H168363   5.096   1.909  12.763 -0.9398 -0.4182  0.7008
15624TIP3    H268364   4.978   2.003  12.745  0.0746  0.4904 -1.4031
15625TIP3   OH268365   1.742   4.385  15.667 -0.6097  0.2215  0.4077
15625TIP3    H168366   1.659   4.393  15.715  0.0773  0.5543  1.5516
15625TIP3    H268367   1.783   4.307  15.703 -0.0947  0.4650  0.3541
15626TIP3   OH268368   3.613   5.616  14.930  0.3511  0.0023 -0.1208
15626TIP3    H168369   3.624   5.633  14.837  0.5874 -1.2848 -0.3284
15626TIP3    H268370   3.646   5.696  14.973  0.6819  0.4018 -1.1081
15627TIP3   OH268371   5.289   1.715  16.976  0.3930 -0.1519  0.6551
15627TIP3    H168372   5.338   1.752  16.903 -0.1001 -2.1349 -0.7360
15627TIP3    H268373   5.226   1.783  16.999  1.2660  0.9172 -0.0528
15628TIP3   OH268374   1.596   6.774   2.371  0.0660  0.3408  0.2551
15628TIP3    H168375   1.501   6.758   2.373  0.0687  0.1277 -1.0308
15628TIP3    H268376   1.633   6.705   2.426 -0.3340 -1.0984 -1.2563
15629TIP3   OH268377   1.765   1.250  15.818 -0.1989  0.8690  0.0207
15629TIP3    H168378   1.766   1.291  15.905  0.4215 -0.9124  0.8917
15629TIP3    H268379   1.843   1.284  15.775  0.6687  0.1190  0.9774
15630TIP3   OH268380   6.631   0.516   3.883 -0.4542  0.7081  0.0997
15630TIP3    H168381   6.599   0.581   3.946 -1.2928  0.8615 -0.4681
15630TIP3    H268382   6.662   0.568   3.809  0.7312  0.5345  0.4768
15631TIP3   OH268383   4.495   6.383  12.074  0.3398 -0.3733  0.1102
15631TIP3    H168384   4.563   6.413  12.135  0.7238  0.2987 -0.6367
15631TIP3    H268385   4.519   6.423  11.990 -0.9771 -0.1341 -0.1601
15632TIP3   OH268386   3.858   4.746  11.430 -0.0082  0.3826 -0.3346
15632TIP3    H168387   3.804   4.780  11.501 -0.4549  0.9713 -0.9505
15632TIP3    H268388   3.805   4.758  11.351 -0.4972 -2.4242 -0.5059
15633TIP3   OH268389   4.946   1.207  11.817  0.2501 -0.1257  0.0545
15633TIP3    H168390   5.035   1.172  11.804  0.8539  1.1083  0.7748
15633TIP3    H268391   4.934   1.207  11.912  0.2095  1.4513  0.0665
15634TIP3   OH268392   4.634   0.372  15.046  0.5733 -0.3228  0.1803
15634TIP3    H168393   4.595   0.311  15.108  0.1241 -1.3837 -1.1349
15634TIP3    H268394   4.704   0.415  15.096  0.2317 -1.1592  1.4098
15635TIP3   OH268395   3.811   1.844   2.911  0.3210  0.1010 -0.1217
15635TIP3    H168396   3.721   1.814   2.919  0.6366 -1.0832 -0.9440
15635TIP3    H268397   3.813   1.926   2.960 -1.4960  0.7791 -1.1361
15636TIP3   OH268398   1.655   3.797   2.931 -0.0146  0.2376  0.6191
15636TIP3    H168399   1.566   3.776   2.905  0.5348  0.4222 -1.4889
15636TIP3    H268400   1.645   3.858   3.004 -1.6022  0.4827  0.2017
15637TIP3   OH268401   4.401   6.540   1.855 -0.5463 -0.5910  0.5118
15637TIP3    H168402   4.379   6.519   1.946 -1.4610 -0.8188  0.2327
15637TIP3    H268403   4.319   6.532   1.807 -0.0394 -0.5996 -0.3679
15638TIP3   OH268404   6.606   0.263   0.654 -0.0851 -0.5668  0.0360
15638TIP3    H168405   6.695   0.231   0.670  0.0051 -0.3909 -0.1120
15638TIP3    H268406   6.618   0.343   0.603 -0.3480 -0.7596 -0.3311
15639TIP3   OH268407   0.774   2.501   4.877  0.4748 -0.4569 -0.0467
15639TIP3    H168408   0.731   2.574   4.920 -0.7609 -0.4044 -1.3181
15639TIP3    H268409   0.827   2.542   4.808  0.3559 -0.7128 -0.2893
15640TIP3   OH268410   2.997   1.837  11.456 -0.2752  0.0658  0.0522
15640TIP3    H168411   3.038   1.894  11.521 -0.2572  0.0432  0.0607
15640TIP3    H268412   3.069   1.780  11.427 -0.5304 -0.6596  0.8246
15641TIP3   OH268413   5.618   6.004   4.553  0.0401  0.1411 -0.2909
15641TIP3    H168414   5.685   6.004   4.485  0.3828  2.8227 -0.0128
15641TIP3    H268415   5.666   5.994   4.635 -0.1388 -0.4930 -0.2604
15642TIP3   OH268416   0.276   4.805  11.182  0.2050 -0.4772  0.0794
15642TIP3    H168417   0.317   4.740  11.125  0.2085 -0.7206  0.3584
15642TIP3    H268418   0.245   4.754  11.257 -0.5445 -0.2867 -0.1011
15643TIP3   OH268419   5.781   4.295   6.512 -0.6286  0.0536 -0.2760
15643TIP3    H168420   5.697   4.314   6.470 -0.5030 -0.1887 -0.6488
15643TIP3    H268421   5.797   4.202   6.492 -0.9617 -0.2840  1.0166
15644TIP3   OH268422   5.430   4.976   1.441  0.5096 -0.4687 -0.2454
15644TIP3    H168423   5.495   5.015   1.382  0.3298  0.0721 -0.0871
15644TIP3    H268424   5.460   4.886   1.452  0.5388 -0.5845 -1.1769
15645TIP3   OH268425   2.425   0.430   4.897  0.5674 -0.4460  0.6697
15645TIP3    H168426   2.461   0.503   4.846  1.5167 -0.3527  1.4521
15645TIP3    H268427   2.330   0.441   4.891  0.6598 -0.7289 -1.4664
15646TIP3   OH268428   5.607   0.366   2.116 -0.4580 -0.0126  0.3176
15646TIP3    H168429   5.638   0.294   2.171 -2.1027 -0.7809  0.2897
15646TIP3    H268430   5.535   0.328   2.065  0.8390  0.7657 -2.1724
15647TIP3   OH268431   4.843   2.393  10.297  0.1736 -0.5964  0.0251
15647TIP3    H168432   4.822   2.484  10.279  0.2563 -0.6560 -0.3616
15647TIP3    H268433   4.933   2.394  10.329  0.3172 -0.5910 -0.3807
15648TIP3   OH268434   2.331   1.293  15.152  0.9030 -0.0229  0.4828
15648TIP3    H168435   2.351   1.201  15.131 -0.5361 -0.1383 -0.4302
15648TIP3    H268436   2.360   1.303  15.243 -1.0796 -2.0585  1.3961
15649TIP3   OH268437   3.167   6.134  16.313  0.4039 -0.0879  0.4163
15649TIP3    H168438   3.162   6.221  16.273  1.4103  0.0236  0.5131
15649TIP3    H268439   3.077   6.102  16.313 -0.1680  1.4591  1.5026
15650TIP3   OH268440   0.940   4.732  14.978 -0.4380  0.1519 -0.4027
15650TIP3    H168441   1.011   4.702  15.035 -0.4717  1.2977  0.2574
15650TIP3    H268442   0.868   4.672  14.995  0.1622 -0.6178 -0.5897
15651TIP3   OH268443   1.826   4.147   3.563  0.2926  0.2400  0.1858
15651TIP3    H168444   1.742   4.194   3.567  1.2168  1.8575  1.0712
15651TIP3    H268445   1.802   4.058   3.536 -2.1460 -0.3633  3.9360
15652TIP3   OH268446   3.540   3.897  14.634 -1.0776 -0.4522  0.6052
15652TIP3    H168447   3.492   3.854  14.704 -1.3149 -0.4678  0.4347
15652TIP3    H268448   3.477   3.958  14.596 -0.8060 -0.1009  0.7133
15653TIP3   OH268449   3.786   4.817  14.958 -0.1268 -0.0409  0.4350
15653TIP3    H168450   3.787   4.761  14.880  1.3730  0.2660  0.2293
15653TIP3    H268451   3.802   4.757  15.031 -0.5568 -0.1770  0.4210
15654TIP3   OH268452   1.176   0.086   0.317 -0.2105 -0.5011 -0.0164
15654TIP3    H168453   1.152   0.066   0.226 -1.6415 -0.5473  0.3580
15654TIP3    H268454   1.126   0.165   0.338 -1.1342 -1.4111  1.2507
15655TIP3   OH268455   6.022   6.584   4.994  0.2503  0.4132 -0.2477
15655TIP3    H168456   6.059   6.496   5.002  0.1215  0.2015 -1.8767
15655TIP3    H268457   5.940   6.571   4.946  1.5545  1.7314 -2.8986
15656TIP3   OH268458   3.073   4.728  16.004 -0.4778 -0.4696  0.7123
15656TIP3    H168459   3.099   4.801  15.949  0.4453 -0.7825  0.7309
15656TIP3    H268460   3.143   4.663  15.994 -2.4324 -2.3630 -1.1506
15657TIP3   OH268461   0.358   3.460  11.675 -0.2669 -0.0279 -0.0389
15657TIP3    H168462   0.319   3.401  11.610 -0.5787  0.1248  0.0096
15657TIP3    H268463   0.330   3.547  11.648 -0.0903  0.0697  0.0892
15658TIP3   OH268464   0.433   4.153  15.065  0.3745 -0.4590  0.1176
15658TIP3    H168465   0.447   4.060  15.048 -0.3681 -0.7052  0.8315
15658TIP3    H268466   0.404   4.157  15.156  1.3803  0.5676  0.4031
15659TIP3   OH268467   0.625   2.936   0.936 -0.4023 -0.2206  0.0181
15659TIP3    H168468   0.673   2.889   0.868  1.9915  0.1842  1.3735
15659TIP3    H268469   0.578   2.867   0.983 -0.6040 -0.7149 -0.9064
15660TIP3   OH268470   1.519   0.641   4.292 -0.5398  0.2255  0.8124
15660TIP3    H168471   1.481   0.564   4.334 -0.5104  0.0162  0.4625
15660TIP3    H268472   1.584   0.673   4.354 -1.5265  0.7886  1.5657
15661TIP3   OH268473   2.684   4.354  15.453 -0.4990 -0.3082 -0.0652
15661TIP3    H168474   2.700   4.261  15.468  1.5896  0.0726  0.2631
15661TIP3    H268475   2.764   4.386  15.412 -0.5282  1.6885  1.3380
15662TIP3   OH268476   5.115   2.504   2.755  0.6722 -0.2775 -0.0461
15662TIP3    H168477   5.117   2.575   2.691  0.5894  0.7108  1.0384
15662TIP3    H268478   5.185   2.524   2.816  0.7950 -1.2525  0.1493
15663TIP3   OH268479   5.754   0.919   0.722 -0.3222  0.3232  0.4390
15663TIP3    H168480   5.748   0.937   0.629 -1.4052 -2.0087  0.0095
15663TIP3    H268481   5.673   0.956   0.759 -0.3216  0.4588  0.3023
15664TIP3   OH268482   0.658   3.591   3.613  0.5074 -0.1052  0.2091
15664TIP3    H168483   0.704   3.564   3.693  1.3362 -1.6917 -0.7681
15664TIP3    H268484   0.568   3.561   3.627  0.7806 -0.8949  0.3122
15665TIP3   OH268485   5.569   4.484  11.577 -0.3668  0.2410  0.3408
15665TIP3    H168486   5.577   4.570  11.535  2.0160 -1.1158 -2.1784
15665TIP3    H268487   5.659   4.451  11.580 -1.3089 -2.3810  0.8430
15666TIP3   OH268488   6.278   0.851  11.970 -0.5534 -0.4744 -0.1945
15666TIP3    H168489   6.312   0.931  11.929 -0.2471  0.6057  2.1137
15666TIP3    H268490   6.186   0.871  11.988 -0.7316 -1.0132 -0.5135
15667TIP3   OH268491   3.036   3.693   0.268 -0.3972  0.3393 -0.1392
15667TIP3    H168492   3.014   3.756   0.336 -0.1882  0.8340 -0.5242
15667TIP3    H268493   2.954   3.680   0.220 -0.1421  1.2987 -0.8537
15668TIP3   OH268494   5.822   6.116   4.364 -0.5650 -0.0220  0.1760
15668TIP3    H168495   5.887   6.116   4.293 -1.2536 -1.3027 -0.4677
15668TIP3    H268496   5.765   6.189   4.344  1.1694  1.6657  1.2178
15669TIP3   OH268497   3.991   1.957   5.200 -0.2546  0.1589 -0.2707
15669TIP3    H168498   3.899   1.935   5.187 -0.4467  0.3122  0.7878
15669TIP3    H268499   4.016   1.913   5.282 -0.2084  2.5006  1.0356
15670TIP3   OH268500   5.364   0.320   3.221  0.3402 -0.0154 -0.1412
15670TIP3    H168501   5.415   0.391   3.262  0.6887 -0.4291  0.1430
15670TIP3    H268502   5.408   0.305   3.137  1.4678 -1.2307  0.6402
15671TIP3   OH268503   6.375   6.279  11.586 -0.0421 -0.2966  0.3484
15671TIP3    H168504   6.321   6.267  11.665 -1.8847 -0.2922 -0.8790
15671TIP3    H268505   6.461   6.245  11.611 -0.7652 -0.8854  2.1620
15672TIP3   OH268506   3.206   1.852  12.536 -0.1968 -0.9838 -0.3674
15672TIP3    H168507   3.136   1.824  12.595  0.1254 -0.5134  0.2472
15672TIP3    H268508   3.247   1.926  12.581  0.8852 -1.4346 -0.5899
15673TIP3   OH268509   1.320   1.726  15.211  0.2676 -0.6138 -0.4275
15673TIP3    H168510   1.298   1.633  15.215  0.7619 -0.6721  1.9228
15673TIP3    H268511   1.266   1.761  15.141 -1.6993 -2.1972  0.2638
15674TIP3   OH268512   1.533   1.919   5.773 -0.3722 -0.7545 -0.2058
15674TIP3    H168513   1.606   1.857   5.770  0.2370 -0.1057  0.4998
15674TIP3    H268514   1.566   1.996   5.726 -0.7041 -0.5704 -0.1377
15675TIP3   OH268515   4.028   1.317  12.872  0.1616 -0.1202 -0.6268
15675TIP3    H168516   3.997   1.252  12.935  0.2899 -0.5141 -0.9751
15675TIP3    H268517   3.996   1.400  12.907  1.0084 -0.2339  0.4573
15676TIP3   OH268518   0.494   2.524   0.486 -0.0297 -0.7868 -0.2310
15676TIP3    H168519   0.545   2.595   0.447 -0.7113 -0.1876 -0.0420
15676TIP3    H268520   0.500   2.539   0.580  0.3800 -1.3732 -0.1593
15677TIP3   OH268521   0.559   1.180   4.801 -0.0682 -0.2645 -0.2732
15677TIP3    H168522   0.538   1.090   4.826 -0.7414  0.3297  1.3806
15677TIP3    H268523   0.643   1.197   4.843 -0.3999  0.1909  0.2080
15678TIP3   OH268524   4.563   5.898   2.550 -0.2648 -0.2983 -0.4603
15678TIP3    H168525   4.548   5.804   2.541 -0.3204 -0.3900  0.5666
15678TIP3    H268526   4.658   5.907   2.549 -0.2447 -0.4328  0.0874
15679TIP3   OH268527   0.720   0.043  13.366  0.0418  0.1886 -0.7286
15679TIP3    H168528   0.730   0.126  13.319 -1.5306 -0.2455 -1.8945
15679TIP3    H268529   0.650  -0.002  13.319 -1.3002 -0.4435  1.7893
15680TIP3   OH268530   0.020   6.456  14.720 -0.0776 -0.2510 -0.5056
15680TIP3    H168531   0.112   6.469  14.696  0.0921 -0.6766 -0.1190
15680TIP3    H268532  -0.027   6.526  14.676  0.4884  0.2118 -0.3864
15681TIP3   OH268533   5.028   0.037  10.627  0.8388  0.0845  0.3041
15681TIP3    H168534   5.002   0.097  10.557  1.2503 -2.2820 -1.9498
15681TIP3    H268535   4.960  -0.031  10.627  1.3660 -0.4591  1.5314
15682TIP3   OH268536   6.763   2.842   3.341  0.2395 -0.5386 -0.0003
15682TIP3    H168537   6.800   2.771   3.393  1.9727 -0.7961 -1.5247
15682TIP3    H268538   6.821   2.916   3.356 -1.0902  0.3175  0.9361
15683TIP3   OH268539   2.506   5.432   5.995 -0.5571  0.2782  0.1327
15683TIP3    H168540   2.546   5.499   5.941 -0.3080  1.9641  2.3184
15683TIP3    H268541   2.431   5.474   6.036 -2.3813 -1.7617 -0.9686
15684TIP3   OH268542   6.220   2.943  17.086  0.4317 -0.6928 -0.2141
15684TIP3    H168543   6.307   2.926  17.051  1.0607  0.2836  0.8491
15684TIP3    H268544   6.230   2.937  17.181 -0.9112 -1.6860 -0.1198
15685TIP3   OH268545   0.261   2.608  16.860 -0.5000  0.0009  0.8496
15685TIP3    H168546   0.295   2.652  16.782 -0.4567  0.2139  0.9861
15685TIP3    H268547   0.268   2.515  16.840 -0.0411  0.0467  0.7874
15686TIP3   OH268548   4.875   0.571   2.262  0.2053 -0.1081  0.3810
15686TIP3    H168549   4.826   0.639   2.215  0.2437  0.8395  1.6730
15686TIP3    H268550   4.814   0.497   2.267 -0.7223  0.6961  1.0804
15687TIP3   OH268551   0.854   5.076  14.790 -0.1177  0.3387  0.0956
15687TIP3    H168552   0.847   5.117  14.704 -1.7181  0.2257  0.1609
15687TIP3    H268553   0.890   5.144  14.847 -0.7452  0.9713 -0.2661
15688TIP3   OH268554   1.893   0.028   4.160 -0.4266  0.3022 -0.6842
15688TIP3    H168555   1.979   0.068   4.148  0.0513 -0.1349  1.1771
15688TIP3    H268556   1.832   0.101   4.166 -0.2433  0.6038 -2.3837
15689TIP3   OH268557   4.865   0.865  13.965 -0.3697 -0.5546 -0.1031
15689TIP3    H168558   4.943   0.899  13.922 -0.5255 -1.2619 -0.9563
15689TIP3    H268559   4.873   0.893  14.056  1.9356 -2.4528  0.3077
15690TIP3   OH268560   2.508   1.032   6.263  0.1551  0.2419 -0.3564
15690TIP3    H168561   2.436   0.973   6.288  0.8032  0.5258  2.2595
15690TIP3    H268562   2.500   1.107   6.322  2.0704  0.7055 -0.6472
15691TIP3   OH268563   5.376   6.050   4.162 -0.9955  0.3502  0.1193
15691TIP3    H168564   5.287   6.019   4.148  0.0645 -2.4686 -0.8777
15691TIP3    H268565   5.427   6.007   4.094  1.5846 -0.3987  2.4334
15692TIP3   OH268566   4.823   1.524   6.592  0.5460 -0.4076  0.0660
15692TIP3    H168567   4.897   1.468   6.613  0.4257 -0.3204  0.7339
15692TIP3    H268568   4.861   1.597   6.545  0.9690 -0.0822  0.8941
15693TIP3   OH268569   0.683   3.047   1.679  0.3891  0.4027  0.1781
15693TIP3    H168570   0.703   2.954   1.687 -1.0026 -0.0878 -1.6296
15693TIP3    H268571   0.687   3.081   1.768  0.9072 -1.3780  0.8501
15694TIP3   OH268572   1.667   1.292   3.638 -0.2171  0.8010 -0.2760
15694TIP3    H168573   1.720   1.267   3.713 -0.1425 -0.4097 -0.7244
15694TIP3    H268574   1.583   1.247   3.652 -0.7619  1.8512 -0.1079
15695TIP3   OH268575   4.925   2.660  16.705 -0.5068  0.3542 -0.0673
15695TIP3    H168576   4.979   2.587  16.674  0.6815  0.4230  1.7674
15695TIP3    H268577   4.837   2.623  16.712  0.1667 -1.0515  1.2516
15696TIP3   OH268578   1.429   6.310   6.962 -0.0538 -0.5350  0.4350
15696TIP3    H168579   1.362   6.354   6.909 -0.0931  0.1411  1.0340
15696TIP3    H268580   1.408   6.335   7.052  1.7786  0.7619  0.5308
15697TIP3   OH268581   1.996   5.961   5.189 -0.4164 -0.5405  0.0838
15697TIP3    H168582   2.022   5.915   5.269  0.7074 -1.0116 -0.5526
15697TIP3    H268583   1.907   5.993   5.208 -0.3248 -1.0186  1.3563
15698TIP3   OH268584   4.021   2.570  16.002  0.8395 -0.0931 -0.2580
15698TIP3    H168585   3.974   2.613  16.073 -1.0317  0.1652 -1.5994
15698TIP3    H268586   4.111   2.598  16.012  0.1394  1.9450  0.5243
15699TIP3   OH268587   6.083   1.218   6.334  0.0541 -0.3465 -0.1179
15699TIP3    H168588   6.017   1.149   6.339 -1.3274  0.8404 -1.6522
15699TIP3    H268589   6.139   1.202   6.410 -0.3016 -3.0684 -0.3599
15700TIP3   OH268590   0.613   1.858   5.404 -0.2139 -0.2860  0.1912
15700TIP3    H168591   0.705   1.869   5.378 -0.7573  0.5892 -1.4072
15700TIP3    H268592   0.616   1.849   5.499  1.4041  1.1146  0.2870
15701TIP3   OH268593   0.026   2.341  16.254  0.4630 -0.5180  0.1767
15701TIP3    H168594   0.111   2.311  16.286  0.3553 -0.4233  0.5566
15701TIP3    H268595  -0.009   2.267  16.205  0.7817 -0.5414 -0.0166
15702TIP3   OH268596   1.508   3.649  16.635 -0.1442  0.1767 -0.4444
15702TIP3    H168597   1.438   3.714  16.640 -0.7874 -0.6724  2.7721
15702TIP3    H268598   1.468   3.574  16.591 -1.4565 -0.5042  1.8645
15703TIP3   OH268599   0.381   3.033  14.240 -0.0463  0.0352  0.1359
15703TIP3    H168600   0.345   3.074  14.161  2.1004 -0.7660 -1.2859
15703TIP3    H268601   0.323   3.062  14.310 -1.1807  1.8911 -1.5209
15704TIP3   OH268602   5.481   6.279   1.791  0.3446  0.4658 -0.3033
15704TIP3    H168603   5.439   6.226   1.859 -0.8729  1.3261 -0.3692
15704TIP3    H268604   5.444   6.246   1.709  0.6065  0.5092 -0.4393
15705TIP3   OH268605   2.470   1.931  14.092 -0.4638  0.1530  0.1224
15705TIP3    H168606   2.436   1.909  14.005 -0.6025 -0.9495  0.4553
15705TIP3    H268607   2.394   1.923  14.150  0.0683 -1.0793  0.6637
15706TIP3   OH268608   6.367   5.871   3.716  0.2128 -0.0425 -0.1332
15706TIP3    H168609   6.337   5.782   3.698  1.0622 -0.6032  1.1369
15706TIP3    H268610   6.459   5.861   3.739  0.4662  1.2371 -0.5597
15707TIP3   OH268611   3.740   1.527   3.700 -0.6481 -0.0311 -0.2886
15707TIP3    H168612   3.805   1.490   3.640  0.1612 -2.7387  2.1454
15707TIP3    H268613   3.656   1.509   3.657 -0.0972 -2.0771 -0.5431
15708TIP3   OH268614   5.662   5.501   2.341  0.0102  0.7907  0.3071
15708TIP3    H168615   5.643   5.447   2.418 -0.7329 -0.9110 -1.0369
15708TIP3    H268616   5.612   5.582   2.355 -0.6282  0.2339  1.3140
15709TIP3   OH268617   0.039   2.726  16.553  0.3592 -0.2973  0.7202
15709TIP3    H168618   0.124   2.747  16.593  1.5931 -1.9708 -0.9361
15709TIP3    H268619   0.010   2.808  16.514  0.4292  0.6807  2.6431
15710TIP3   OH268620   4.994   4.864  12.680  0.1355 -0.2447  0.0888
15710TIP3    H168621   5.018   4.931  12.615  0.0559 -0.2680  0.0344
15710TIP3    H268622   4.930   4.908  12.737 -0.0495 -0.3284 -0.0529
15711TIP3   OH268623   1.187   0.143  13.420  0.1877  0.3982  0.4372
15711TIP3    H168624   1.133   0.078  13.378  1.2695 -0.8606  0.9554
15711TIP3    H268625   1.198   0.212  13.355 -0.5818 -0.1577 -0.2775
15712TIP3   OH268626   6.231   1.501  16.518 -0.1699  0.0267 -0.1237
15712TIP3    H168627   6.181   1.545  16.449 -1.6576  0.2797  1.0607
15712TIP3    H268628   6.166   1.447  16.563  0.9595 -0.8148  0.5171
15713TIP3   OH268629   1.060   6.534  10.964  0.1539 -0.0870 -0.3163
15713TIP3    H168630   1.009   6.597  10.914 -1.5732 -2.3995 -1.5918
15713TIP3    H268631   1.040   6.449  10.923  2.7279 -1.4173  1.0513
15714TIP3   OH268632   2.825   4.537  12.480 -0.5112 -0.5110 -0.3654
15714TIP3    H168633   2.823   4.622  12.524 -0.9917 -0.7934  0.1619
15714TIP3    H268634   2.900   4.492  12.518  0.9767  0.4416 -2.0942
15715TIP3   OH268635   4.892   4.360   6.145 -0.4206 -0.5146  0.4043
15715TIP3    H168636   4.897   4.433   6.083  0.5820  0.3355  1.4582
15715TIP3    H268637   4.981   4.325   6.147 -0.5130 -0.6958  1.1890
15716TIP3   OH268638   1.434   1.222   3.747 -0.0806 -0.2010 -0.2817
15716TIP3    H168639   1.397   1.158   3.687  2.4990  0.0610 -2.2381
15716TIP3    H268640   1.492   1.171   3.804  0.6987  0.1554 -0.7554
15717TIP3   OH268641   2.500   0.387   5.171  0.2893 -0.3245  0.0421
15717TIP3    H168642   2.595   0.376   5.163  0.4283  1.1718 -0.4351
15717TIP3    H268643   2.477   0.450   5.102 -0.7726  0.8322  1.4242
15718TIP3   OH268644   3.776   2.306  13.776 -0.4258 -0.3012  0.1656
15718TIP3    H168645   3.732   2.359  13.710 -1.4042 -1.5258 -0.2060
15718TIP3    H268646   3.767   2.356  13.857 -2.0796 -0.2817 -0.0042
15719TIP3   OH268647   6.024   3.899  16.761 -0.1532  0.1315  0.4649
15719TIP3    H168648   6.067   3.983  16.744 -1.4878  0.6855 -0.2488
15719TIP3    H268649   5.941   3.922  16.803  0.0737 -0.9109  1.5225
15720TIP3   OH268650   2.916   4.111  14.147 -0.2082 -0.4902  0.3953
15720TIP3    H168651   2.990   4.085  14.203  0.2720 -1.0724 -0.4867
15720TIP3    H268652   2.841   4.067  14.186 -0.2765  0.9448  1.9121
15721TIP3   OH268653   4.331   4.234   0.718  0.1587 -0.4377 -0.0137
15721TIP3    H168654   4.353   4.302   0.782 -1.2940  0.5039 -0.4874
15721TIP3    H268655   4.246   4.200   0.748 -0.9326  0.5855 -1.8675
15722TIP3   OH268656   0.686   3.666   0.838  0.3144 -0.8693 -0.0388
15722TIP3    H168657   0.753   3.655   0.905  0.6875  0.4284 -0.1942
15722TIP3    H268658   0.604   3.674   0.887  0.6370  0.5115  0.2910
15723TIP3   OH268659   2.865   1.825  14.943  0.1221 -0.3060  0.1632
15723TIP3    H168660   2.816   1.756  14.987 -0.6041 -1.0416 -1.7550
15723TIP3    H268661   2.819   1.838  14.860  0.1784  2.5379  0.4969
15724TIP3   OH268662   6.423   2.881   4.143  0.1952  0.5512  0.1201
15724TIP3    H168663   6.363   2.945   4.179  1.4132  2.0815 -0.5273
15724TIP3    H268664   6.510   2.916   4.160  0.9157 -1.3374  0.5140
15725TIP3   OH268665   2.908   3.779  15.566 -0.4301  0.2116 -0.1676
15725TIP3    H168666   2.993   3.820  15.578 -0.1682  0.3596 -2.2600
15725TIP3    H268667   2.922   3.686  15.587 -0.3267  0.6446  1.7250
15726TIP3   OH268668   4.036   5.598  10.964  0.1455 -0.3673  0.1946
15726TIP3    H168669   4.005   5.639  11.045  0.5896  0.7047 -0.1669
15726TIP3    H268670   4.079   5.669  10.916  0.0633 -1.0431 -0.8952
15727TIP3   OH268671   6.633   5.553  11.423  0.5695 -0.0664  0.8055
15727TIP3    H168672   6.703   5.495  11.392  0.2607  0.2832 -0.5683
15727TIP3    H268673   6.604   5.599  11.344 -0.0395  1.0405  1.6716
15728TIP3   OH268674   2.591   0.339   3.655  0.1602  0.4635  0.5696
15728TIP3    H168675   2.572   0.299   3.570 -0.8686  0.0430  0.9891
15728TIP3    H268676   2.511   0.328   3.705  0.4678  1.4863  1.3040
15729TIP3   OH268677   4.558   5.627   2.522  0.0103  0.6439 -0.3055
15729TIP3    H168678   4.577   5.596   2.433  0.6640 -1.0377  0.4012
15729TIP3    H268679   4.644   5.643   2.561 -0.2338  0.1956  0.4254
15730TIP3   OH268680   3.100   0.822   3.575 -0.2008  0.0515 -0.0045
15730TIP3    H168681   3.012   0.785   3.582 -0.0564 -0.3621 -0.3572
15730TIP3    H268682   3.092   0.909   3.613 -0.4892 -0.4353  1.0540
15731TIP3   OH268683   2.208   2.192   2.717 -0.0609  0.1099 -0.1093
15731TIP3    H168684   2.146   2.121   2.706  0.0222  0.1142 -0.6339
15731TIP3    H268685   2.158   2.271   2.697 -0.1418  0.1946  0.4274
15732TIP3   OH268686   4.296   3.443  12.770  0.0922 -0.3300 -0.0187
15732TIP3    H168687   4.292   3.538  12.782  0.6814 -0.5223  1.8370
15732TIP3    H268688   4.210   3.420  12.735  0.1536  0.9621 -1.0560
15733TIP3   OH268689   4.837   1.937  14.095 -0.3252 -0.2049 -0.0902
15733TIP3    H168690   4.840   1.877  14.170 -1.5964  1.1125  1.0674
15733TIP3    H268691   4.748   1.930  14.062 -0.3059  0.5582 -0.3240
15734TIP3   OH268692   1.203   4.447   2.802  0.9162  0.5782  0.4234
15734TIP3    H168693   1.247   4.464   2.719  1.6638  0.5677  0.8101
15734TIP3    H268694   1.190   4.352   2.804 -0.7553  0.7703 -0.4937
15735TIP3   OH268695   4.583   2.963  13.291 -0.1897  0.0502 -0.0550
15735TIP3    H168696   4.516   3.030  13.276  0.8615  0.9714 -0.6612
15735TIP3    H268697   4.658   2.991  13.238  0.5717 -1.1450  0.3671
15736TIP3   OH268698   5.562   1.499  16.437  0.2943  0.0390  0.4445
15736TIP3    H168699   5.557   1.592  16.413 -2.5680 -0.2574 -0.3280
15736TIP3    H268700   5.572   1.453  16.354 -1.2561 -0.5085  0.5539
15737TIP3   OH268701   6.679   6.760  13.850 -0.2479 -0.5408  0.3390
15737TIP3    H168702   6.720   6.836  13.810 -1.4101  0.0610  0.2553
15737TIP3    H268703   6.666   6.699  13.777  3.9093 -2.3550  0.9790
15738TIP3   OH268704   1.690   5.007   3.086  0.2419 -0.2295 -0.3667
15738TIP3    H168705   1.641   4.925   3.090  0.0692 -0.0161  2.9699
15738TIP3    H268706   1.623   5.074   3.070  0.0654 -0.4394 -0.5061
15739TIP3   OH268707   2.716   5.790   3.649 -0.2324 -0.1966  0.1824
15739TIP3    H168708   2.676   5.732   3.714 -1.5962  0.9829  0.4376
15739TIP3    H268709   2.809   5.771   3.654 -0.4778 -1.1640  1.4464
15740TIP3   OH268710   3.951   5.552   3.706  0.0465  0.3876 -0.9503
15740TIP3    H168711   4.034   5.561   3.658 -0.2474 -2.5209 -2.1479
15740TIP3    H268712   3.965   5.477   3.764 -1.2142  0.8952  0.0272
15741TIP3   OH268713   1.476   1.964   1.150  0.6000  0.1338 -0.0686
15741TIP3    H168714   1.480   1.985   1.057  0.4333 -1.2011 -0.3911
15741TIP3    H268715   1.556   1.914   1.167  0.7581  0.5850  0.5723
15742TIP3   OH268716   2.043   6.175  13.755 -0.0404 -0.3499 -0.3425
15742TIP3    H168717   2.070   6.231  13.682 -0.5400  0.2233 -0.0945
15742TIP3    H268718   1.988   6.108  13.714  0.0863 -0.3212 -0.5626
15743TIP3   OH268719   1.777   6.453   0.080  0.4772  0.0318  0.6439
15743TIP3    H168720   1.688   6.448   0.113  0.8175  0.9919  1.7575
15743TIP3    H268721   1.813   6.532   0.121  1.9056 -0.4684  0.3757
15744TIP3   OH268722   5.344   4.606  12.881  0.5472  0.1161 -0.4660
15744TIP3    H168723   5.338   4.511  12.878  0.4296  0.0640  0.9927
15744TIP3    H268724   5.253   4.635  12.892  0.8605  0.2223  2.2877
15745TIP3   OH268725   0.328   1.565  13.765 -0.8551 -0.2025  0.2047
15745TIP3    H168726   0.262   1.510  13.724 -1.2178  1.2144 -1.1467
15745TIP3    H268727   0.370   1.611  13.693 -0.0299  0.7138  1.2435
15746TIP3   OH268728   1.322   1.175   2.916 -0.2650 -0.3365  0.0130
15746TIP3    H168729   1.386   1.236   2.951  0.4050 -1.4711  0.8103
15746TIP3    H268730   1.257   1.167   2.986 -0.3586 -0.5304 -0.0959
15747TIP3   OH268731   1.875   5.909  15.312 -0.0742 -0.1023 -0.4151
15747TIP3    H168732   1.795   5.876  15.353  0.4753  0.2074  0.9238
15747TIP3    H268733   1.851   5.924  15.221 -1.5671  0.0505 -0.0026
15748TIP3   OH268734   2.233   4.971   1.537 -0.0156 -0.7214  0.0130
15748TIP3    H168735   2.261   4.967   1.628  1.2057 -0.0072 -0.3129
15748TIP3    H268736   2.167   4.902   1.528  1.0805 -1.9015  1.0064
15749TIP3   OH268737   3.451   0.712   6.409 -0.5279  0.2326 -0.5937
15749TIP3    H168738   3.372   0.736   6.361 -0.3340 -0.0862 -1.0712
15749TIP3    H268739   3.419   0.674   6.491 -0.8778 -0.8018 -1.2116
15750TIP3   OH268740   4.842   5.555   1.484 -0.0521  0.0256 -0.4879
15750TIP3    H168741   4.771   5.599   1.437  0.5338 -0.5851 -1.9814
15750TIP3    H268742   4.803   5.473   1.514 -0.4363  0.4247  0.1030
15751TIP3   OH268743   3.592   1.096  11.958 -0.0261 -0.2893  0.1586
15751TIP3    H168744   3.516   1.130  12.005 -1.4602 -1.3983 -1.3381
15751TIP3    H268745   3.613   1.013  12.002  0.4383  0.0880  0.6653
15752TIP3   OH268746   2.991   4.962  14.595  0.4787 -0.2510  0.3060
15752TIP3    H168747   3.032   5.035  14.642  0.1152  0.0983  0.0889
15752TIP3    H268748   2.926   5.004  14.539 -0.3112 -0.8148  0.7887
15753TIP3   OH268749   4.811   6.794   3.686  1.0243 -0.3194 -0.5241
15753TIP3    H168750   4.809   6.864   3.621 -1.1221  0.9911  0.8837
15753TIP3    H268751   4.727   6.749   3.676  0.1223  0.6653  2.0747
15754TIP3   OH268752   1.134   0.604   1.761  0.1445  0.4069  0.4239
15754TIP3    H168753   1.105   0.664   1.829 -2.1116  0.1955 -0.3138
15754TIP3    H268754   1.055   0.557   1.735  1.6053 -1.9148  0.0260
15755TIP3   OH268755   1.000   3.078   0.675 -0.6212  0.2424 -0.3372
15755TIP3    H168756   1.081   3.109   0.635 -0.9330  0.5446 -0.7389
15755TIP3    H268757   0.931   3.114   0.620 -1.0365  0.1768  0.1376
15756TIP3   OH268758   3.702   0.848   0.822 -0.5509 -0.2146 -0.2381
15756TIP3    H168759   3.678   0.936   0.794  1.6738 -0.5320 -3.4563
15756TIP3    H268760   3.768   0.861   0.890 -1.6664  0.5691  0.7210
15757TIP3   OH268761   2.025   2.580  11.435 -0.7593  0.0314 -0.4034
15757TIP3    H168762   2.113   2.600  11.402 -0.0451 -0.6897  1.0248
15757TIP3    H268763   1.990   2.665  11.463 -0.3861  0.2644 -0.6344
15758TIP3   OH268764   0.271   0.077   4.523 -0.1890 -0.1621  0.2037
15758TIP3    H168765   0.293   0.153   4.469 -0.9462 -0.2237 -0.1828
15758TIP3    H268766   0.202   0.031   4.475 -1.6471  0.3820  1.7321
15759TIP3   OH268767   6.141   5.052  15.041  0.6406  0.2631 -0.3636
15759TIP3    H168768   6.165   5.024  15.129  0.5154 -0.5110 -0.5693
15759TIP3    H268769   6.119   5.144  15.050 -2.6343 -0.5733  1.0674
15760TIP3   OH268770   1.188   5.383  13.027 -0.5715  0.0024  0.1056
15760TIP3    H168771   1.242   5.304  13.024 -0.4955  0.0160  0.8455
15760TIP3    H268772   1.134   5.379  12.949  1.6069  0.7843 -1.4791
15761TIP3   OH268773   6.548   4.602   3.593 -0.5648  0.0274  0.7853
15761TIP3    H168774   6.613   4.573   3.530 -0.8900 -0.3197  0.6070
15761TIP3    H268775   6.568   4.695   3.607 -0.5692  0.1379  0.0848
15762TIP3   OH268776   1.774   0.904   4.780  0.3759 -0.2827 -0.1406
15762TIP3    H168777   1.700   0.846   4.762  0.0783  0.1952 -0.4675
15762TIP3    H268778   1.741   0.967   4.844  0.1698  0.5825 -1.0757
15763TIP3   OH268779   0.611   1.041   2.910 -0.0967 -0.2129  0.2815
15763TIP3    H168780   0.540   1.064   2.850  1.0303  0.2173 -0.9137
15763TIP3    H268781   0.567   1.002   2.985 -1.5849 -0.1241 -0.5211
15764TIP3   OH268782   1.749   5.495  14.410  0.1332  0.3637 -0.1357
15764TIP3    H168783   1.772   5.493  14.503  0.3483 -0.0205 -0.1988
15764TIP3    H268784   1.680   5.430  14.401 -0.7675  1.2925 -0.0072
15765TIP3   OH268785   5.171   1.370  11.104  0.2127 -0.2365  0.2294
15765TIP3    H168786   5.167   1.275  11.106  0.9236 -0.2439  2.0290
15765TIP3    H268787   5.124   1.398  11.183  0.0274  0.9064 -0.2722
15766TIP3   OH268788   6.059   3.398   5.403  0.0794  0.4132  0.2045
15766TIP3    H168789   5.983   3.359   5.444  0.2706  0.8177  0.9542
15766TIP3    H268790   6.129   3.390   5.469  0.5096  0.6361 -0.2205
15767TIP3   OH268791   4.556   1.840   3.127 -0.8196  0.5212 -0.3875
15767TIP3    H168792   4.561   1.921   3.179  2.1916 -0.0085  0.2460
15767TIP3    H268793   4.568   1.869   3.037  1.8923  0.6450 -0.0134
15768TIP3   OH268794   2.400   2.968  12.078  0.3884  0.0242 -0.1916
15768TIP3    H168795   2.424   3.054  12.115  1.2254 -0.3596  0.1641
15768TIP3    H268796   2.463   2.954  12.008 -0.2042  0.0254 -0.7257
15769TIP3   OH268797   6.517   5.882   0.032  0.2546  0.0069  0.3007
15769TIP3    H168798   6.608   5.870   0.058  0.6146 -0.9469 -1.3390
15769TIP3    H268799   6.518   5.959  -0.024  0.0886 -0.1284  0.1122
15770TIP3   OH268800   5.820   2.360   5.357  0.7903 -0.0391  0.1404
15770TIP3    H168801   5.770   2.439   5.376  0.1698 -0.4113  0.0892
15770TIP3    H268802   5.778   2.292   5.410  0.3143 -0.6628 -1.0080
15771TIP3   OH268803   4.483   4.665  13.939 -0.0614 -0.1865  0.0727
15771TIP3    H168804   4.519   4.634  14.022 -1.5702 -0.2948  0.6905
15771TIP3    H268805   4.389   4.673  13.954 -0.1702  1.2635 -1.1584
15772TIP3   OH268806   0.776   0.311  14.464 -0.0757 -0.8552  0.1877
15772TIP3    H168807   0.779   0.216  14.479  2.7357 -1.1079 -1.5162
15772TIP3    H268808   0.826   0.323  14.383 -1.4128  1.9757 -0.2664
15773TIP3   OH268809   1.900   1.082  13.744  0.4334  0.3059  0.1280
15773TIP3    H168810   1.970   1.114  13.802  1.0937  0.7169 -0.8769
15773TIP3    H268811   1.942   1.076  13.658  0.0746 -2.3856  0.0953
15774TIP3   OH268812   5.999   4.236   0.779 -0.7083  0.3731 -0.2291
15774TIP3    H168813   6.064   4.305   0.795  0.4807 -0.6761 -0.4008
15774TIP3    H268814   6.014   4.210   0.687 -0.5124 -0.7213  0.0950
15775TIP3   OH268815   2.691   1.536  11.953  0.4141 -0.0237 -0.2525
15775TIP3    H168816   2.630   1.543  11.880  0.2219 -1.0845 -0.2044
15775TIP3    H268817   2.670   1.610  12.010 -1.6649 -1.0773  0.3894
15776TIP3   OH268818   3.231   0.607   5.587 -0.5048  0.4451 -0.3163
15776TIP3    H168819   3.150   0.623   5.538 -1.0168 -0.2584  0.2807
15776TIP3    H268820   3.224   0.516   5.615 -0.4860  1.0024  1.5371
15777TIP3   OH268821   2.437   6.357  14.403  0.0850  0.3794 -0.2324
15777TIP3    H168822   2.481   6.307  14.334  0.4031  1.5016 -0.8618
15777TIP3    H268823   2.344   6.352  14.380 -0.2491 -2.5104  1.4362
15778TIP3   OH268824   1.183   4.225   3.505 -0.0662  0.1702  0.0767
15778TIP3    H168825   1.230   4.144   3.524 -1.7611 -0.3974  1.9150
15778TIP3    H268826   1.138   4.208   3.422  0.3524 -0.4137 -0.0332
15779TIP3   OH268827   3.753   5.661   4.068  0.1499 -0.4804  0.0180
15779TIP3    H168828   3.821   5.718   4.033 -2.0530  1.4450 -1.2782
15779TIP3    H268829   3.730   5.701   4.152 -1.4069  0.6217 -0.8994
15780TIP3   OH268830   0.377   5.162  12.461 -0.2444  0.1061  0.3999
15780TIP3    H168831   0.290   5.123  12.462  1.3330 -3.6635  1.6139
15780TIP3    H268832   0.370   5.240  12.517 -2.6301 -0.5626  1.0788
15781TIP3   OH268833   1.777   2.667   4.283 -0.3590  0.1400 -0.3030
15781TIP3    H168834   1.735   2.670   4.197 -0.7837 -1.2685 -0.1466
15781TIP3    H268835   1.735   2.739   4.331 -1.6052 -0.3605 -0.6116
15782TIP3   OH268836   4.698   5.963  11.265  0.0914 -0.5002 -0.0156
15782TIP3    H168837   4.653   5.929  11.342  1.5309 -1.0133  0.6110
15782TIP3    H268838   4.695   5.891  11.202 -1.1927 -0.0380 -0.4916
15783TIP3   OH268839   6.458   6.510  10.754  0.3401  0.2207  0.1707
15783TIP3    H168840   6.363   6.522  10.766  0.5510  2.1917  0.0475
15783TIP3    H268841   6.466   6.438  10.692 -1.0213 -1.9996  2.4879
15784TIP3   OH268842   6.092   5.241   1.938 -1.1100 -0.2585  0.4599
15784TIP3    H168843   6.048   5.325   1.943 -1.6577 -0.5474  0.4439
15784TIP3    H268844   6.038   5.189   1.878 -0.8938 -0.6952  0.6445
15785TIP3   OH268845   3.368   5.014  16.272 -0.3544  0.4975  0.5192
15785TIP3    H168846   3.309   5.084  16.301 -1.5979 -0.3547  0.0764
15785TIP3    H268847   3.335   4.935  16.315 -0.6906 -0.3201 -1.1780
15786TIP3   OH268848   2.430   5.885   0.489 -0.3632 -0.6145  0.5811
15786TIP3    H168849   2.430   5.905   0.583 -2.6659 -0.1546  0.5161
15786TIP3    H268850   2.494   5.946   0.452 -1.9175  1.6012  1.4195
15787TIP3   OH268851   1.005   3.156  13.519  0.6228  0.4616 -0.3499
15787TIP3    H168852   0.945   3.223  13.487  1.2147  1.1053 -0.0985
15787TIP3    H268853   1.092   3.194  13.510  0.8786  0.1950  0.9027
15788TIP3   OH268854   0.051   0.906   5.413 -0.0151 -0.1862  0.1058
15788TIP3    H168855   0.098   0.864   5.485 -0.5746 -1.8075 -0.4479
15788TIP3    H268856   0.031   0.834   5.353 -2.2413  0.6545 -0.1872
15789TIP3   OH268857   5.649   6.754   3.043 -0.4659 -0.1539  0.5547
15789TIP3    H168858   5.614   6.797   3.121 -2.1660  1.1995 -0.8986
15789TIP3    H268859   5.744   6.768   3.049 -0.7285  1.4206  1.5234
15790TIP3   OH268860   3.425   5.447   5.535  0.0225 -0.1095 -0.1534
15790TIP3    H168861   3.409   5.352   5.542  2.1038 -0.4175  0.9484
15790TIP3    H268862   3.473   5.457   5.453 -1.3359  0.1622 -0.9180
15791TIP3   OH268863   1.777   5.541  12.455 -0.8167  0.1404  0.5610
15791TIP3    H168864   1.708   5.599  12.423  0.6495  0.7163 -1.6069
15791TIP3    H268865   1.851   5.556  12.396  0.8671 -1.1404  2.2977
15792TIP3   OH268866   0.769   3.006   2.959  0.7614 -0.0337 -0.1531
15792TIP3    H168867   0.852   3.027   3.000 -0.2370  1.7990  0.9960
15792TIP3    H268868   0.707   3.000   3.031 -0.7649  2.0148 -1.2153
15793TIP3   OH268869   2.103   6.778   4.621 -0.5653 -0.2573 -0.0491
15793TIP3    H168870   2.045   6.852   4.640 -0.1645  0.2650 -0.8472
15793TIP3    H268871   2.172   6.815   4.566 -1.3811 -1.6074 -2.0303
15794TIP3   OH268872   2.211   3.931  11.966  1.1269 -0.4250  1.0129
15794TIP3    H168873   2.183   4.007  12.017 -2.1710 -0.7656 -0.1851
15794TIP3    H268874   2.168   3.857  12.009  1.4315 -1.1628  0.0472
15795TIP3   OH268875   4.815   5.419   4.644  0.5483  0.2485  0.2440
15795TIP3    H168876   4.772   5.460   4.569  0.9117  1.4828  0.6956
15795TIP3    H268877   4.745   5.370   4.687  0.3083 -0.3483 -0.8177
15796TIP3   OH268878   5.678   1.464  13.460 -0.1926 -0.0327 -0.0532
15796TIP3    H168879   5.630   1.382  13.449 -0.0440 -0.0901 -0.2866
15796TIP3    H268880   5.611   1.532  13.456 -0.0300  0.0273 -2.5237
15797TIP3   OH268881   4.845   3.560   5.579 -0.7495  0.7104 -0.7928
15797TIP3    H168882   4.880   3.507   5.650  2.4561  3.8307  0.0804
15797TIP3    H268883   4.839   3.500   5.505  0.6548 -1.3953  0.7583
15798TIP3   OH268884   4.864   0.024   5.644  0.5882 -0.2986 -0.1175
15798TIP3    H168885   4.882  -0.029   5.721  3.9038  0.3277 -0.3617
15798TIP3    H268886   4.770   0.040   5.646  0.3816 -1.6754  2.8793
15799TIP3   OH268887   6.757   1.198  17.238 -0.2996 -0.8251  0.3961
15799TIP3    H168888   6.745   1.266  17.173 -0.5201  0.5282  1.8371
15799TIP3    H268889   6.809   1.131  17.194 -1.2187 -0.3476 -1.4436
15800TIP3   OH268890   6.139   4.723  13.427 -0.0672  0.0427  0.3038
15800TIP3    H168891   6.228   4.707  13.459 -0.2627 -0.2251  0.7113
15800TIP3    H268892   6.088   4.649  13.459 -0.0162 -0.8713 -1.6514
15801TIP3   OH268893   5.450   1.453   1.579  0.4158 -0.3571  0.3053
15801TIP3    H168894   5.364   1.456   1.620  1.0434 -1.4493  1.7526
15801TIP3    H268895   5.469   1.359   1.570  2.4667 -0.1729  2.2512
15802TIP3   OH268896   6.712   5.893  15.805 -0.0105 -0.0074  0.4958
15802TIP3    H168897   6.774   5.898  15.733 -1.7788 -1.0306 -1.1556
15802TIP3    H268898   6.716   5.802  15.835  0.3275  0.2808  1.3568
15803TIP3   OH268899   5.181   2.755   1.419 -0.7805  0.0966  0.4558
15803TIP3    H168900   5.196   2.668   1.381  1.0241  0.1861  0.9103
15803TIP3    H268901   5.131   2.738   1.498 -1.1744 -0.4536  0.0900
15804TIP3   OH268902   6.601   2.189  10.836  0.1173 -0.3354 -0.0017
15804TIP3    H168903   6.686   2.228  10.818 -0.3865  0.6485 -0.2933
15804TIP3    H268904   6.617   2.095  10.836  1.2610 -0.1449  0.2499
15805TIP3   OH268905   3.959   2.119   5.637 -0.1999 -0.6683  0.5877
15805TIP3    H168906   4.019   2.063   5.686  1.2912  1.6685  1.5391
15805TIP3    H268907   3.872   2.096   5.670  0.4120 -2.0978  1.2621
15806TIP3   OH268908   0.143   6.031   5.373 -0.5345 -0.0505 -0.1696
15806TIP3    H168909   0.182   6.113   5.402  1.0417 -0.9312  0.2498
15806TIP3    H268910   0.218   5.975   5.351 -1.5341 -1.9687  1.1961
15807TIP3   OH268911   1.403   4.654  13.150 -0.0659 -0.6511  0.1487
15807TIP3    H168912   1.451   4.573  13.164 -0.0705 -1.3130 -3.1846
15807TIP3    H268913   1.467   4.715  13.113 -0.3816  0.4163  1.3309
15808TIP3   OH268914   0.224   1.121  16.792  1.1969 -0.4394 -0.4375
15808TIP3    H168915   0.239   1.129  16.698 -0.4992 -1.9113 -0.8505
15808TIP3    H268916   0.158   1.188  16.813  0.7146 -0.8912 -0.5089
15809TIP3   OH268917   1.890   0.797  14.193  0.5461  0.3832  0.6841
15809TIP3    H168918   1.971   0.758  14.160 -0.0748 -0.5448  0.2406
15809TIP3    H268919   1.824   0.776  14.126  0.1351  1.9156  0.6023
15810TIP3   OH268920   3.097   4.091   0.885  0.1887 -0.0458  0.2572
15810TIP3    H168921   3.003   4.103   0.870  0.0488 -0.2401  0.9785
15810TIP3    H268922   3.103   4.007   0.930  0.7357 -0.1703 -0.0487
15811TIP3   OH268923   5.508   4.416   4.718 -0.3729 -0.0323 -0.3054
15811TIP3    H168924   5.573   4.482   4.694 -0.4823  0.6574  1.2019
15811TIP3    H268925   5.450   4.461   4.780 -2.2730 -0.6525 -1.6065
15812TIP3   OH268926   5.760   3.543  16.028 -0.3072  0.1870 -0.3264
15812TIP3    H168927   5.756   3.582  16.115  1.7394 -2.7338  1.1777
15812TIP3    H268928   5.845   3.572  15.993  0.2570 -1.1133 -0.0644
15813TIP3   OH268929   5.261   4.045   0.776  0.2797 -0.1600 -0.1005
15813TIP3    H168930   5.336   4.105   0.782  0.8264 -0.7746 -0.7610
15813TIP3    H268931   5.266   3.995   0.858  0.0343  0.4379  0.2884
15814TIP3   OH268932   0.761   1.756  16.510 -0.1411  0.5914 -0.2820
15814TIP3    H168933   0.843   1.710  16.492 -0.7780 -0.8387  0.4527
15814TIP3    H268934   0.714   1.754  16.427 -0.3395 -0.4446 -0.1509
15815TIP3   OH268935   3.613   1.123   1.850 -0.0395  0.0626  0.0344
15815TIP3    H168936   3.550   1.165   1.909 -0.2722 -0.4996  0.1830
15815TIP3    H268937   3.691   1.179   1.855 -0.2602  0.3380  0.4274
15816TIP3   OH268938   1.179   2.379  15.224 -0.1284 -0.4941 -0.2921
15816TIP3    H168939   1.212   2.421  15.144 -0.8917  0.2178 -0.2427
15816TIP3    H268940   1.084   2.388  15.219 -0.1929 -0.5608  0.6277
15817TIP3   OH268941   1.498   0.850  17.260  0.3329 -0.0554  0.7213
15817TIP3    H168942   1.416   0.882  17.298 -0.7184 -0.7973 -0.8404
15817TIP3    H268943   1.528   0.923  17.205 -0.0174 -0.2828  0.2186
15818TIP3   OH268944   1.712   4.124   2.664  0.5434  0.2554  0.3811
15818TIP3    H168945   1.746   4.155   2.748 -0.3943 -1.3155  1.3565
15818TIP3    H268946   1.640   4.183   2.643  0.6200  0.4992  0.8058
15819TIP3   OH268947   3.094   6.160  13.064  0.0597  0.6339 -0.5701
15819TIP3    H168948   3.135   6.246  13.078 -1.2384  1.0163  1.0493
15819TIP3    H268949   3.001   6.175  13.081 -0.3366 -0.8734 -1.3344
15820TIP3   OH268950   0.248   0.371  11.169  0.5590 -0.4393  0.1755
15820TIP3    H168951   0.299   0.400  11.245  0.5991 -0.3387  0.1099
15820TIP3    H268952   0.245   0.276  11.178 -0.0039 -0.3824  0.6684
15821TIP3   OH268953   1.967   1.725   3.065 -0.0199 -0.2506 -0.0343
15821TIP3    H168954   1.992   1.756   3.152  0.2269 -0.3110 -0.0825
15821TIP3    H268955   2.040   1.752   3.009  0.4256 -1.3425  0.0085
15822TIP3   OH268956   6.115   6.628  17.068  0.4621  0.1639 -0.8179
15822TIP3    H168957   6.138   6.714  17.101 -2.8740  1.3199 -1.3693
15822TIP3    H268958   6.161   6.567  17.126  0.9435  2.2489  1.0518
15823TIP3   OH268959   5.324   4.175  13.369  0.1549  0.1778 -0.0703
15823TIP3    H168960   5.287   4.258  13.337 -0.6522 -0.0300  0.3030
15823TIP3    H268961   5.418   4.185  13.357  0.1050  1.3421  0.4023
15824TIP3   OH268962   4.946   6.773  11.376  0.0577 -0.2311  0.1673
15824TIP3    H168963   4.874   6.734  11.327  0.4866  0.2013 -0.8247
15824TIP3    H268964   4.913   6.858  11.403  0.2693  0.0569 -0.4745
15825TIP3   OH268965   6.376   5.185   4.608  0.1710  0.3310 -0.5689
15825TIP3    H168966   6.300   5.135   4.576  0.0973 -1.3566  2.0887
15825TIP3    H268967   6.451   5.132   4.581  0.2142  0.0077  0.1942
15826TIP3   OH268968   2.503   1.267  16.508 -0.2574  0.5509 -0.3710
15826TIP3    H168969   2.423   1.269  16.560 -0.6825  1.6639 -1.0473
15826TIP3    H268970   2.567   1.315  16.560  0.7050 -2.4530  1.3043
15827TIP3   OH268971   6.046   2.504  14.168 -0.4653  0.5498  0.5158
15827TIP3    H168972   5.972   2.462  14.125  0.2631 -1.6947  1.3654
15827TIP3    H268973   6.123   2.469  14.122  0.2172 -0.2098  2.2120
15828TIP3   OH268974   6.071   3.436  14.539 -0.1482 -0.0384  0.0076
15828TIP3    H168975   6.089   3.526  14.510  0.7151 -0.0149  0.5863
15828TIP3    H268976   6.157   3.393  14.537 -0.3999 -0.5755  0.6607
15829TIP3   OH268977   2.621   0.848   2.859  0.4133 -0.0702 -0.0418
15829TIP3    H168978   2.668   0.812   2.935 -0.8059 -1.4258  0.0837
15829TIP3    H268979   2.655   0.799   2.785 -0.0137 -0.2813 -0.0947
15830TIP3   OH268980   5.980   4.456  12.885  0.1005  0.2502  0.3629
15830TIP3    H168981   5.905   4.498  12.926  0.7365  2.2761 -0.4819
15830TIP3    H268982   6.049   4.460  12.952 -0.1374 -0.4476  0.6629
15831TIP3   OH268983   2.572   2.415  10.928  0.5893 -0.2243 -0.2287
15831TIP3    H168984   2.632   2.486  10.904  0.9945 -0.2357  0.7593
15831TIP3    H268985   2.548   2.375  10.844 -0.6447  1.8922 -0.9130
15832TIP3   OH268986   1.496   6.658  15.394  0.7384 -0.3024 -0.1663
15832TIP3    H168987   1.503   6.562  15.395 -1.5252 -0.4689  1.0769
15832TIP3    H268988   1.561   6.687  15.458  0.7046 -1.0551  0.2172
15833TIP3   OH268989   3.519   5.860   4.751  0.1280 -0.2150 -0.2050
15833TIP3    H168990   3.493   5.946   4.783 -0.6208 -0.3794 -0.3736
15833TIP3    H268991   3.491   5.799   4.819  0.9089 -0.3009  0.0449
15834TIP3   OH268992   1.196   1.548  17.286 -0.3972 -0.1317  0.2015
15834TIP3    H168993   1.155   1.616  17.340  1.3617 -0.6773  2.2943
15834TIP3    H268994   1.253   1.597  17.225 -1.8664  0.4441 -0.7404
15835TIP3   OH268995   5.804   5.495   1.641 -0.5751 -0.4251  0.1836
15835TIP3    H168996   5.717   5.495   1.601 -0.3346  0.3891 -0.3436
15835TIP3    H268997   5.859   5.448   1.579 -0.2889  0.4882 -0.2632
15836TIP3   OH268998   4.906   2.983   2.067 -0.3076 -0.3235  0.4727
15836TIP3    H168999   4.981   2.927   2.086  0.0805  0.6053  1.7550
15836TIP3    H269000   4.853   2.982   2.147 -1.2791 -0.3761 -0.1597
15837TIP3   OH269001   0.454   5.747   4.982 -0.5922  0.3457  0.4162
15837TIP3    H169002   0.440   5.842   4.980 -2.4276  0.0815 -0.4536
15837TIP3    H269003   0.468   5.723   4.890  0.5924 -0.1347  0.7113
15838TIP3   OH269004   6.797   4.066  13.167 -0.4920  0.0699 -0.0021
15838TIP3    H169005   6.824   3.988  13.216 -0.6518  0.1605  0.2325
15838TIP3    H269006   6.742   4.115  13.229 -0.9021  0.0601 -0.3574
15839TIP3   OH269007   5.230   4.327  11.287  0.1707  0.5711  0.0771
15839TIP3    H169008   5.262   4.361  11.371  0.9599  1.4626 -0.5721
15839TIP3    H269009   5.275   4.380  11.221  1.8334 -2.0443 -0.9897
15840TIP3   OH269010   2.796   0.625  15.645 -0.0223 -0.3680  0.2807
15840TIP3    H169011   2.791   0.671  15.562 -0.5800  0.9102  0.9984
15840TIP3    H269012   2.739   0.549  15.634 -0.8489  0.3099 -0.1939
15841TIP3   OH269013   2.061   2.116  14.643 -0.4355 -0.2438 -0.3418
15841TIP3    H169014   2.096   2.062  14.572 -0.7108  0.7042 -1.2164
15841TIP3    H269015   2.134   2.125  14.705  0.1143 -0.2749 -0.9778
15842TIP3   OH269016   4.477   1.405   1.865 -0.1474 -0.0743  0.0316
15842TIP3    H169017   4.416   1.383   1.794  1.0075 -2.0360 -0.4009
15842TIP3    H269018   4.445   1.488   1.899 -0.1980  1.3629 -3.3690
15843TIP3   OH269019   6.793   0.584   4.123  0.4394  0.3766 -0.0297
15843TIP3    H169020   6.712   0.568   4.171  0.9243  1.0148  1.0194
15843TIP3    H269021   6.766   0.635   4.046 -0.2747 -0.2456 -0.2034
15844TIP3   OH269022   4.297   0.900  16.580  0.0974 -0.1517  0.3423
15844TIP3    H169023   4.315   0.829  16.518 -0.0417  0.1277 -0.0154
15844TIP3    H269024   4.252   0.967  16.529 -2.2690 -0.9732  1.2887
15845TIP3   OH269025   1.640   4.220  12.627 -0.2653 -0.4933 -0.1121
15845TIP3    H169026   1.633   4.190  12.718 -0.8791  0.1207  0.0510
15845TIP3    H269027   1.652   4.141  12.576 -0.5541 -0.8964  0.4408
15846TIP3   OH269028   6.628   5.515   5.653  0.1063 -0.5248 -0.3157
15846TIP3    H169029   6.557   5.561   5.610  0.6005 -0.4442 -1.0529
15846TIP3    H269030   6.590   5.432   5.682 -0.7011  0.2140  0.7372
15847TIP3   OH269031   4.340   3.703  13.713 -0.1393  0.5284 -0.0510
15847TIP3    H169032   4.319   3.627  13.768 -1.5490  0.8429 -0.1292
15847TIP3    H269033   4.425   3.682  13.674  0.4830 -0.0633  1.5901
15848TIP3   OH269034   4.878   1.169   5.895  0.1772 -0.4269  0.2581
15848TIP3    H169035   4.898   1.077   5.883  3.7022  0.6392 -3.1104
15848TIP3    H269036   4.943   1.200   5.959  0.2933  0.1275 -0.1228
15849TIP3   OH269037   2.829   6.525   3.257  0.2516 -0.3111 -0.3910
15849TIP3    H169038   2.768   6.498   3.189 -1.3507  0.4767  0.7082
15849TIP3    H269039   2.785   6.503   3.339  1.3203  0.5406  0.4344
15850TIP3   OH269040   5.758   2.628   2.041  0.0173 -0.0446  0.2728
15850TIP3    H169041   5.744   2.721   2.024 -1.2954  0.2321  2.6110
15850TIP3    H269042   5.717   2.584   1.967  0.5754  1.2391 -0.8151
15851TIP3   OH269043   4.710   1.511   5.757 -0.4888 -0.1202 -0.0676
15851TIP3    H169044   4.750   1.489   5.841 -3.2222 -2.3761  0.7280
15851TIP3    H269045   4.747   1.448   5.695  0.0942  0.3240 -0.1796
15852TIP3   OH269046   4.488   5.837  15.747  0.1821 -0.9765 -0.2814
15852TIP3    H169047   4.491   5.928  15.779  1.1188 -0.9863 -0.3307
15852TIP3    H269048   4.492   5.784  15.827 -3.5044 -0.9741 -0.0299
15853TIP3   OH269049   0.690   5.647   1.694  0.1025 -0.8393  0.2121
15853TIP3    H169050   0.611   5.597   1.717  0.0007 -1.0300 -0.5397
15853TIP3    H269051   0.698   5.637   1.599  0.9092 -0.6349  0.2549
15854TIP3   OH269052   0.045   6.652   1.085 -0.3921 -0.4308 -0.5077
15854TIP3    H169053  -0.013   6.727   1.089  0.7436  0.3589  1.6707
15854TIP3    H269054   0.077   6.651   0.994 -1.1053  1.1621 -0.7805
15855TIP3   OH269055   3.993   3.517   5.320 -0.5515  0.0056 -0.1458
15855TIP3    H169056   4.062   3.574   5.288  0.0892 -0.9431 -0.4652
15855TIP3    H269057   3.922   3.576   5.344 -0.5121  0.8287 -2.0079
15856TIP3   OH269058   5.080   0.754   4.051 -0.2304 -0.3177 -0.5695
15856TIP3    H169059   5.092   0.684   4.114 -0.2142  0.4336  0.2759
15856TIP3    H269060   5.104   0.715   3.967  3.1292 -0.3768  0.3308
15857TIP3   OH269061   4.332   6.814   3.978 -0.1257 -0.3876  0.1923
15857TIP3    H169062   4.282   6.869   3.918 -0.0329 -0.1467  0.3340
15857TIP3    H269063   4.361   6.874   4.047 -1.5633 -0.9331  1.3145
15858TIP3   OH269064   0.171   4.201   1.578 -0.4725  0.3988 -0.2517
15858TIP3    H169065   0.265   4.202   1.559 -0.2764  0.4748  0.6799
15858TIP3    H269066   0.129   4.222   1.494  0.4106  2.1334 -0.2826
15859TIP3   OH269067   1.436   0.961  16.003 -0.3531  0.1369  0.2042
15859TIP3    H169068   1.434   0.885  16.060  1.4150  1.5710  2.2256
15859TIP3    H269069   1.526   0.995  16.010 -0.1813  0.5591 -3.1463
15860TIP3   OH269070   6.756   2.577  14.894 -0.0092  0.4051 -0.0579
15860TIP3    H169071   6.720   2.611  14.976 -0.4841  2.9958 -1.2853
15860TIP3    H269072   6.717   2.632  14.826  2.6182  0.2109 -1.8064
15861TIP3   OH269073   4.381   4.699   2.424  0.1403 -0.7935  0.6857
15861TIP3    H169074   4.312   4.755   2.460  0.1634 -0.2240 -0.1512
15861TIP3    H269075   4.433   4.674   2.500  1.7466  2.5139  0.7589
15862TIP3   OH269076   4.054   4.848  15.974  0.5062  0.7507 -0.2853
15862TIP3    H169077   3.972   4.802  15.953 -0.2542  2.5588 -1.4658
15862TIP3    H269078   4.025   4.928  16.019  1.7697  0.3118  1.3339
15863TIP3   OH269079   4.322   1.886   0.903 -0.0179 -0.2164  0.2160
15863TIP3    H169080   4.343   1.811   0.958  0.1498 -0.5968 -0.3560
15863TIP3    H269081   4.227   1.897   0.912 -0.5263 -2.3157 -1.9240
15864TIP3   OH269082   0.333   1.237  17.017 -0.4246  0.3229  0.1487
15864TIP3    H169083   0.341   1.176  16.944  0.4499  0.8077 -0.1808
15864TIP3    H269084   0.260   1.294  16.994 -1.8241 -1.1578  0.8808
15865TIP3   OH269085   5.336   0.864   5.886 -0.1283 -0.2105 -0.4461
15865TIP3    H169086   5.368   0.952   5.903  1.0442 -0.6660 -0.2926
15865TIP3    H269087   5.414   0.809   5.885 -0.9437 -1.4163  0.5449
15866TIP3   OH269088   2.822   6.506   5.863  0.2402 -0.4295 -0.1772
15866TIP3    H169089   2.762   6.484   5.934 -0.2362 -0.0165 -0.4461
15866TIP3    H269090   2.874   6.578   5.897  0.0688 -0.2870 -0.2157
15867TIP3   OH269091   2.618   0.717  12.511 -0.0420 -0.1422  0.0791
15867TIP3    H169092   2.711   0.697  12.496  0.7024 -0.2347  4.2576
15867TIP3    H269093   2.576   0.631  12.514 -0.3127 -0.1050 -1.6684
15868TIP3   OH269094   1.287   3.411   3.181  0.2178  0.1301  0.5625
15868TIP3    H169095   1.236   3.441   3.105  1.0588 -0.1042 -0.0895
15868TIP3    H269096   1.302   3.491   3.232  1.3356  0.6130 -0.5129
15869TIP3   OH269097   3.331   2.292   2.820  0.0370 -0.3470  0.3282
15869TIP3    H169098   3.273   2.218   2.839  1.5236 -1.6557 -0.1160
15869TIP3    H269099   3.418   2.253   2.815  0.6105  1.1222 -1.8341
15870TIP3   OH269100   6.338   2.030   3.115 -0.0278 -0.3913  0.1298
15870TIP3    H169101   6.328   1.942   3.080  2.6230 -0.9300  0.6510
15870TIP3    H269102   6.432   2.043   3.122 -0.4008  2.0405  1.1909
15871TIP3   OH269103   5.401   0.337   0.207 -0.3239 -0.0818 -0.6728
15871TIP3    H169104   5.483   0.331   0.256 -0.4259  0.9128 -0.3603
15871TIP3    H269105   5.405   0.423   0.165 -0.5186 -0.6609 -1.9180
15872TIP3   OH269106   2.499   6.671   3.153  0.2848  0.2121 -0.0967
15872TIP3    H169107   2.521   6.578   3.157  1.0412  0.4003  0.0600
15872TIP3    H269108   2.556   6.707   3.085 -0.6539  0.3833 -0.8077
15873TIP3   OH269109   4.116   3.410   4.555 -0.1305  0.3735 -0.2331
15873TIP3    H169110   4.164   3.492   4.563 -1.7170  1.1680  1.3775
15873TIP3    H269111   4.053   3.411   4.627  0.9120 -3.0270  0.8323
15874TIP3   OH269112   2.341   3.265  16.336  0.6165 -0.2181 -0.0553
15874TIP3    H169113   2.391   3.325  16.391 -1.7208  1.4089  0.3961
15874TIP3    H269114   2.288   3.214  16.399  0.6215 -0.9043 -0.6015
15875TIP3   OH269115   2.235   0.750   4.528  0.1763  0.1086  0.1932
15875TIP3    H169116   2.315   0.773   4.575  0.3458 -0.6218  0.2670
15875TIP3    H269117   2.229   0.815   4.458  1.5736 -0.6537 -0.6495
15876TIP3   OH269118   0.052   1.426  11.376  0.0008  0.6557 -0.1106
15876TIP3    H169119   0.023   1.337  11.397 -0.7721  0.9649  0.1517
15876TIP3    H269120  -0.002   1.483  11.432  0.0483  1.3250 -0.7356
15877TIP3   OH269121   5.389   4.729  15.274 -0.7060  0.3950  0.3790
15877TIP3    H169122   5.474   4.696  15.244  0.9822  2.5737  2.5900
15877TIP3    H269123   5.355   4.779  15.200  0.1678 -0.0718 -0.3438
15878TIP3   OH269124   1.333   0.413  11.299 -0.0522  0.0649  0.4055
15878TIP3    H169125   1.388   0.344  11.336 -0.0294 -0.5718 -0.7841
15878TIP3    H269126   1.271   0.434  11.368  0.0613 -1.0254  0.8469
15879TIP3   OH269127   4.362   5.744   5.768 -0.5806  0.7298  0.1229
15879TIP3    H169128   4.378   5.660   5.724  1.2016  0.8957  0.4102
15879TIP3    H269129   4.295   5.724   5.833 -1.1907 -0.1475 -0.7467
15880TIP3   OH269130   1.922   3.830  14.963  0.4174 -0.2221 -0.7557
15880TIP3    H169131   2.000   3.790  14.924  0.9257  0.5973 -0.5942
15880TIP3    H269132   1.849   3.794  14.913  0.6920 -2.8845  0.6387
15881TIP3   OH269133   5.702   4.952  11.498  0.1761  0.1117 -0.0073
15881TIP3    H169134   5.787   4.992  11.480  0.0737 -0.2619 -1.3986
15881TIP3    H269135   5.670   4.997  11.576  0.6364  1.8601 -0.7990
15882TIP3   OH269136   0.816   3.390   2.960 -0.2368 -0.3328  0.0113
15882TIP3    H169137   0.748   3.323   2.971 -1.4577  0.7638 -0.7131
15882TIP3    H269138   0.898   3.340   2.956 -0.9113 -1.6114  1.6771
15883TIP3   OH269139   1.516   2.958  10.865 -0.2422  0.1752 -0.0586
15883TIP3    H169140   1.518   3.052  10.881  1.2835  0.4370 -1.6555
15883TIP3    H269141   1.604   2.928  10.887 -0.8957 -0.9738  0.9986
15884TIP3   OH269142   6.577   0.816   5.726 -0.2325 -0.3371  0.0545
15884TIP3    H169143   6.586   0.720   5.729  0.7413 -0.3724 -2.3929
15884TIP3    H269144   6.656   0.850   5.766 -0.2129 -0.5572  0.2016
15885TIP3   OH269145   5.657   1.788  12.729 -0.0817 -0.2474  0.4397
15885TIP3    H169146   5.710   1.791  12.809 -1.3138  0.9181  1.2362
15885TIP3    H269147   5.611   1.872  12.729 -1.3061 -0.9170 -0.6732
15886TIP3   OH269148   1.762   5.731  15.620  0.2681  0.1221  0.2786
15886TIP3    H169149   1.710   5.774  15.552  1.1291  1.0294  0.1733
15886TIP3    H269150   1.793   5.650  15.580  1.1322  0.8610 -0.5654
15887TIP3   OH269151   0.424   4.440   1.780  0.6346 -0.3207  0.2751
15887TIP3    H169152   0.458   4.484   1.858 -0.8338 -0.9647  1.3142
15887TIP3    H269153   0.406   4.510   1.718  0.2438  0.3489  1.1454
15888TIP3   OH269154   4.100   3.770   2.802  0.2193 -0.1991 -0.0325
15888TIP3    H169155   4.043   3.709   2.849 -0.5746  1.0546  0.6875
15888TIP3    H269156   4.042   3.843   2.778  1.7798  1.6967  1.8132
15889TIP3   OH269157   4.793   6.809  15.233 -0.0863  0.0076  0.0604
15889TIP3    H169158   4.734   6.829  15.306  0.7083 -1.8932  1.2492
15889TIP3    H269159   4.881   6.825  15.267  0.2183  0.8799 -1.0767
15890TIP3   OH269160   6.529   5.930   6.004  0.3023  0.4979 -0.0178
15890TIP3    H169161   6.605   5.889   5.964  0.5618  1.0605 -0.1122
15890TIP3    H269162   6.475   5.857   6.034  1.1768  0.0995  0.6054
15891TIP3   OH269163   5.045   2.091  14.316  0.0355 -0.2280  0.1280
15891TIP3    H169164   5.067   2.184  14.320 -1.6060  0.1653  0.1863
15891TIP3    H269165   4.983   2.077  14.387  1.5687 -1.7511  1.2037
15892TIP3   OH269166   1.018   3.874   5.164 -0.3237  0.0941  0.9306
15892TIP3    H169167   1.045   3.832   5.082  0.8043 -0.0448  1.3579
15892TIP3    H269168   0.998   3.964   5.139  0.9660  0.3146  0.6660
15893TIP3   OH269169   6.158   3.759   4.123 -0.0995  0.2375 -0.1004
15893TIP3    H169170   6.249   3.732   4.120  0.1286  1.0452 -0.5024
15893TIP3    H269171   6.110   3.689   4.078  0.2097 -0.6224  0.8960
15894TIP3   OH269172   1.871   6.366   3.655  0.1370 -0.5658  0.0780
15894TIP3    H169173   1.952   6.406   3.685  1.1525 -2.3373 -0.2604
15894TIP3    H269174   1.898   6.303   3.588 -1.5824 -0.6724 -0.5541
15895TIP3   OH269175   4.260   4.722  11.041 -0.2208 -0.1942  0.1003
15895TIP3    H169176   4.168   4.699  11.055  0.0911 -1.6682 -0.1481
15895TIP3    H269177   4.306   4.638  11.046  1.0517  0.4772 -0.2355
15896TIP3   OH269178   3.662   0.763  13.834  0.0736  0.2677 -0.0394
15896TIP3    H169179   3.661   0.805  13.921  0.4920 -0.4203  0.2968
15896TIP3    H269180   3.695   0.831  13.776 -0.0650  0.6898  0.3666
15897TIP3   OH269181   6.130   0.006   1.797  0.3533  0.0273  0.7834
15897TIP3    H169182   6.042   0.037   1.817  0.7603  1.3063  0.6375
15897TIP3    H269183   6.164  -0.027   1.880 -1.2255 -2.9469  0.2989
15898TIP3   OH269184   1.296   3.074  14.289 -0.2150 -0.0359  0.2497
15898TIP3    H169185   1.226   3.024  14.330  1.6022 -0.9824  2.2951
15898TIP3    H269186   1.320   3.022  14.212 -1.4812  0.1126 -0.2589
15899TIP3   OH269187   6.359   4.460  14.476  0.0958 -0.5802 -0.4066
15899TIP3    H169188   6.298   4.534  14.486  1.2236  0.3913 -0.5817
15899TIP3    H269189   6.409   4.481  14.397  0.4000 -1.5541 -0.4788
15900TIP3   OH269190   2.405   2.660   5.255 -0.3247  0.6967  0.0104
15900TIP3    H169191   2.332   2.703   5.299 -1.3028 -1.2072  0.2837
15900TIP3    H269192   2.366   2.584   5.212  1.6261 -0.8605  0.8909
15901TIP3   OH269193   3.598   4.109  12.136 -0.2079  0.0326  0.0692
15901TIP3    H169194   3.655   4.181  12.109 -1.8450  0.6533 -1.8381
15901TIP3    H269195   3.657   4.035  12.151  1.2822  1.2392  0.1889
15902TIP3   OH269196   2.196   1.418   0.546 -0.1855  0.3253  0.1411
15902TIP3    H169197   2.244   1.368   0.480  2.5244  2.4339  0.4139
15902TIP3    H269198   2.201   1.364   0.625 -0.7571 -0.7938 -0.5867
15903TIP3   OH269199   0.376   3.062   0.406 -0.5607 -0.8762  0.0534
15903TIP3    H169200   0.323   3.132   0.369 -0.0849 -0.9798 -0.8441
15903TIP3    H269201   0.458   3.105   0.432  0.0803 -1.2595 -1.3221
15904TIP3   OH269202   1.461   6.430   3.367  0.2086  0.2431  0.7719
15904TIP3    H169203   1.374   6.468   3.364 -0.0659 -0.4385  0.1119
15904TIP3    H269204   1.472   6.386   3.283  0.1818 -1.8859  1.8700
15905TIP3   OH269205   6.439   1.059  10.849  0.2136 -0.6758 -0.3247
15905TIP3    H169206   6.397   0.989  10.799  1.6154 -1.5210 -0.3340
15905TIP3    H269207   6.440   1.134  10.789 -0.6997 -0.8429 -0.5469
15906TIP3   OH269208   6.020   4.320   5.897 -0.0839 -0.4091  0.0979
15906TIP3    H169209   6.113   4.300   5.883 -0.6190 -1.0563 -2.8174
15906TIP3    H269210   6.014   4.415   5.890 -0.1537 -0.6241 -3.3435
15907TIP3   OH269211   4.179   3.676  17.110 -0.0058 -0.1016 -0.2638
15907TIP3    H169212   4.184   3.586  17.141 -1.8847  0.4597  1.8738
15907TIP3    H269213   4.086   3.690  17.091 -0.0067  1.8428  0.9798
15908TIP3   OH269214   0.805   3.769   2.221 -0.0937  0.4532 -0.0766
15908TIP3    H169215   0.892   3.741   2.250  0.3157  0.7944 -0.9456
15908TIP3    H269216   0.779   3.835   2.286  1.2202  1.9095 -0.9782
15909TIP3   OH269217   6.691   4.835   0.932 -0.3124  0.5071  0.6237
15909TIP3    H169218   6.666   4.880   0.851 -1.4166 -1.4857 -0.1635
15909TIP3    H269219   6.745   4.899   0.978  0.2177  1.7382 -1.6106
15910TIP3   OH269220   4.462   5.381   5.358 -0.3980 -0.1717 -0.1546
15910TIP3    H169221   4.376   5.345   5.376 -1.1273  1.9435  0.7426
15910TIP3    H269222   4.459   5.407   5.266 -1.4495  1.7923  0.4153
15911TIP3   OH269223   1.605   4.495   2.940 -0.7118  0.1223 -0.1878
15911TIP3    H169224   1.589   4.543   2.859  0.7865 -0.7507 -1.0371
15911TIP3    H269225   1.522   4.450   2.958 -0.9948  0.1352 -1.3822
15912TIP3   OH269226   5.293   1.742  14.696  0.7580  0.2154  0.3626
15912TIP3    H169227   5.283   1.804  14.624 -0.0389  2.8940  2.6481
15912TIP3    H269228   5.386   1.744  14.717  0.7076  0.8061  0.5459
15913TIP3   OH269229   3.594   1.387  12.168  0.1261  0.2291 -0.1265
15913TIP3    H169230   3.605   1.423  12.080  0.6056  3.0047  1.0079
15913TIP3    H269231   3.501   1.365  12.173  0.0047  0.4608 -1.1528
15914TIP3   OH269232   0.064   3.692  14.814 -0.7343  0.0675 -0.2569
15914TIP3    H169233   0.002   3.735  14.755 -1.2860  2.3445  1.8576
15914TIP3    H269234   0.027   3.605  14.829 -0.7085 -0.4688 -2.9939
15915TIP3   OH269235   2.950   5.198   0.247  0.1538  0.0237 -0.1847
15915TIP3    H169236   2.871   5.145   0.255  0.8344 -1.0567 -0.4612
15915TIP3    H269237   2.922   5.286   0.271 -0.6614 -0.7486  1.8687
15916TIP3   OH269238   0.627   0.234   4.034  0.1074  0.0828  0.0906
15916TIP3    H169239   0.693   0.195   3.977  0.9428 -0.1100  1.1651
15916TIP3    H269240   0.625   0.326   4.008  0.5094  0.0031 -0.2356
15917TIP3   OH269241   5.081   2.904  11.672 -0.1472 -0.1770  0.3163
15917TIP3    H169242   5.046   2.908  11.761 -0.4409  0.8756  0.1605
15917TIP3    H269243   5.016   2.950  11.618  0.8976  0.7606 -0.1644
15918TIP3   OH269244   5.193   3.363  11.835 -0.8851 -0.5026 -0.4323
15918TIP3    H169245   5.214   3.451  11.804 -0.9722  0.6020  2.5326
15918TIP3    H269246   5.098   3.355  11.820 -0.7471 -0.4085 -1.4079
15919TIP3   OH269247   0.356   5.421   4.280 -0.0301 -0.5718 -0.4064
15919TIP3    H169248   0.307   5.486   4.331 -2.7993 -1.5896 -1.6489
15919TIP3    H269249   0.382   5.468   4.201  0.7339 -0.1155  0.1097
15920TIP3   OH269250   4.631   4.276  11.328  0.2345 -0.8119  0.1006
15920TIP3    H169251   4.654   4.204  11.269  1.5996 -1.4322  1.3768
15920TIP3    H269252   4.640   4.239  11.416 -0.4776  0.4950  0.7265
15921TIP3   OH269253   6.066   3.726   6.093  0.5406 -0.1924  0.1432
15921TIP3    H169254   6.096   3.808   6.132  1.9190 -0.7706  0.3079
15921TIP3    H269255   5.971   3.735   6.090  0.6587  1.3263  0.3545
15922TIP3   OH269256   3.570   3.669   1.704  0.2977  0.1073  0.0329
15922TIP3    H169257   3.594   3.741   1.646 -0.0559  1.0816  1.0696
15922TIP3    H269258   3.474   3.668   1.704  0.2685 -2.2295 -2.2176
15923TIP3   OH269259   3.005   4.672   3.441  0.1046 -0.1543 -0.2683
15923TIP3    H169260   2.921   4.630   3.421 -0.3606  0.0835  1.0831
15923TIP3    H269261   3.024   4.644   3.531  0.3070  1.6758  0.2866
15924TIP3   OH269262   0.951   4.414  14.966 -0.0045 -0.2250 -0.7416
15924TIP3    H169263   1.034   4.452  14.938  0.3034 -1.3846 -1.4221
15924TIP3    H269264   0.949   4.430  15.061  0.2183  1.2582 -0.9650
15925TIP3   OH269265   1.137   0.694   0.627  0.4536  0.1084  0.4261
15925TIP3    H169266   1.061   0.734   0.586  1.0274  2.0359  1.2112
15925TIP3    H269267   1.138   0.604   0.593 -1.2948  0.5119 -0.7389
15926TIP3   OH269268   6.398   4.440   5.570  0.1822 -0.6416  0.1597
15926TIP3    H169269   6.444   4.380   5.511 -0.6632  0.2084 -1.4192
15926TIP3    H269270   6.454   4.518   5.573 -1.1329  0.4331 -1.8409
15927TIP3   OH269271   0.289   2.305  12.190  0.6442 -0.4836  0.0863
15927TIP3    H169272   0.380   2.324  12.171  1.3510 -1.5532  2.2692
15927TIP3    H269273   0.261   2.246  12.120  1.7885 -0.6369 -0.2372
15928TIP3   OH269274   4.526   1.226   4.548 -0.1462  0.0370  0.1918
15928TIP3    H169275   4.573   1.148   4.517  0.5176  0.4606  0.1278
15928TIP3    H269276   4.456   1.238   4.483 -1.3563 -1.5254  1.1488
15929TIP3   OH269277   1.629   0.856   3.600  0.1858 -0.5068  0.1243
15929TIP3    H169278   1.636   0.775   3.550  1.7006 -0.4946  0.3147
15929TIP3    H269279   1.535   0.864   3.619 -0.0322 -1.9702 -0.2810
15930TIP3   OH269280   5.284   5.412   2.971 -0.7465 -0.1973 -0.2473
15930TIP3    H169281   5.332   5.455   2.900  1.9672 -1.0958  0.9896
15930TIP3    H269282   5.219   5.477   2.999 -0.0841  1.1484 -1.8007
15931TIP3   OH269283   4.665   2.707   2.863 -0.5783 -0.3391  0.6986
15931TIP3    H169284   4.738   2.661   2.903 -1.8235 -1.0551  2.1871
15931TIP3    H269285   4.591   2.692   2.922 -1.4134  2.2105  0.3684
15932TIP3   OH269286   1.838   4.339  14.786  0.1948 -0.3296  0.2257
15932TIP3    H169287   1.894   4.277  14.833 -1.2991 -2.2071 -0.4080
15932TIP3    H269288   1.793   4.388  14.856  1.1247 -0.1937  0.7334
15933TIP3   OH269289   3.268   4.667   2.084 -0.2427 -0.0889  0.4621
15933TIP3    H169290   3.327   4.735   2.052 -2.5846  1.7652 -0.1074
15933TIP3    H269291   3.301   4.586   2.045  1.5274  0.9836 -0.3314
15934TIP3   OH269292   0.471   2.443   2.272  0.3926 -0.2423 -0.7170
15934TIP3    H169293   0.426   2.476   2.350 -0.3292 -2.2403 -0.2654
15934TIP3    H269294   0.501   2.522   2.227 -2.5629  1.1076 -0.4300
15935TIP3   OH269295   5.140   2.400  14.401  0.1743 -0.3708  0.0349
15935TIP3    H169296   5.070   2.461  14.379  0.2992 -0.0943  0.4011
15935TIP3    H269297   5.104   2.345  14.470  0.6398  0.3801  0.8794
15936TIP3   OH269298   3.395   1.734  15.704  0.7910 -0.5325 -0.0510
15936TIP3    H169299   3.411   1.821  15.740 -0.9281 -0.4164  0.4828
15936TIP3    H269300   3.325   1.747  15.640 -0.5142 -1.7477  1.0995
15937TIP3   OH269301   0.630   6.077   5.319 -0.0978 -0.0104 -0.2295
15937TIP3    H169302   0.669   6.025   5.390 -0.3046  0.6718  0.3931
15937TIP3    H269303   0.539   6.047   5.315  0.7095 -2.3246 -2.3634
15938TIP3   OH269304   5.933   0.935  13.725  0.6212  0.2152 -0.0800
15938TIP3    H169305   6.011   0.893  13.689 -0.0054  0.0082 -1.2097
15938TIP3    H269306   5.891   0.866  13.776  0.7529  0.0947 -0.1338
15939TIP3   OH269307   5.373   2.468  15.926  0.1672  0.5494 -0.2034
15939TIP3    H169308   5.287   2.471  15.884  0.0850  1.1813  0.0173
15939TIP3    H269309   5.382   2.377  15.956 -0.4876  0.5295 -0.0731
15940TIP3   OH269310   5.319   1.201   5.140 -0.5175  0.0011  0.1670
15940TIP3    H169311   5.286   1.227   5.054 -0.5409  1.0782  0.5037
15940TIP3    H269312   5.351   1.112   5.126 -1.7949 -0.3552 -0.6251
15941TIP3   OH269313   2.467   3.939  16.115 -0.2611  0.0056  0.2084
15941TIP3    H169314   2.527   3.990  16.169  0.7962 -0.6807 -0.2968
15941TIP3    H269315   2.501   3.850  16.119 -1.4585 -0.4635  0.1973
15942TIP3   OH269316   1.236   2.426  16.030 -0.3724  0.1292  0.5292
15942TIP3    H169317   1.298   2.466  16.091 -0.0146  0.6802 -0.2001
15942TIP3    H269318   1.150   2.453  16.061 -0.2907 -0.9761  1.7958
15943TIP3   OH269319   5.407   2.206  14.593 -0.5998 -0.4838 -0.0020
15943TIP3    H169320   5.403   2.204  14.498  1.2900  1.8089 -0.1860
15943TIP3    H269321   5.496   2.180  14.614 -0.2628  1.3292  0.9809
15944TIP3   OH269322   1.623   0.197  15.147  0.9442  0.2152 -0.4315
15944TIP3    H169323   1.573   0.120  15.172  1.9669 -1.0546 -2.2062
15944TIP3    H269324   1.689   0.207  15.215  1.1334 -0.7817 -0.4706
15945TIP3   OH269325   3.960   5.628   4.691 -0.0020 -0.3024 -0.2865
15945TIP3    H169326   3.975   5.623   4.786  0.0122  1.5637 -0.1717
15945TIP3    H269327   3.866   5.637   4.682  0.1197  0.9860 -0.3651
15946TIP3   OH269328   6.097   1.401   2.464  0.1841  0.4642  0.0005
15946TIP3    H169329   6.125   1.338   2.530 -1.2368  0.9702  1.1022
15946TIP3    H269330   6.101   1.486   2.508 -0.0212  0.8996 -0.8075
15947TIP3   OH269331   2.717   2.906   4.332  0.7739 -0.7874  0.1368
15947TIP3    H169332   2.687   2.993   4.359  0.8988 -0.8877  0.5979
15947TIP3    H269333   2.700   2.850   4.407  1.9435 -0.8821  0.3454
15948TIP3   OH269334   0.931   5.129   3.845  0.0640 -0.9227  0.6477
15948TIP3    H169335   0.891   5.215   3.853 -0.5069 -0.9897 -1.0878
15948TIP3    H269336   0.870   5.069   3.889  0.7301 -0.3718  2.3174
15949TIP3   OH269337   3.522   4.591   3.168 -0.1200 -0.0034  0.4690
15949TIP3    H169338   3.608   4.608   3.129 -0.7442  1.4543 -0.2886
15949TIP3    H269339   3.491   4.676   3.197 -1.3452 -0.5099  0.6885
15950TIP3   OH269340   3.344   6.137   2.789 -0.3022 -0.6349  0.0289
15950TIP3    H169341   3.341   6.147   2.884  1.0903  0.1396  0.0088
15950TIP3    H269342   3.383   6.051   2.775 -3.3085 -2.1000  0.1431
15951TIP3   OH269343   4.708   6.161  12.869  0.0593  0.0445  0.1099
15951TIP3    H169344   4.634   6.101  12.872  0.2441 -0.1871  0.0426
15951TIP3    H269345   4.686   6.224  12.801 -0.9317  1.0987  1.3696
15952TIP3   OH269346   0.005   3.666   1.955 -0.3105  0.2268  0.3697
15952TIP3    H169347   0.012   3.625   2.042 -1.1257 -2.5361 -0.8069
15952TIP3    H269348  -0.084   3.647   1.927 -0.1794  1.4729 -0.9346
15953TIP3   OH269349   4.685   6.458  14.271 -0.0317 -0.2158 -0.1172
15953TIP3    H169350   4.762   6.489  14.223 -0.6296  1.1373 -0.2152
15953TIP3    H269351   4.715   6.379  14.316  0.5724 -1.4957 -2.6666
15954TIP3   OH269352   1.518   6.518  17.117  0.2160 -0.6712  0.2645
15954TIP3    H169353   1.569   6.437  17.109  1.9213  0.1608  2.1265
15954TIP3    H269354   1.564   6.568  17.185 -1.0632  1.6641 -0.5443
15955TIP3   OH269355   2.262   2.047   0.312  0.3493 -0.0696 -0.4471
15955TIP3    H169356   2.348   2.079   0.339  1.2678 -1.5639 -1.5214
15955TIP3    H269357   2.259   2.062   0.218 -1.0597  1.0481 -0.2513
15956TIP3   OH269358   4.337   6.309  17.030 -0.1438 -0.0164 -0.3818
15956TIP3    H169359   4.343   6.223  17.072  0.2044 -0.1889 -0.7878
15956TIP3    H269360   4.337   6.291  16.936  1.1972  0.5041 -0.4918
15957TIP3   OH269361   6.008   0.906   3.562 -0.0118  0.0947 -0.3985
15957TIP3    H169362   5.965   0.990   3.573 -0.3006 -0.1869  0.6432
15957TIP3    H269363   6.095   0.928   3.527 -0.9665  0.6595 -2.5238
15958TIP3   OH269364   3.047   3.098  11.351 -0.5178 -0.3695 -0.2066
15958TIP3    H169365   3.050   3.002  11.344 -1.3488 -0.2407 -3.0251
15958TIP3    H269366   3.127   3.127  11.307 -1.0845  0.2605 -0.8298
15959TIP3   OH269367   6.817   5.149  13.347  0.0498 -0.1359 -0.2159
15959TIP3    H169368   6.747   5.106  13.298  0.5234 -1.1255 -0.0465
15959TIP3    H269369   6.783   5.235  13.368 -1.0756 -0.5694 -0.2430
15960TIP3   OH269370   6.199   5.322   2.327  0.2409  0.1753  0.2372
15960TIP3    H169371   6.193   5.227   2.311  1.4651 -0.1146  1.3500
15960TIP3    H269372   6.129   5.340   2.390 -0.6136  0.1873 -0.7152
15961TIP3   OH269373   2.926   0.182   2.342  0.2516 -0.2715 -0.4597
15961TIP3    H169374   2.840   0.191   2.301  0.4318 -2.3674 -1.3530
15961TIP3    H269375   2.913   0.211   2.433 -2.1321 -3.3978  0.2589
15962TIP3   OH269376   4.591   1.313  15.715 -0.8479  0.0838 -0.4648
15962TIP3    H169377   4.548   1.248  15.770 -0.3404 -0.3232 -0.5446
15962TIP3    H269378   4.519   1.365  15.680 -1.3564 -1.2285 -1.4196
15963TIP3   OH269379   4.580   1.328  13.583 -0.0136  0.2135  0.1537
15963TIP3    H169380   4.579   1.285  13.497  0.9682  0.7607 -0.1464
15963TIP3    H269381   4.634   1.406  13.570  0.7659 -0.0810  1.4496
15964TIP3   OH269382   3.136   4.575   5.217 -0.3440 -0.5055  0.7743
15964TIP3    H169383   3.076   4.599   5.288 -0.7357 -0.0974  0.3139
15964TIP3    H269384   3.129   4.648   5.155  1.0258 -0.2086  0.9587
15965TIP3   OH269385   3.184   1.740  13.086  0.7390 -0.1007 -0.3408
15965TIP3    H169386   3.180   1.779  13.173  1.2015  1.1161 -0.8565
15965TIP3    H269387   3.192   1.814  13.026  2.4454 -1.0159 -1.3001
15966TIP3   OH269388   4.097   3.696   1.021 -0.3432  0.2727  0.5590
15966TIP3    H169389   4.080   3.652   0.938 -0.1515 -0.6830  1.0099
15966TIP3    H269390   4.162   3.641   1.064 -0.8851  0.4188  1.5936
15967TIP3   OH269391   0.949   3.083   1.911 -0.1771 -0.0484  0.3959
15967TIP3    H169392   1.021   3.041   1.958  0.1058 -0.5281 -0.4618
15967TIP3    H269393   0.871   3.033   1.938 -0.0094 -0.3597  0.3034
15968TIP3   OH269394   3.155   2.208  10.272  0.6783  0.0446 -0.3947
15968TIP3    H169395   3.180   2.131  10.219 -0.6909  0.0879 -1.1317
15968TIP3    H269396   3.107   2.171  10.346  0.8849  0.1252 -0.2210
15969TIP3   OH269397   5.056   3.030   4.232 -0.2056 -0.1853  0.6421
15969TIP3    H169398   4.978   3.013   4.285 -2.1651  0.4125 -1.9221
15969TIP3    H269399   5.089   3.114   4.265 -0.4879 -0.5581  1.9057
15970TIP3   OH269400   4.636   2.535  17.288 -0.6898 -0.2806 -0.0928
15970TIP3    H169401   4.619   2.504  17.199  0.8325 -1.1215 -0.1073
15970TIP3    H269402   4.672   2.623  17.276 -1.4534  0.0105 -0.2501
15971TIP3   OH269403   1.095   2.217   0.521  0.4425  0.0156 -0.5859
15971TIP3    H169404   1.169   2.166   0.488  0.1996 -1.1801  0.6454
15971TIP3    H269405   1.133   2.302   0.545  1.1270 -0.0836 -1.3108
15972TIP3   OH269406   3.334   4.203  12.159  0.2461 -0.1140 -0.4572
15972TIP3    H169407   3.355   4.257  12.083 -1.1834  0.6466 -0.3328
15972TIP3    H269408   3.414   4.153  12.176  0.8397  0.2981 -1.9602
15973TIP3   OH269409   4.190   5.584   5.985  0.0672  0.3735 -0.0171
15973TIP3    H169410   4.101   5.559   5.961 -0.2393  0.2744  1.2290
15973TIP3    H269411   4.239   5.501   5.985 -0.3542  0.1123  1.5083
15974TIP3   OH269412   3.788   4.325  16.664  0.1330 -0.6774 -0.6112
15974TIP3    H169413   3.852   4.396  16.669 -0.3284 -0.3275  0.4940
15974TIP3    H269414   3.840   4.246  16.675  0.6824 -0.5388 -2.0764
15975TIP3   OH269415   4.573   3.355  11.422 -0.2919  0.4161 -0.4557
15975TIP3    H169416   4.624   3.286  11.380 -1.1069 -0.4320 -0.0779
15975TIP3    H269417   4.482   3.325  11.413 -0.5380  0.7301  0.9984
15976TIP3   OH269418   0.114   2.174  13.875 -0.4338  0.0848  0.0948
15976TIP3    H169419   0.150   2.099  13.827  0.4369  0.2516  0.4698
15976TIP3    H269420   0.189   2.232  13.887 -1.6294  2.2409 -2.4624
15977TIP3   OH269421   2.432   4.878  13.312 -0.2222 -0.2238 -0.3117
15977TIP3    H169422   2.373   4.829  13.255  0.9920  0.0223 -1.8292
15977TIP3    H269423   2.517   4.835  13.302  0.1970  0.3573  0.6520
15978TIP3   OH269424   4.418   0.319  12.254 -0.1868 -0.1659 -0.2266
15978TIP3    H169425   4.332   0.358  12.268 -0.1257 -0.1613  0.1338
15978TIP3    H269426   4.473   0.357  12.322 -0.3365 -1.5212  0.6699
15979TIP3   OH269427   4.671   5.149  11.455 -0.2784  0.1065  0.3271
15979TIP3    H169428   4.579   5.121  11.453 -0.0676 -0.7586  2.1014
15979TIP3    H269429   4.675   5.221  11.393 -2.2736  0.4708  0.5898
15980TIP3   OH269430   5.222   3.931  11.704  0.2503  0.1431  0.2360
15980TIP3    H169431   5.191   3.974  11.783  0.8964  1.1471 -0.0516
15980TIP3    H269432   5.317   3.948  11.702  0.7507 -2.3511  0.7808
15981TIP3   OH269433   0.611   4.237  12.900  0.3352  0.3027 -0.2909
15981TIP3    H169434   0.524   4.260  12.934  1.0755  0.8384  1.2897
15981TIP3    H269435   0.637   4.160  12.950  0.6930  0.0261 -0.8989
15982TIP3   OH269436   3.075   6.008  11.010  0.5585  0.0202  0.7060
15982TIP3    H169437   3.045   6.078  10.952 -1.7193  0.5850  2.5101
15982TIP3    H269438   3.027   6.022  11.091  0.1220 -3.5936  1.1226
15983TIP3   OH269439   1.234   3.919  15.695  0.1215 -0.2037  0.1731
15983TIP3    H169440   1.305   3.975  15.662  0.9097 -1.6706 -0.7039
15983TIP3    H269441   1.166   3.925  15.628 -0.0770  0.2353  0.4136
15984TIP3   OH269442   3.041   3.188  11.825  0.1834  0.6387  0.3684
15984TIP3    H169443   3.099   3.128  11.872  1.1022  1.1755 -0.0691
15984TIP3    H269444   3.089   3.271  11.824 -0.3767  0.9516 -0.4286
15985TIP3   OH269445   4.662   3.370   2.610  0.2857 -0.0576 -0.2271
15985TIP3    H169446   4.601   3.367   2.684  0.5686 -2.4847 -0.0652
15985TIP3    H269447   4.700   3.283   2.607  2.0867  0.7603 -1.7517
15986TIP3   OH269448   0.964   0.472  14.001 -0.2490 -0.3151 -0.1245
15986TIP3    H169449   1.023   0.544  13.976 -0.2406 -0.6235 -1.0200
15986TIP3    H269450   0.976   0.407  13.932 -0.5081 -1.0352  0.5097
15987TIP3   OH269451   0.244   3.572   1.301  0.0527  0.3823  0.3096
15987TIP3    H169452   0.289   3.505   1.352  2.7030  0.7085 -1.5244
15987TIP3    H269453   0.227   3.531   1.216  0.2318  1.4831 -0.2696
15988TIP3   OH269454   1.175   1.184  11.747  0.2041 -0.2466  0.2011
15988TIP3    H169455   1.220   1.264  11.776 -0.0870 -0.0895  0.2183
15988TIP3    H269456   1.112   1.165  11.817 -0.3491  0.0133 -0.2289
15989TIP3   OH269457   4.286   1.873   3.397 -0.4226 -0.1328  0.7760
15989TIP3    H169458   4.360   1.926   3.369 -0.4237 -1.7356 -2.5114
15989TIP3    H269459   4.209   1.928   3.380 -0.2023  0.1511  0.6949
15990TIP3   OH269460   4.516   2.986  11.455 -0.0195 -0.1222  0.0090
15990TIP3    H169461   4.526   3.063  11.400  1.0602  0.3355  0.8142
15990TIP3    H269462   4.505   2.913  11.394 -0.6721  0.6194 -0.7607
15991TIP3   OH269463   5.759   5.593  13.845 -0.1105 -0.2151 -0.9590
15991TIP3    H169464   5.766   5.503  13.814  0.6150  0.1526 -1.9212
15991TIP3    H269465   5.805   5.644  13.778  0.7371  0.7118  0.2946
15992TIP3   OH269466   6.272   3.067  16.727 -0.1031  0.5924 -0.4870
15992TIP3    H169467   6.210   2.994  16.725  1.6181 -0.9375  1.1191
15992TIP3    H269468   6.286   3.089  16.635 -0.0248 -1.6117 -1.0226
15993TIP3   OH269469   0.678   3.245  16.896  0.2869 -0.3071  1.0184
15993TIP3    H169470   0.671   3.311  16.828 -0.3184 -0.4069  0.9751
15993TIP3    H269471   0.652   3.290  16.976 -1.3874 -0.8075  0.7870
15994TIP3   OH269472   4.361   1.047   1.001  0.1965 -0.0069 -0.2157
15994TIP3    H169473   4.290   0.984   1.014  0.1656 -0.1736 -1.1248
15994TIP3    H269474   4.336   1.123   1.054 -0.3294 -0.3183 -0.0105
15995TIP3   OH269475   0.683   1.110  12.014 -0.2851  0.3075  0.0815
15995TIP3    H169476   0.614   1.064  11.966 -0.6443  0.6679  0.2492
15995TIP3    H269477   0.697   1.191  11.965 -0.9011  0.8414  0.7744
15996TIP3   OH269478   3.709   4.274   5.685  0.2238 -0.5971 -0.1686
15996TIP3    H169479   3.637   4.212   5.696  0.9705 -1.8406 -2.1741
15996TIP3    H269480   3.667   4.360   5.689 -0.9619 -1.2252  1.5417
15997TIP3   OH269481   5.888   3.032   2.883 -0.2114 -0.5259 -0.2440
15997TIP3    H169482   5.814   3.092   2.870 -0.7870 -1.0246  0.6781
15997TIP3    H269483   5.871   2.959   2.823  1.0644  0.7298 -2.1852
15998TIP3   OH269484   6.195   6.724  14.939 -0.0221  0.3942 -0.1871
15998TIP3    H169485   6.152   6.639  14.935 -2.4425  1.5236  0.7229
15998TIP3    H269486   6.247   6.728  14.859  0.2720 -2.0053 -0.1518
15999TIP3   OH269487   1.306   0.707  14.708  0.2499 -0.6716 -0.4775
15999TIP3    H169488   1.226   0.743  14.669  0.5109 -0.8973 -1.2156
15999TIP3    H269489   1.310   0.617  14.677 -0.3886 -1.3585  1.3531
16000TIP3   OH269490   2.085   1.564   2.175 -0.1208  0.0247  0.5224
16000TIP3    H169491   2.037   1.581   2.093 -0.5143 -0.9898  0.5380
16000TIP3    H269492   2.133   1.646   2.192 -2.0260  1.1479  0.6404
16001TIP3   OH269493   2.548   2.909   4.813  0.2242  0.6431  0.0706
16001TIP3    H169494   2.498   2.969   4.757  0.1961  1.0292  0.5107
16001TIP3    H269495   2.586   2.965   4.880 -0.3930  0.0790  0.9008
16002TIP3   OH269496   5.993   4.691  11.744  0.1101 -0.1204 -0.0814
16002TIP3    H169497   5.926   4.680  11.811 -1.1308 -0.9225 -1.4164
16002TIP3    H269498   5.962   4.764  11.691  1.4516  0.9851  0.6140
16003TIP3   OH269499   6.146   2.404  15.173 -0.0658 -0.1132 -0.2718
16003TIP3    H169500   6.058   2.418  15.210  0.0332 -0.7134  0.1946
16003TIP3    H269501   6.202   2.392  15.249  0.8540  2.5957 -0.4773
16004TIP3   OH269502   0.822   3.840   0.245  0.1401  0.5303  0.0182
16004TIP3    H169503   0.821   3.852   0.340 -1.4376 -1.5398  0.2778
16004TIP3    H269504   0.845   3.748   0.232 -1.5500  0.3033 -1.5509
16005TIP3   OH269505   2.372   6.608  14.571  0.3487 -0.2163  0.0045
16005TIP3    H169506   2.433   6.634  14.503  0.6449  0.0757  0.3770
16005TIP3    H269507   2.286   6.609  14.529  0.3880  1.1519 -0.0456
16006TIP3   OH269508   2.293   2.060  10.907 -0.0574 -0.7245  0.0028
16006TIP3    H169509   2.286   2.155  10.908 -1.1405 -0.7802 -1.5588
16006TIP3    H269510   2.213   2.030  10.864  0.1399 -2.3605  0.7269
16007TIP3   OH269511   0.939   3.874   3.973  0.3528  0.6503 -0.2754
16007TIP3    H169512   0.970   3.791   3.936 -2.4217 -1.2966  1.5358
16007TIP3    H269513   0.876   3.908   3.909  1.3618  1.2925 -0.9375
16008TIP3   OH269514   2.084   1.660   0.651  0.6115 -0.0809  0.8480
16008TIP3    H169515   2.172   1.676   0.685  0.7366  0.9586  0.0895
16008TIP3    H269516   2.087   1.570   0.618  1.7903  0.3535 -0.3076
16009TIP3   OH269517   6.621   1.877   4.668  0.0660 -0.0692  0.2964
16009TIP3    H169518   6.585   1.923   4.744 -1.0799 -0.9563  0.3007
16009TIP3    H269519   6.630   1.946   4.601 -0.0911  0.4754  0.8311
16010TIP3   OH269520   0.613   1.881   3.246  0.2640  0.0337  0.2255
16010TIP3    H169521   0.564   1.922   3.175  1.4497  2.8997  0.9861
16010TIP3    H269522   0.589   1.932   3.324 -0.8963 -2.9488  1.9059
16011TIP3   OH269523   3.070   0.003   5.675 -0.0333  0.1814 -0.0503
16011TIP3    H169524   3.038  -0.001   5.765 -0.1971 -0.4168 -0.1392
16011TIP3    H269525   3.101  -0.085   5.656 -0.0234  0.3003 -0.5942
16012TIP3   OH269526   2.147   2.346  12.697  0.3021  0.3634  0.1076
16012TIP3    H169527   2.239   2.359  12.672 -0.4363  1.1974 -2.2553
16012TIP3    H269528   2.100   2.340  12.614 -1.7151 -0.6507  1.2935
16013TIP3   OH269529   6.661   6.496  17.011  0.0729 -0.2998  0.4549
16013TIP3    H169530   6.747   6.540  17.006 -0.2143  0.2703  0.4500
16013TIP3    H269531   6.652   6.450  16.927 -0.4538  1.2016 -0.3340
16014TIP3   OH269532   4.051   5.983  13.484  0.1613  0.0052  0.8503
16014TIP3    H169533   4.126   5.994  13.541  1.0063 -0.7583 -0.0949
16014TIP3    H269534   4.072   5.906  13.431 -0.7868  0.4389 -0.1820
16015TIP3   OH269535   4.574   3.627   5.689  0.0683 -0.3580  0.0669
16015TIP3    H169536   4.670   3.630   5.691  0.0155  2.3552 -0.6808
16015TIP3    H269537   4.548   3.618   5.780  0.9573  2.1148  0.5769
16016TIP3   OH269538   1.593   3.235   4.515 -0.1890 -0.2063 -0.3782
16016TIP3    H169539   1.630   3.259   4.601 -0.9602 -0.5352  0.0470
16016TIP3    H269540   1.499   3.227   4.531 -0.1159 -2.1068 -0.8412
16017TIP3   OH269541   0.821   0.112   3.835  0.3692  0.0739  0.4384
16017TIP3    H169542   0.840   0.097   3.742  0.3586  0.3651  0.3879
16017TIP3    H269543   0.856   0.199   3.853 -2.3012  1.3100 -0.0551
16018TIP3   OH269544   1.233   0.313   4.329  0.3906 -0.5539 -0.2121
16018TIP3    H169545   1.318   0.345   4.361 -0.0096 -0.0893  0.4034
16018TIP3    H269546   1.169   0.365   4.378 -0.2335  0.0334 -1.6313
16019TIP3   OH269547   2.323   0.981  13.867  0.5446 -0.0974 -0.0672
16019TIP3    H169548   2.359   0.892  13.873  0.4741 -0.0291  1.6659
16019TIP3    H269549   2.373   1.023  13.798  1.4880 -1.0742  0.0132
16020TIP3   OH269550   4.966   4.417   2.755 -1.1915 -0.1028  0.1397
16020TIP3    H169551   5.005   4.336   2.790 -0.8062  0.4908  1.1158
16020TIP3    H269552   4.987   4.415   2.661  2.9271  1.0862  0.8979
16021TIP3   OH269553   3.571   5.113  16.135  0.4395  0.1896  0.6653
16021TIP3    H169554   3.493   5.066  16.166 -0.4802  0.6504 -0.9177
16021TIP3    H269555   3.636   5.044  16.124 -0.2912 -0.4480  0.2780
16022TIP3   OH269556   3.664   0.030  11.976  0.1025  0.5577  0.1313
16022TIP3    H169557   3.654   0.013  12.070 -0.4865 -2.3448 -0.3902
16022TIP3    H269558   3.575   0.029  11.942  0.3204  1.4662 -0.4686
16023TIP3   OH269559   6.681   3.292   2.702 -0.3765 -0.4443  1.1208
16023TIP3    H169560   6.620   3.296   2.628 -0.1279  0.2489  0.9437
16023TIP3    H269561   6.626   3.300   2.779 -0.4018  1.4879  0.9247
16024TIP3   OH269562   1.334   6.691  16.998  0.0420  0.1134  0.1272
16024TIP3    H169563   1.250   6.687  17.044 -0.4720 -1.5828 -0.9303
16024TIP3    H269564   1.391   6.633  17.049  0.0146 -0.2528 -0.2546
16025TIP3   OH269565   2.229   4.962  11.796 -0.0833 -0.2789  0.4211
16025TIP3    H169566   2.255   5.029  11.858  0.3127  1.6547 -1.7834
16025TIP3    H269567   2.242   4.879  11.843  1.4093  1.0670  2.4408
16026TIP3   OH269568   5.924   1.805   6.373 -0.0535 -0.2891  0.3363
16026TIP3    H169569   6.014   1.814   6.343  0.0692 -1.4204  0.3676
16026TIP3    H269570   5.887   1.894   6.365  0.3776 -0.2664 -1.8491
16027TIP3   OH269571   2.170   0.737   2.535  0.1662 -0.3386 -0.5752
16027TIP3    H169572   2.210   0.810   2.489  0.9364 -0.4555 -0.1113
16027TIP3    H269573   2.077   0.742   2.514 -0.2950  2.5762  1.8275
16028TIP3   OH269574   2.527   4.384  11.138  0.7964  0.3895 -0.0622
16028TIP3    H169575   2.476   4.315  11.181  2.8840 -0.8060  0.5580
16028TIP3    H269576   2.526   4.457  11.200  0.0120  0.2970  0.0349
16029TIP3   OH269577   2.115   1.217  15.013 -0.3846  0.4428 -0.3925
16029TIP3    H169578   2.182   1.262  15.064  0.5864  0.5618 -1.7567
16029TIP3    H269579   2.151   1.130  14.997 -0.5226  0.5329 -1.2054
16030TIP3   OH269580   2.156   0.504  11.459 -0.0942 -0.0948 -0.1006
16030TIP3    H169581   2.149   0.495  11.554  2.9952  0.2295  0.1975
16030TIP3    H269582   2.182   0.417  11.429  0.7489  0.2768 -0.4489
16031TIP3   OH269583   2.968   0.915  16.771  0.4182 -0.4248  0.1211
16031TIP3    H169584   2.936   0.914  16.680 -1.4222  0.3982  0.7243
16031TIP3    H269585   3.063   0.907  16.763  0.3064 -0.1212 -1.8988
16032TIP3   OH269586   3.440   2.858   0.536  0.0989  0.5178 -0.0996
16032TIP3    H169587   3.386   2.779   0.531  0.6873  0.1967 -1.5004
16032TIP3    H269588   3.524   2.826   0.569  1.9033 -0.3019 -5.0733
16033TIP3   OH269589   2.699   1.647  13.760  0.5911 -0.4653 -0.6393
16033TIP3    H169590   2.635   1.582  13.791 -0.1010  0.1855 -0.6974
16033TIP3    H269591   2.646   1.717  13.723  1.1586  1.7996  2.5962
16034TIP3   OH269592   5.266   4.064  12.865  0.4101 -0.8177  0.2798
16034TIP3    H169593   5.223   4.073  12.950 -0.7125 -0.0172 -0.3550
16034TIP3    H269594   5.359   4.057  12.885  0.3691  1.5842  1.4689
16035TIP3   OH269595   2.236   5.343  12.525 -0.1103  0.0933 -1.0399
16035TIP3    H169596   2.168   5.300  12.474  0.1373  0.2127 -1.4772
16035TIP3    H269597   2.296   5.379  12.459  0.6560 -0.4562 -0.6541
16036TIP3   OH269598   4.235   1.449  16.249  0.0776 -0.3264  0.3333
16036TIP3    H169599   4.315   1.426  16.202  0.8495  0.7560  1.1030
16036TIP3    H269600   4.193   1.516  16.194  1.4870  1.6831  1.6269
16037TIP3   OH269601   0.414   5.613   1.720  0.4296  0.0961  0.2386
16037TIP3    H169602   0.350   5.596   1.789 -0.9998 -0.5536 -1.2148
16037TIP3    H269603   0.422   5.708   1.718 -0.6262  0.1942  0.3296
16038TIP3   OH269604   4.851   4.965  12.890  0.3392  0.2360  0.2819
16038TIP3    H169605   4.815   5.051  12.869  0.3311  0.3156  0.6166
16038TIP3    H269606   4.809   4.941  12.973  0.3956 -0.0578  0.2267
16039TIP3   OH269607   1.259   2.365   4.603  0.6906 -0.2106  0.1364
16039TIP3    H169608   1.184   2.382   4.546  0.2898 -1.1304  0.3787
16039TIP3    H269609   1.288   2.451   4.631 -0.5573  0.1312  0.4034
16040TIP3   OH269610   3.276   6.543   2.929  0.2113  0.3421 -0.1310
16040TIP3    H169611   3.191   6.580   2.951 -0.1566  0.0623 -1.0645
16040TIP3    H269612   3.318   6.526   3.013 -0.3516  1.1801  0.3195
16041TIP3   OH269613   2.809   3.792  14.098 -0.5919 -0.0125  0.1343
16041TIP3    H169614   2.830   3.733  14.170  1.3985  1.2024  0.5989
16041TIP3    H269615   2.752   3.859  14.137 -1.6544 -0.7974 -0.0519
16042TIP3   OH269616   1.389   3.122  12.551  0.2756 -0.1302 -0.0991
16042TIP3    H169617   1.469   3.087  12.511  0.7175  1.0592 -0.2867
16042TIP3    H269618   1.318   3.081  12.502  0.8165  1.1956 -2.0758
16043TIP3   OH269619   0.443   4.580   0.235  0.4630  0.3734  0.1470
16043TIP3    H169620   0.533   4.590   0.265  0.7261  0.8949 -0.7874
16043TIP3    H269621   0.451   4.567   0.140 -0.4790  1.0908 -0.0374
16044TIP3   OH269622   0.137   1.582  14.244 -0.3579 -0.0869  0.5079
16044TIP3    H169623   0.190   1.596  14.323  2.2492 -2.1766 -0.7549
16044TIP3    H269624   0.077   1.511  14.268 -0.1027 -0.1863  0.8672
16045TIP3   OH269625   0.580   5.051   5.999  0.5304 -0.0054  0.0578
16045TIP3    H169626   0.594   4.995   5.923  0.6674  2.0025 -1.4578
16045TIP3    H269627   0.603   4.997   6.074  1.1289 -1.7968 -1.3821
16046TIP3   OH269628   5.458   4.040  11.811  0.2530 -0.1871 -0.0401
16046TIP3    H169629   5.508   4.033  11.892  2.7395  0.0987 -1.4960
16046TIP3    H269630   5.422   4.129  11.812 -1.8007 -1.0113  1.8752
16047TIP3   OH269631   3.536   5.196   0.555  0.1666  0.1578  0.1001
16047TIP3    H169632   3.573   5.108   0.569  0.3656  0.3854  1.0446
16047TIP3    H269633   3.504   5.194   0.465 -1.1204 -1.3748  0.5571
16048TIP3   OH269634   1.171   2.473   4.070 -0.1531 -0.0733 -0.0494
16048TIP3    H169635   1.156   2.423   4.150 -2.0253  1.6986  0.7448
16048TIP3    H269636   1.112   2.434   4.005  0.0056 -0.3035 -0.0573
16049TIP3   OH269637   0.352   2.348  13.002  0.3408 -0.3820  0.5150
16049TIP3    H169638   0.300   2.427  12.987 -0.1885 -0.6791  0.7762
16049TIP3    H269639   0.399   2.334  12.920  1.4380  0.9421  0.8896
16050TIP3   OH269640   3.929   1.810   2.009 -0.4228 -0.4090 -0.8569
16050TIP3    H169641   3.988   1.785   1.938 -0.0386 -1.3430 -0.2199
16050TIP3    H269642   3.846   1.766   1.989 -0.5880  0.0524 -1.1947
16051TIP3   OH269643   2.621   6.269   3.693 -0.7339  0.4747 -0.0533
16051TIP3    H169644   2.529   6.249   3.712 -0.1655  0.0760  2.3935
16051TIP3    H269645   2.654   6.310   3.773  1.5084 -0.3426 -0.5270
16052TIP3   OH269646   5.519   5.389  15.441  0.0998  0.4315  0.0889
16052TIP3    H169647   5.604   5.351  15.418 -0.1035 -0.5791  0.9647
16052TIP3    H269648   5.519   5.390  15.537 -1.6303 -1.2806  0.1157
16053TIP3   OH269649   5.046   3.615   2.485 -0.4016 -0.1156  0.6158
16053TIP3    H169650   4.979   3.644   2.422 -1.8497  0.1936  2.2652
16053TIP3    H269651   4.996   3.585   2.560  1.3390  0.6862  2.1175
16054TIP3   OH269652   6.766   1.240   4.257 -0.2557 -0.1692  0.0661
16054TIP3    H169653   6.812   1.214   4.337 -1.5085 -0.3812  0.7339
16054TIP3    H269654   6.781   1.168   4.196 -2.2049 -1.6753  1.3066
16055TIP3   OH269655   6.153   6.560  15.796 -0.1444 -0.6462 -0.1139
16055TIP3    H169656   6.097   6.637  15.801  0.3521 -0.2584 -0.4357
16055TIP3    H269657   6.184   6.559  15.705  0.4980 -0.7644  0.1038
16056TIP3   OH269658   5.364   1.328   2.507  0.4542 -0.4871 -0.2461
16056TIP3    H169659   5.337   1.362   2.422  0.5536  0.2404  0.0163
16056TIP3    H269660   5.292   1.269   2.532 -0.3785  0.6002 -0.0526
16057TIP3   OH269661   4.557   5.418   1.481 -0.1847 -0.1663  0.0225
16057TIP3    H169662   4.507   5.370   1.415 -0.5368  0.8189 -0.4385
16057TIP3    H269663   4.577   5.501   1.439  0.1231  0.2237  0.9389
16058TIP3   OH269664   5.538   6.195   0.737  0.5856 -0.1141  0.7665
16058TIP3    H169665   5.594   6.250   0.682 -1.1862  0.2717 -0.6818
16058TIP3    H269666   5.459   6.182   0.685 -0.6668 -0.6825  2.7837
16059TIP3   OH269667   0.058   5.186   2.041 -0.3257 -0.3637  0.0526
16059TIP3    H169668   0.138   5.222   2.080 -0.9518 -0.0110  1.0524
16059TIP3    H269669   0.028   5.254   1.981 -0.5733  0.0703  0.6580
16060TIP3   OH269670   4.764   2.763  12.161  0.1100 -0.1619 -0.5093
16060TIP3    H169671   4.727   2.851  12.152  1.8710  0.5073 -1.4957
16060TIP3    H269672   4.849   2.777  12.204 -0.8439 -1.6885  2.0132
16061TIP3   OH269673   5.100   4.389   2.512 -0.5814 -0.3046 -0.1555
16061TIP3    H169674   5.138   4.434   2.437 -1.3347  0.3084 -0.1713
16061TIP3    H269675   5.171   4.334   2.546  0.1158  0.3372 -0.5780
16062TIP3   OH269676   5.178   1.387  13.146  0.7485 -0.0273  0.0468
16062TIP3    H169677   5.140   1.302  13.123  0.8740 -0.1865  0.4241
16062TIP3    H269678   5.268   1.367  13.171  0.3504  0.0145  1.5533
16063TIP3   OH269679   0.154   2.531   1.988 -0.2440  0.1293  0.7415
16063TIP3    H169680   0.185   2.441   1.991 -0.5936 -0.0465 -0.8890
16063TIP3    H269681   0.234   2.583   1.979 -0.1328 -0.0882  0.4813
16064TIP3   OH269682   0.057   1.907  16.770 -0.2459 -0.0711  0.0680
16064TIP3    H169683   0.132   1.963  16.751  0.7919 -1.3505  0.2845
16064TIP3    H269684   0.002   1.913  16.691  0.9816 -0.5220 -0.8479
16065TIP3   OH269685   0.099   2.035  11.432 -0.1879  0.4640  0.7007
16065TIP3    H169686   0.038   2.108  11.450  0.6645  1.7334 -1.4066
16065TIP3    H269687   0.140   2.059  11.349  0.6599 -2.0922  0.3692
16066TIP3   OH269688   2.788   6.299   1.759  0.1942 -0.1867 -0.5643
16066TIP3    H169689   2.702   6.283   1.798  0.3530  0.1241 -0.0793
16066TIP3    H269690   2.841   6.225   1.787  0.3686  0.1456  0.0042
16067TIP3   OH269691   1.579   4.466  16.156 -0.4004  0.2407  0.1109
16067TIP3    H169692   1.653   4.454  16.096 -0.0062 -1.0736  0.8525
16067TIP3    H269693   1.511   4.408  16.121 -0.0592 -0.7787  1.1053
16068TIP3   OH269694   5.601   2.804  11.752  0.3588 -0.0961 -0.3004
16068TIP3    H169695   5.506   2.792  11.742  0.2410 -1.2302  1.8386
16068TIP3    H269696   5.611   2.844  11.839  1.7819  1.2766 -1.0595
16069TIP3   OH269697   3.054   3.403   1.992 -0.8108 -0.2975  0.3782
16069TIP3    H169698   3.079   3.332   2.051 -2.0850 -0.7159  0.4379
16069TIP3    H269699   3.086   3.483   2.034  0.5142 -0.8217  0.3793
16070TIP3   OH269700   4.587   4.677  11.679 -0.0634  0.5657 -0.5557
16070TIP3    H169701   4.620   4.749  11.625  0.4710  1.1308  0.5002
16070TIP3    H269702   4.529   4.719  11.742  0.2584  0.0820  0.0701
16071TIP3   OH269703   5.584   1.726  11.228 -0.2431  0.2170  0.2203
16071TIP3    H169704   5.520   1.659  11.251 -0.7850  1.7393  3.5594
16071TIP3    H269705   5.669   1.684  11.243 -0.5762  0.5439  3.5343
16072TIP3   OH269706   5.380   6.225  12.633  0.3987 -0.3508 -0.1102
16072TIP3    H169707   5.468   6.197  12.610  0.2776  0.4600 -1.5899
16072TIP3    H269708   5.365   6.304  12.581 -0.7430  0.2037  1.0427
16073TIP3   OH269709   2.517   0.340   3.111  0.1415 -0.2912  0.5107
16073TIP3    H169710   2.599   0.390   3.113  0.2295 -0.4329  0.4279
16073TIP3    H269711   2.537   0.259   3.156  0.0573 -0.3440  0.4532
16074TIP3   OH269712   6.210   6.257  11.025  0.0816 -0.0865  0.0091
16074TIP3    H169713   6.132   6.299  10.988  0.5098  1.0930  0.4004
16074TIP3    H269714   6.242   6.200  10.955 -0.1954  0.6782 -0.7549
16075TIP3   OH269715   5.056   6.205  12.154 -0.0186 -0.0445 -0.3305
16075TIP3    H169716   5.126   6.172  12.097  0.1397  0.3637 -0.3726
16075TIP3    H269717   4.998   6.253  12.095  1.3115  2.2515  0.1907
16076TIP3   OH269718   5.561   6.717  17.219  0.4379  0.4844  0.0795
16076TIP3    H169719   5.519   6.780  17.277  1.3952 -0.5615  1.9753
16076TIP3    H269720   5.603   6.655  17.278 -1.8670 -2.9225 -1.6640
16077TIP3   OH269721   4.422   5.892   5.528  0.3688  0.1936  0.0663
16077TIP3    H169722   4.419   5.865   5.620  2.5410  1.3578  0.5142
16077TIP3    H269723   4.353   5.958   5.520  0.7229  0.6919  1.0748
16078TIP3   OH269724   0.061   4.985   3.833  0.5598  0.2742 -0.7871
16078TIP3    H169725  -0.019   5.030   3.859 -0.3238 -1.3946 -0.5772
16078TIP3    H269726   0.122   5.002   3.904  0.3108  1.3145 -0.8134
16079TIP3   OH269727   4.637   3.287   4.641  0.2068  0.6785 -0.5572
16079TIP3    H169728   4.563   3.293   4.581  1.5107 -1.5267 -2.4766
16079TIP3    H269729   4.714   3.302   4.586  1.3656 -0.2865  0.7513
16080TIP3   OH269730   5.868   1.384   6.280  0.1379  0.7395 -0.3164
16080TIP3    H169731   5.958   1.364   6.306 -0.5578 -0.4993  1.1487
16080TIP3    H269732   5.842   1.311   6.224 -0.4666  0.3148  0.4999
16081TIP3   OH269733   6.173   3.611  12.613  0.6664 -0.1059 -0.5282
16081TIP3    H169734   6.228   3.684  12.584  1.3228  0.0045  0.9953
16081TIP3    H269735   6.205   3.588  12.700 -1.3659 -0.3831  0.1781
16082TIP3   OH269736   0.627   0.103   4.802  0.6583  0.7203  0.2649
16082TIP3    H169737   0.605   0.036   4.736  3.2801 -0.0775  0.1468
16082TIP3    H269738   0.650   0.180   4.751  2.5117  0.1574  0.2106
16083TIP3   OH269739   1.399   2.953  14.700 -0.4148 -0.2171  0.1559
16083TIP3    H169740   1.392   2.950  14.605  2.5014  0.6999 -0.1088
16083TIP3    H269741   1.371   2.865  14.728 -0.5792 -0.7405 -1.5622
16084TIP3   OH269742   1.115   6.049  12.709 -0.0559 -0.3639 -0.2426
16084TIP3    H169743   1.036   6.060  12.655 -0.7395  0.7302  0.9608
16084TIP3    H269744   1.143   6.138  12.729 -0.6188 -0.7311  2.3338
16085TIP3   OH269745   5.035   1.547   1.651  0.1629  0.4992 -0.1841
16085TIP3    H169746   4.962   1.498   1.613  1.6788 -1.5033 -0.6232
16085TIP3    H269747   4.997   1.595   1.724 -0.9008 -3.6843  2.1588
16086TIP3   OH269748   4.049   3.406  12.646 -0.3134  0.3220  0.7308
16086TIP3    H169749   3.983   3.470  12.616 -2.3397 -2.8688 -2.0074
16086TIP3    H269750   4.081   3.365  12.565  0.4548 -2.5575  2.4343
16087TIP3   OH269751   6.071   4.241   5.308 -0.1914 -0.3546 -0.0017
16087TIP3    H169752   6.013   4.166   5.316  0.8420 -1.1621  0.0680
16087TIP3    H269753   6.065   4.286   5.392 -0.1384 -0.8592  0.2716
16088TIP3   OH269754   3.834   3.297  15.114 -0.5907 -0.4666 -0.2034
16088TIP3    H169755   3.852   3.391  15.111  0.6146 -0.6640  0.3415
16088TIP3    H269756   3.891   3.259  15.047  0.4396 -1.0152  0.9494
16089TIP3   OH269757   3.958   3.342   5.078 -0.3895  0.3252 -0.4701
16089TIP3    H169758   4.030   3.280   5.067 -1.5494 -1.0266 -0.5199
16089TIP3    H269759   3.980   3.390   5.158  1.2023  0.8133 -1.1754
16090TIP3   OH269760   5.890   5.330  11.282  0.0755 -0.5969 -0.1954
16090TIP3    H169761   5.910   5.367  11.196  1.8589 -0.4204  0.2885
16090TIP3    H269762   5.970   5.285  11.309  0.3176  1.1993  2.3277
16091TIP3   OH269763   0.903   3.980  16.060  0.2599  0.0466  0.1065
16091TIP3    H169764   0.979   3.942  16.015 -1.3222 -2.5677 -0.4746
16091TIP3    H269765   0.856   3.904  16.094 -1.1962  1.7398  1.9269
16092TIP3   OH269766   3.508   3.572  14.188  0.6628 -0.2780  0.2943
16092TIP3    H169767   3.480   3.549  14.277  1.8688 -1.3163  0.4266
16092TIP3    H269768   3.497   3.667  14.183 -0.2764 -0.3228  1.2424
16093TIP3   OH269769   5.343   6.257   4.466  0.0612  0.6376  0.0009
16093TIP3    H169770   5.287   6.334   4.475  0.1779  0.4285  2.8228
16093TIP3    H269771   5.350   6.244   4.371  0.2211  4.1910 -0.5421
16094TIP3   OH269772   5.466   0.216  15.043 -0.8305 -0.0645 -0.0835
16094TIP3    H169773   5.377   0.180  15.043 -1.0336  0.4253 -0.2606
16094TIP3    H269774   5.502   0.192  14.958 -1.4814  1.3888 -0.7832
16095TIP3   OH269775   1.212   3.930  10.975  0.3418  0.5393  0.7240
16095TIP3    H169776   1.286   3.884  10.933 -0.4600  0.7117 -0.9057
16095TIP3    H269777   1.143   3.863  10.980 -0.6326  1.3542 -1.1323
16096TIP3   OH269778   5.904   5.412  16.864  0.1900  0.2035 -0.0950
16096TIP3    H169779   5.969   5.381  16.802 -0.4858 -1.1711 -0.1287
16096TIP3    H269780   5.939   5.495  16.896  1.1402  0.2977 -1.3598
16097TIP3   OH269781   2.333   1.651   5.361  0.2325  0.7542 -0.2303
16097TIP3    H169782   2.329   1.738   5.321 -1.4444  1.3720  1.2208
16097TIP3    H269783   2.425   1.625   5.352  1.6467  4.3566  2.7305
16098TIP3   OH269784   5.971   0.420   3.657 -0.4700 -0.0050 -0.3842
16098TIP3    H169785   6.053   0.469   3.660 -0.1752 -0.4765 -0.8457
16098TIP3    H269786   5.995   0.333   3.626 -1.2808  0.1537 -1.4791
16099TIP3   OH269787   3.179   0.996  13.295 -0.3442  0.4079  0.3927
16099TIP3    H169788   3.136   0.913  13.276  0.9432 -0.0900 -0.4206
16099TIP3    H269789   3.146   1.021  13.381 -0.3747 -1.1822  0.8553
16100TIP3   OH269790   3.987   5.114  13.516  0.2119 -0.5918 -0.4619
16100TIP3    H169791   3.943   5.170  13.580 -1.1208 -2.5129  0.3550
16100TIP3    H269792   4.077   5.107  13.547  0.0269 -0.0597  0.1974
16101TIP3   OH269793   2.850   2.716  12.580 -0.1577  0.2798  0.7077
16101TIP3    H169794   2.854   2.722  12.675 -0.3465 -1.8420  0.8764
16101TIP3    H269795   2.800   2.636  12.563 -0.1891  0.6693 -1.1769
16102TIP3   OH269796   1.916   0.506  13.607  0.1521 -0.6132 -0.8148
16102TIP3    H169797   1.969   0.572  13.561 -0.1798  0.1419 -0.1393
16102TIP3    H269798   1.844   0.556  13.645  0.6210 -1.1348  0.8448
16103TIP3   OH269799   1.578   1.153   7.063 -0.0900  0.2391 -0.3592
16103TIP3    H169800   1.523   1.180   7.136  0.1487  0.0422 -0.1052
16103TIP3    H269801   1.538   1.194   6.986  1.0321  2.4272  0.1963
16104TIP3   OH269802   1.701   4.617   1.956  0.1237 -0.1581 -0.0985
16104TIP3    H169803   1.793   4.644   1.955 -0.0609  0.4750 -0.6876
16104TIP3    H269804   1.665   4.656   2.035  0.0116  0.8139 -0.6213
16105TIP3   OH269805   2.804   1.232   1.939 -1.2691  0.4202 -0.3542
16105TIP3    H169806   2.747   1.201   2.009 -0.7751  1.2110  0.4051
16105TIP3    H269807   2.820   1.324   1.959 -1.5052  0.7850 -1.7688
16106TIP3   OH269808   6.523   6.240  15.254 -0.1391 -0.0727  0.1137
16106TIP3    H169809   6.617   6.249  15.270 -0.0242 -0.1395 -0.5144
16106TIP3    H269810   6.503   6.310  15.192 -0.4359 -0.2852 -0.0287
16107TIP3   OH269811   6.453   1.905   5.300  0.5449 -0.3638 -0.9380
16107TIP3    H169812   6.360   1.891   5.312  0.7861 -2.7801 -1.7612
16107TIP3    H269813   6.474   1.977   5.361 -1.4825 -0.9877  0.5570
16108TIP3   OH269814   4.869   0.894   5.773  0.1455  0.1493 -0.6300
16108TIP3    H169815   4.853   0.833   5.845 -0.5016  1.7340  0.6047
16108TIP3    H269816   4.782   0.911   5.736  0.4426 -0.4459 -1.6234
16109TIP3   OH269817   5.995   4.235  13.908 -0.0964 -0.1892  0.4584
16109TIP3    H169818   6.011   4.171  13.978 -1.2586  0.8375  1.6933
16109TIP3    H269819   5.908   4.212  13.874  0.8892 -1.3200 -1.3771
16110TIP3   OH269820   5.410   4.012   1.603  0.3406 -0.1572 -0.1314
16110TIP3    H169821   5.425   4.004   1.509 -0.2327  4.0585 -0.6765
16110TIP3    H269822   5.343   3.946   1.623  0.2737 -0.8996 -2.7002
16111TIP3   OH269823   2.636   5.263  15.178  0.2756 -0.4096  0.1366
16111TIP3    H169824   2.550   5.288  15.214  0.9022  0.2799  1.2000
16111TIP3    H269825   2.678   5.346  15.157 -0.0649 -0.7972 -2.2498
16112TIP3   OH269826   4.475   3.488  15.755  0.3740  0.0896  0.4137
16112TIP3    H169827   4.543   3.490  15.687  0.7402  1.3787  0.7908
16112TIP3    H269828   4.519   3.451  15.831  0.0169 -1.1746  0.0184
16113TIP3   OH269829   3.756   5.613  15.934  0.0007  0.3231 -0.5195
16113TIP3    H169830   3.815   5.588  16.005 -1.5450  1.9214  1.4000
16113TIP3    H269831   3.788   5.699  15.907 -1.4198  1.2277  0.5769
16114TIP3   OH269832   6.282   6.254  15.421 -0.2033  0.0581  0.2556
16114TIP3    H169833   6.349   6.250  15.352 -0.3021 -0.2128  0.1722
16114TIP3    H269834   6.305   6.183  15.481 -1.0834 -0.7991 -0.3954
16115TIP3   OH269835   2.138   4.259  11.966 -0.6935  0.1800  0.0137
16115TIP3    H169836   2.214   4.280  12.020  0.8214 -1.7690 -1.2590
16115TIP3    H269837   2.063   4.266  12.025  0.8005 -0.7958  2.0880
16116TIP3   OH269838   4.533   4.429   1.215  0.1469  0.0671 -0.0846
16116TIP3    H169839   4.483   4.480   1.279  0.3919  0.5962 -0.3093
16116TIP3    H269840   4.574   4.359   1.266  1.1352  1.0547  0.5155
16117TIP3   OH269841   6.127   1.401  13.729 -0.0006 -0.3638  0.3216
16117TIP3    H169842   6.090   1.312  13.722  0.0425 -0.2973 -1.0093
16117TIP3    H269843   6.061   1.457  13.689  0.9347 -0.0782 -0.8533
16118TIP3   OH269844   1.794   1.984   4.666  0.1292  0.1887  0.4003
16118TIP3    H169845   1.750   1.989   4.581  1.1189 -0.4120 -0.1612
16118TIP3    H269846   1.774   2.068   4.709 -0.8551  0.2509 -0.1855
16119TIP3   OH269847   3.732   0.618   0.349  0.5869  0.2487 -0.6383
16119TIP3    H169848   3.782   0.699   0.354 -0.1122  0.7380 -1.4961
16119TIP3    H269849   3.670   0.624   0.423  0.9065  0.2405 -0.3691
16120TIP3   OH269850   6.134   0.320  10.963 -0.0655 -0.2689 -0.1202
16120TIP3    H169851   6.137   0.305  11.058 -2.5862 -1.3863 -0.1743
16120TIP3    H269852   6.212   0.276  10.929 -0.2698 -1.7214  1.2304
16121TIP3   OH269853   1.799   0.325   5.057  0.4526  0.2411  0.0192
16121TIP3    H169854   1.786   0.317   5.151 -0.0938 -1.0056 -0.1482
16121TIP3    H269855   1.816   0.235   5.027  0.6262  0.6213 -1.0631
16122TIP3   OH269856   4.817   5.855   0.192 -0.4300  0.0678  0.5109
16122TIP3    H169857   4.745   5.798   0.166 -2.5347  2.2047  1.5406
16122TIP3    H269858   4.852   5.888   0.110  0.0993 -1.7828 -0.0467
16123TIP3   OH269859   3.891   1.091  15.826  0.2654  0.4472 -0.2045
16123TIP3    H169860   3.969   1.047  15.794  0.3685 -0.8044  1.6543
16123TIP3    H269861   3.834   1.099  15.750  1.7973  0.5100 -1.3670
16124TIP3   OH269862   1.358   4.795  11.699 -0.3634 -0.2550  0.5431
16124TIP3    H169863   1.378   4.705  11.727  0.2578 -1.1107 -2.5498
16124TIP3    H269864   1.421   4.849  11.748  0.0432 -1.5895  1.5489
16125TIP3   OH269865   6.596   0.695   2.683 -0.0663 -0.3645 -0.7325
16125TIP3    H169866   6.534   0.669   2.614  0.9853 -2.7637 -0.8486
16125TIP3    H269867   6.548   0.682   2.764 -1.2347  2.2441 -0.9791
16126TIP3   OH269868   1.742   0.097   0.172  0.0542  0.4377  0.0398
16126TIP3    H169869   1.780   0.131   0.253  2.0897  0.3426 -0.8423
16126TIP3    H269870   1.741   0.172   0.113  1.4366 -0.1935 -0.8204
16127TIP3   OH269871   4.464   4.331   2.934 -0.2788  0.2130 -0.1630
16127TIP3    H169872   4.558   4.350   2.932  0.0950 -1.5569  0.1267
16127TIP3    H269873   4.459   4.236   2.940 -2.0538  0.4276  2.7472
16128TIP3   OH269874   5.245   4.044  12.568  0.0168  0.3456  0.0385
16128TIP3    H169875   5.288   4.128  12.551 -0.0834  0.4048  0.0798
16128TIP3    H269876   5.214   4.051  12.658 -2.6237  1.4270 -0.9103
16129TIP3   OH269877   2.957   6.315   0.889 -0.1860 -0.3125  0.3895
16129TIP3    H169878   2.989   6.358   0.811 -0.3347  0.9451  1.0123
16129TIP3    H269879   2.885   6.370   0.920 -3.1294 -3.1331 -1.0700
16130TIP3   OH269880   0.795   5.611  14.510 -0.1557  0.4529 -0.1470
16130TIP3    H169881   0.746   5.566  14.579 -0.2492  1.9413  0.7606
16130TIP3    H269882   0.878   5.563  14.505 -0.1201  0.3918  1.0401
16131TIP3   OH269883   0.678   5.637  14.265 -0.7595  0.1561  0.2881
16131TIP3    H169884   0.688   5.616  14.358 -0.2079 -0.2251  0.1474
16131TIP3    H269885   0.747   5.701  14.247 -0.4751 -0.2229  0.0072
16132TIP3   OH269886   6.777   5.916   2.929 -0.3223 -0.5173  0.1159
16132TIP3    H169887   6.766   6.005   2.894  0.8517 -0.4682 -0.1469
16132TIP3    H269888   6.699   5.869   2.899 -0.2222  0.0241 -1.0216
16133TIP3   OH269889   0.693   0.628  10.252 -0.1894 -0.7311 -0.1854
16133TIP3    H169890   0.749   0.692  10.297 -0.7837 -1.2870  1.3705
16133TIP3    H269891   0.745   0.547  10.252 -0.2428 -0.7644 -0.3839
16134TIP3   OH269892   4.021   1.761   3.642  0.4379  0.2396 -0.0944
16134TIP3    H169893   3.960   1.799   3.579 -0.2991  0.4281  0.7369
16134TIP3    H269894   4.072   1.698   3.590 -1.3431 -0.8926 -0.5049
16135TIP3   OH269895   3.481   0.841   1.981 -0.2006  0.6207 -0.0988
16135TIP3    H169896   3.452   0.753   1.959  0.0377  1.2247 -3.0227
16135TIP3    H269897   3.575   0.832   1.994  0.1520  0.7584 -2.3620
16136TIP3   OH269898   6.267   5.852  14.763 -0.0467 -0.2311 -0.1696
16136TIP3    H169899   6.338   5.906  14.728  1.8286 -0.8824  2.5028
16136TIP3    H269900   6.213   5.914  14.813  1.7922 -0.6316  2.4245
16137TIP3   OH269901   3.158   4.873   0.207 -0.1931 -0.5337 -0.0626
16137TIP3    H169902   3.137   4.946   0.148 -0.4312  0.0970  0.7756
16137TIP3    H269903   3.072   4.840   0.235 -0.1013 -1.8201 -1.2385
16138TIP3   OH269904   0.771   2.536  15.794  0.3742 -0.1093  0.0370
16138TIP3    H169905   0.802   2.606  15.852 -1.5547  0.0443  0.8984
16138TIP3    H269906   0.744   2.581  15.714  2.6219 -0.2791 -0.8716
16139TIP3   OH269907   3.826   6.084   1.093  0.1314 -0.7333 -0.3609
16139TIP3    H169908   3.759   6.153   1.089  0.0057 -0.8068  0.3074
16139TIP3    H269909   3.776   6.003   1.099  0.2352 -1.1731 -4.2766
16140TIP3   OH269910   3.450   1.718   5.465 -0.3957 -0.2171 -0.3180
16140TIP3    H169911   3.534   1.764   5.466  0.1842 -1.2537 -0.6777
16140TIP3    H269912   3.413   1.738   5.379 -0.2605 -0.2299 -0.3784
16141TIP3   OH269913   5.645   2.543   4.049 -0.0478 -0.3202  0.2962
16141TIP3    H169914   5.675   2.591   3.973 -0.8572 -2.0110 -1.1370
16141TIP3    H269915   5.720   2.542   4.109  0.9476  0.0926 -0.9414
16142TIP3   OH269916   2.483   5.671  16.807  0.1183  0.0100 -0.0005
16142TIP3    H169917   2.476   5.763  16.780  0.3845 -0.7538 -2.8505
16142TIP3    H269918   2.564   5.667  16.858  0.3802  1.2652 -0.3029
16143TIP3   OH269919   0.769   3.401  12.668 -0.3060  0.4635 -0.2683
16143TIP3    H169920   0.833   3.410  12.597 -0.7697  2.0167 -0.5079
16143TIP3    H269921   0.820   3.409  12.748 -0.0530  0.6993 -0.4526
16144TIP3   OH269922   0.048   6.157  14.318  0.4410  0.3588 -0.3842
16144TIP3    H169923  -0.004   6.128  14.243 -1.6755  0.5599  0.9608
16144TIP3    H269924   0.072   6.247  14.296  0.2206  0.2652 -1.0291
16145TIP3   OH269925   2.158   2.130   1.613  0.4145 -0.3329  0.0137
16145TIP3    H169926   2.141   2.208   1.665 -0.7198  0.7104 -1.8840
16145TIP3    H269927   2.144   2.057   1.674 -1.6903  0.8278  0.9607
16146TIP3   OH269928   2.668   1.181   2.153 -0.2906  0.3129 -0.2310
16146TIP3    H169929   2.576   1.157   2.163  0.2334 -2.3402 -1.3040
16146TIP3    H269930   2.704   1.177   2.241 -1.3410  2.1406  0.3159
16147TIP3   OH269931   3.299   0.281   1.152  0.4483  0.2659  0.3084
16147TIP3    H169932   3.375   0.338   1.150 -0.4954  1.5972  1.1384
16147TIP3    H269933   3.333   0.197   1.184  1.8797  0.2892 -1.1100
16148TIP3   OH269934   1.630   5.997  12.294 -0.1754 -0.0931  0.3192
16148TIP3    H169935   1.724   5.985  12.311 -0.0660  1.8674  1.2400
16148TIP3    H269936   1.599   6.048  12.368 -1.7928  0.0463 -0.4406
16149TIP3   OH269937   4.239   3.206  16.371  0.1374 -0.0057  0.6145
16149TIP3    H169938   4.209   3.128  16.416 -0.3149  0.3600  0.9436
16149TIP3    H269939   4.182   3.276  16.402 -1.0496  0.0294 -1.4922
16150TIP3   OH269940   6.418   0.790  12.392  0.9143  0.1691  0.1567
16150TIP3    H169941   6.331   0.821  12.417  0.9276  0.4161 -0.1045
16150TIP3    H269942   6.439   0.723  12.457  0.4511 -0.0196  0.1141
16151TIP3   OH269943   5.738   4.673  16.238 -0.2625 -0.3629 -0.4549
16151TIP3    H169944   5.772   4.666  16.327  0.1980  2.0085 -0.3997
16151TIP3    H269945   5.815   4.667  16.181 -0.2125  0.7954 -0.5346
16152TIP3   OH269946   4.561   5.704  11.863 -0.2420 -0.4955  0.1119
16152TIP3    H169947   4.593   5.776  11.809  0.2527 -1.3996 -0.8085
16152TIP3    H269948   4.477   5.736  11.897  1.0063  1.3829  1.5279
16153TIP3   OH269949   0.099   1.843   5.758 -0.3069  0.0447 -0.2217
16153TIP3    H169950   0.134   1.768   5.806  1.9304  0.7632 -0.6233
16153TIP3    H269951   0.057   1.806   5.681  0.7994 -0.8248 -0.4240
16154TIP3   OH269952   4.025   4.864   3.664 -0.2288  0.4130  0.0263
16154TIP3    H169953   4.015   4.769   3.657 -0.7099  0.3613  1.2354
16154TIP3    H269954   4.119   4.878   3.673  0.1293  0.2726 -2.9900
16155TIP3   OH269955   6.649   1.472  14.880  0.0412 -0.0752  0.2919
16155TIP3    H169956   6.662   1.382  14.908 -2.8676 -0.0451  1.9179
16155TIP3    H269957   6.637   1.521  14.962 -1.5494  1.2349 -0.6913
16156TIP3   OH269958   1.167   5.676  11.639  0.1677  0.5567  0.3405
16156TIP3    H169959   1.240   5.736  11.658 -0.1844  1.6774 -1.6821
16156TIP3    H269960   1.198   5.622  11.567 -1.0792  1.2155 -0.7158
16157TIP3   OH269961   3.842   5.482   0.418 -0.1778 -0.1971  0.3276
16157TIP3    H169962   3.819   5.443   0.502  2.3841 -0.0690  1.1493
16157TIP3    H269963   3.855   5.575   0.437  1.3883 -0.3346  0.0254
16158TIP3   OH269964   5.321   0.613  11.324 -0.7578 -0.2760 -0.6028
16158TIP3    H169965   5.242   0.577  11.365  0.3401 -1.6159  0.3532
16158TIP3    H269966   5.383   0.541  11.323  1.8887  1.8098  2.4030
16159TIP3   OH269967   5.333   1.340   0.785  0.1356 -0.2617  0.0113
16159TIP3    H169968   5.271   1.393   0.835  1.5939  2.2311 -0.7162
16159TIP3    H269969   5.280   1.293   0.722 -1.3624 -0.7802  1.6288
16160TIP3   OH269970   6.020   6.226   3.114 -0.1402  0.3396  0.0382
16160TIP3    H169971   6.048   6.245   3.025 -1.1469  1.6061 -0.0161
16160TIP3    H269972   5.946   6.166   3.104  0.7678 -0.8115  0.0909
16161TIP3   OH269973   3.162   0.144  12.904  0.1948 -0.0832  0.5481
16161TIP3    H169974   3.234   0.173  12.848 -0.9483 -0.2349 -1.0359
16161TIP3    H269975   3.163   0.048  12.896 -1.6565  0.0118 -1.4293
16162TIP3   OH269976   6.478   1.274   4.023  0.7085  0.6302 -0.6889
16162TIP3    H169977   6.448   1.186   4.046  1.5346  0.7712  1.0270
16162TIP3    H269978   6.398   1.322   4.001  0.2210 -0.4545 -1.2637
16163TIP3   OH269979   2.578   4.190  11.983 -0.3937 -0.0923 -0.5156
16163TIP3    H169980   2.554   4.234  11.901  0.4929 -0.3399 -0.9167
16163TIP3    H269981   2.623   4.257  12.034  1.6416 -0.7147 -1.4447
16164TIP3   OH269982   1.239   5.213   1.844  0.3972  0.0236  0.3290
16164TIP3    H169983   1.251   5.306   1.826 -0.9789  0.2700  0.6396
16164TIP3    H269984   1.311   5.170   1.796  1.5934  1.2972  0.9377
16165TIP3   OH269985   3.292   6.566  13.829  0.3262  0.7143 -0.6136
16165TIP3    H169986   3.329   6.600  13.748 -0.6688  1.0959 -0.9248
16165TIP3    H269987   3.202   6.543  13.807  0.2849  0.0711  0.1857
16166TIP3   OH269988   0.667   2.225  13.648 -0.3289 -0.5113 -0.3319
16166TIP3    H169989   0.728   2.296  13.629 -2.5249  1.1828 -1.2812
16166TIP3    H269990   0.639   2.194  13.562 -2.7539  0.4935  0.0700
16167TIP3   OH269991   0.176   2.901  13.585 -0.3083 -0.4683 -0.1090
16167TIP3    H169992   0.229   2.980  13.574  0.3043 -1.0157 -1.2061
16167TIP3    H269993   0.201   2.846  13.511 -4.3679  0.3811 -2.2695
16168TIP3   OH269994   3.751   5.774  15.557 -0.7039 -0.0664 -0.4221
16168TIP3    H169995   3.781   5.685  15.538 -1.0575  0.1330 -2.0472
16168TIP3    H269996   3.777   5.825  15.480 -1.0778  1.0973  0.2004
16169TIP3   OH269997   2.359   1.757  14.956  0.5267 -0.1841 -0.6003
16169TIP3    H169998   2.270   1.793  14.947  1.4318  2.3656  0.1832
16169TIP3    H269999   2.345   1.667  14.985 -1.8311 -0.1696 -1.5437
16170TIP3   OH270000   3.057   4.349  15.011 -0.4261 -0.4273  0.3930
16170TIP3    H170001   3.147   4.380  15.021 -1.1673  1.7961  0.3184
16170TIP3    H270002   3.052   4.320  14.920  1.0317 -3.3481  1.1945
16171TIP3   OH270003   1.363   1.924   3.979  0.2473 -0.1799 -0.5973
16171TIP3    H170004   1.426   1.895   3.913 -1.4640 -1.9241 -1.5050
16171TIP3    H270005   1.396   2.009   4.008  2.9801 -1.0440 -1.0756
16172TIP3   OH270006   3.680   4.128  15.346  0.5391 -0.2619 -0.2251
16172TIP3    H170007   3.669   4.182  15.424  0.2933 -0.4043 -0.1636
16172TIP3    H270008   3.749   4.066  15.369  1.3493  0.4989 -0.5501
16173TIP3   OH270009   2.116   5.837   2.906  0.5022  0.0306 -0.2417
16173TIP3    H170010   2.131   5.746   2.882  0.8837  0.1901 -0.6220
16173TIP3    H270011   2.199   5.881   2.887  0.2728  0.4866 -0.2035
16174TIP3   OH270012   3.491   2.733  10.493  0.0220 -0.1124 -0.3870
16174TIP3    H170013   3.500   2.814  10.444  0.0287  0.1230  0.0033
16174TIP3    H270014   3.570   2.728  10.547 -1.3211  1.1336  1.8136
16175TIP3   OH270015   4.801   1.113  13.331  0.1211  0.6187  0.1073
16175TIP3    H170016   4.826   1.021  13.339  2.8405  1.1916 -1.2274
16175TIP3    H270017   4.722   1.112  13.277 -0.8982 -1.0247  1.5754
16176TIP3   OH270018   3.856   6.007  12.711 -0.5624  0.4102  0.5264
16176TIP3    H170019   3.921   5.961  12.765 -0.8569  1.4565  1.8050
16176TIP3    H270020   3.844   5.951  12.635 -0.0568 -1.0640  1.5023
16177TIP3   OH270021   4.743   4.907   0.918  0.2317  0.2000 -0.1406
16177TIP3    H170022   4.755   4.960   0.998  1.0183 -0.4175  0.1615
16177TIP3    H270023   4.673   4.847   0.940 -0.6858  1.1242 -0.4927
16178TIP3   OH270024   6.406   3.101  13.928 -0.7976  0.0661  0.1227
16178TIP3    H170025   6.383   3.082  14.019 -0.4483 -0.9726 -0.0049
16178TIP3    H270026   6.363   3.033  13.877  0.4069 -0.3533 -0.3472
16179TIP3   OH270027   0.042   4.407   6.330  0.4347  0.4966 -0.0171
16179TIP3    H170028   0.037   4.347   6.256  0.2888 -0.2999  0.6348
16179TIP3    H270029  -0.039   4.393   6.379  0.7566  0.6483  0.5688
16180TIP3   OH270030   5.449   3.673   4.977 -0.1587  0.1205  0.0176
16180TIP3    H170031   5.366   3.625   4.985  0.4723 -0.9806  0.0417
16180TIP3    H270032   5.439   3.748   5.035 -0.7782 -0.5098  0.7393
16181TIP3   OH270033   0.263   5.452   5.566  0.4753 -0.2444 -0.5068
16181TIP3    H170034   0.201   5.497   5.509 -1.7410 -1.8178  0.6158
16181TIP3    H270035   0.226   5.461   5.654  1.4356 -1.8764  0.0757
16182TIP3   OH270036   1.895   1.584   5.149  0.8712 -0.6716 -0.1461
16182TIP3    H170037   1.977   1.538   5.129  0.4323 -2.4019  1.8588
16182TIP3    H270038   1.830   1.514   5.153 -0.4952  0.5659 -0.6048
16183TIP3   OH270039   2.197   0.016  14.364 -0.2550 -0.6503  0.4715
16183TIP3    H170040   2.175   0.060  14.282  0.6145 -1.6251 -0.3041
16183TIP3    H270041   2.261   0.073  14.406 -3.4222  1.7307  2.2916
16184TIP3   OH270042   3.679   0.325  11.933 -0.1090  0.0732  0.1597
16184TIP3    H170043   3.592   0.364  11.943  0.0434  0.0219  1.7074
16184TIP3    H270044   3.675   0.244  11.982  0.6157 -0.2608 -0.3278
16185TIP3   OH270045   0.228   5.908   4.489 -0.2011  0.4529 -0.3977
16185TIP3    H170046   0.292   5.937   4.555  0.4370 -1.7237  0.0085
16185TIP3    H270047   0.265   5.826   4.455 -2.0787 -0.0867 -1.2068
16186TIP3   OH270048   5.544   6.143   3.552 -0.6253 -0.4414  0.3644
16186TIP3    H170049   5.520   6.233   3.572  0.5509 -0.0323 -0.0147
16186TIP3    H270050   5.634   6.134   3.583 -0.8018 -1.5466  0.5876
16187TIP3   OH270051   1.387   4.553  12.555  0.5460 -0.7418 -0.4240
16187TIP3    H170052   1.413   4.603  12.632  2.0158  0.8803 -1.9162
16187TIP3    H270053   1.306   4.595  12.526  1.6922  0.7137 -1.5807
16188TIP3   OH270054   5.768   6.798  11.797 -0.0165  0.0178  0.0258
16188TIP3    H170055   5.791   6.824  11.886  1.5075  1.8630 -0.8770
16188TIP3    H270056   5.688   6.746  11.807  1.3171 -1.6298  2.6691
16189TIP3   OH270057   6.390   3.723  12.451 -0.4153 -0.1924  0.0553
16189TIP3    H170058   6.332   3.799  12.453 -1.7082 -1.1679  0.6358
16189TIP3    H270059   6.469   3.752  12.497 -1.6802  0.1860  2.0436
16190TIP3   OH270060   2.406   5.811   4.001  0.3214 -0.0876 -0.2372
16190TIP3    H170061   2.383   5.727   3.961  2.1540 -0.0066 -1.5405
16190TIP3    H270062   2.357   5.814   4.083 -0.7160 -1.8780 -0.7838
16191TIP3   OH270063   3.100   2.167   2.525 -0.3474 -0.1111 -0.7900
16191TIP3    H170064   3.047   2.218   2.464 -1.4862  2.0217  1.8660
16191TIP3    H270065   3.170   2.226   2.551 -0.4044 -0.6464  0.6522
16192TIP3   OH270066   2.506   2.175   2.758  0.1995 -0.0769 -0.0197
16192TIP3    H170067   2.504   2.264   2.794  0.1626  0.0697 -0.3758
16192TIP3    H270068   2.419   2.163   2.719  0.6448  0.2269 -1.1398
16193TIP3   OH270069   1.409   2.762   4.231  0.2561  0.7458 -0.0719
16193TIP3    H170070   1.493   2.782   4.190 -0.0608 -1.7606 -2.1067
16193TIP3    H270071   1.344   2.795   4.169 -0.2922  1.9230  1.1011
16194TIP3   OH270072   2.306   1.924   5.799 -0.6339 -0.4521  0.2080
16194TIP3    H170073   2.357   1.863   5.745  0.5668  1.0557 -0.3978
16194TIP3    H270074   2.320   1.894   5.888 -0.9904 -1.7555 -0.1624
16195TIP3   OH270075   0.000   0.307   2.665  0.7811  0.1069  0.1457
16195TIP3    H170076  -0.037   0.383   2.620  2.2338  0.8912  0.2453
16195TIP3    H270077   0.039   0.344   2.744  0.8027 -0.8619  0.5870
16196TIP3   OH270078   2.588   0.980  16.425 -0.2730  0.5009  0.1678
16196TIP3    H170079   2.576   1.075  16.427 -0.6866  0.4317  1.6326
16196TIP3    H270080   2.540   0.948  16.502 -0.7146 -0.9612 -0.7041
16197TIP3   OH270081   0.900   5.091   2.825 -0.5448 -0.5009 -0.0736
16197TIP3    H170082   0.818   5.058   2.789 -1.1029  1.7878 -0.9805
16197TIP3    H270083   0.923   5.165   2.769  0.1819  1.2304  2.4184
16198TIP3   OH270084   0.089   2.837   0.160 -0.0979 -0.1984  0.1710
16198TIP3    H170085   0.122   2.837   0.070  3.5905  2.5937  1.4153
16198TIP3    H270086   0.097   2.746   0.188  1.0861 -0.6368 -1.5161
16199TIP3   OH270087   1.556   1.959  14.395  0.7291  0.0687 -0.3600
16199TIP3    H170088   1.462   1.974  14.407  0.4590 -1.1590 -0.8345
16199TIP3    H270089   1.598   2.011  14.463 -0.3682 -0.3532  0.6441
16200TIP3   OH270090   2.671   4.344   0.767  0.1981  0.0876  0.2645
16200TIP3    H170091   2.749   4.383   0.729  0.9285 -3.3485 -1.9495
16200TIP3    H270092   2.607   4.343   0.695 -1.2448  1.0603  1.4955
16201TIP3   OH270093   2.406   5.660  12.966  0.1014 -0.0355  0.1107
16201TIP3    H170094   2.407   5.754  12.982 -0.0343  0.1183 -0.7494
16201TIP3    H270095   2.481   5.645  12.909  0.5295 -0.5557  0.8083
16202TIP3   OH270096   0.973   6.581  15.060  0.5823  0.3003  0.0206
16202TIP3    H170097   1.037   6.594  15.129 -0.4344  0.8868  0.8522
16202TIP3    H270098   0.899   6.538  15.103  0.7521 -1.1691 -1.1081
16203TIP3   OH270099   4.899   1.197   1.435  0.3540  0.6944 -0.2111
16203TIP3    H170100   4.859   1.133   1.376  0.5508 -0.3489  0.7666
16203TIP3    H270101   4.958   1.248   1.379  0.6411 -0.3728 -0.8988
16204TIP3   OH270102   6.155   1.434   0.812 -0.2033  0.4501  0.1883
16204TIP3    H170103   6.208   1.509   0.841 -1.6230  0.8137  1.8994
16204TIP3    H270104   6.086   1.473   0.760  0.1432  0.1428 -0.5045
16205TIP3   OH270105   4.572   6.274   1.776 -0.0237 -0.1294 -0.4354
16205TIP3    H170106   4.482   6.258   1.805  0.1750  1.2414  1.0249
16205TIP3    H270107   4.563   6.340   1.708  0.0675  2.2588  1.7908
16206TIP3   OH270108   2.616   5.014   1.748  0.3243  0.2487  0.6519
16206TIP3    H170109   2.707   5.044   1.756  1.4096 -1.6856 -2.8650
16206TIP3    H270110   2.613   4.934   1.800  1.2159 -0.6754 -0.6613
16207TIP3   OH270111   5.475   1.484   2.849 -0.2197  0.0823 -0.1929
16207TIP3    H170112   5.515   1.434   2.779  0.6055 -0.3831  0.6015
16207TIP3    H270113   5.487   1.576   2.823  1.0992 -0.0576 -0.1167
16208TIP3   OH270114   5.919   4.491   6.394 -0.4969 -0.1426  0.0773
16208TIP3    H170115   5.876   4.431   6.454 -1.1522  1.5949  1.3810
16208TIP3    H270116   5.966   4.553   6.450 -2.4421  2.4941 -1.0867
16209TIP3   OH270117   3.367   5.967   6.180 -0.0313  0.4405 -0.1101
16209TIP3    H170118   3.442   6.026   6.185 -0.2263  0.5538  1.7947
16209TIP3    H270119   3.321   5.980   6.262  0.1268 -2.6756  0.5271
16210TIP3   OH270120   4.883   2.100  17.077  0.1475 -0.4233 -0.0404
16210TIP3    H170121   4.914   2.012  17.056  0.1662 -0.0169 -1.7904
16210TIP3    H270122   4.899   2.151  16.997  2.6589  1.8499  1.7927
16211TIP3   OH270123   0.065   1.677  16.507 -0.9229 -0.1856  0.2262
16211TIP3    H170124   0.083   1.740  16.437  1.5574  0.2828  1.2310
16211TIP3    H270125  -0.009   1.715  16.555 -0.6864  1.0015 -0.3377
16212TIP3   OH270126   2.195   4.316  10.537 -0.4086  0.9091 -0.5421
16212TIP3    H170127   2.131   4.246  10.554 -0.5098  1.1792  0.1744
16212TIP3    H270128   2.279   4.277  10.560 -0.5014  1.1351  0.1890
16213TIP3   OH270129   0.263   5.960  16.242 -0.2713 -0.5869 -0.0363
16213TIP3    H170130   0.234   5.959  16.333  1.0597  0.0324  0.4032
16213TIP3    H270131   0.279   5.868  16.220 -2.6528 -0.9706 -0.3383
16214TIP3   OH270132   4.431   6.598  13.431  0.5350  0.2274  0.2262
16214TIP3    H170133   4.469   6.663  13.489  0.2027 -1.0408  1.9073
16214TIP3    H270134   4.453   6.629  13.343  1.5622  1.8654  1.0271
16215TIP3   OH270135   2.668   2.373   2.585 -0.2447 -0.2390  0.1275
16215TIP3    H170136   2.613   2.413   2.518  0.1867 -0.1175 -0.1554
16215TIP3    H270137   2.634   2.408   2.668  0.4830  1.1439 -0.1521
16216TIP3   OH270138   0.149   6.543   5.946 -0.6951  0.0896 -0.3790
16216TIP3    H170139   0.143   6.448   5.952  0.9107 -0.2559 -2.9647
16216TIP3    H270140   0.149   6.560   5.851 -0.5295  2.6027  0.0494
16217TIP3   OH270141   5.127   3.164   3.214 -0.1360  0.2036 -0.3264
16217TIP3    H170142   5.181   3.227   3.166 -2.1409  0.3133 -2.5543
16217TIP3    H270143   5.162   3.079   3.189  0.0187  0.3220 -0.5235
16218TIP3   OH270144   3.724   2.490   5.230 -0.2840 -0.3952 -0.2208
16218TIP3    H170145   3.628   2.491   5.237 -0.2276  2.2832  1.0568
16218TIP3    H270146   3.754   2.468   5.318  0.2952 -1.5436 -0.6971
16219TIP3   OH270147   4.992   2.611  10.885 -0.1801 -0.1420  0.2308
16219TIP3    H170148   5.052   2.686  10.888  0.3086 -0.5830  2.2663
16219TIP3    H270149   4.912   2.645  10.846  0.8215  0.8725 -0.9753
16220TIP3   OH270150   1.408   2.246  14.195  0.6608 -0.0448 -0.0489
16220TIP3    H170151   1.439   2.170  14.146  3.0521  0.1504  1.0682
16220TIP3    H270152   1.391   2.212  14.283  2.0681  0.7581  0.5490
16221TIP3   OH270153   6.531   5.061  11.825 -0.0624 -0.1518  1.0591
16221TIP3    H170154   6.510   5.144  11.782  2.1604 -1.0696 -1.9825
16221TIP3    H270155   6.601   5.083  11.887  1.0797  0.1428 -0.3121
16222TIP3   OH270156   5.416   4.869   3.333 -0.7908 -0.5906 -0.0246
16222TIP3    H170157   5.399   4.900   3.244 -0.9669 -1.4779 -0.3129
16222TIP3    H270158   5.347   4.908   3.386 -0.8779 -0.3171 -0.3372
16223TIP3   OH270159   0.463   2.841   6.799  0.3221 -0.4488  0.0636
16223TIP3    H170160   0.431   2.921   6.840  1.3383  0.0975 -0.2092
16223TIP3    H270161   0.424   2.770   6.851 -0.1981  0.2150  0.5837
16224TIP3   OH270162   6.364   4.183   0.903 -0.2037  0.3057 -0.1158
16224TIP3    H170163   6.445   4.154   0.863  0.2144  0.5221  0.5682
16224TIP3    H270164   6.364   4.144   0.990 -1.4749 -0.8011 -0.5842
16225TIP3   OH270165   6.095   1.595  16.290 -0.0220  0.0362  0.0435
16225TIP3    H170166   6.041   1.519  16.269  2.8089 -2.4193  1.2352
16225TIP3    H270167   6.156   1.603  16.217  2.1066 -1.2269  1.5969
16226TIP3   OH270168   5.868   2.881   5.208  0.5177 -0.3272  1.1922
16226TIP3    H170169   5.875   2.954   5.270  1.7860  1.7553 -1.3244
16226TIP3    H270170   5.951   2.833   5.218  1.5596  1.1166 -0.1642
16227TIP3   OH270171   1.447   6.098  11.431 -0.0583  0.4220  0.7869
16227TIP3    H170172   1.450   6.006  11.407 -1.2845  0.4203  0.6039
16227TIP3    H270173   1.359   6.126  11.408  0.6871  1.9516 -0.2555
16228TIP3   OH270174   5.623   0.319   4.187  0.4772 -0.3315  0.2206
16228TIP3    H170175   5.620   0.238   4.237 -0.0340  0.2836  1.2118
16228TIP3    H270176   5.629   0.388   4.253  1.1026  0.4296 -0.6120
16229TIP3   OH270177   1.328   1.460   1.456  0.3015  0.4084  0.0906
16229TIP3    H170178   1.260   1.478   1.391  0.9286 -1.0472 -0.9654
16229TIP3    H270179   1.372   1.545   1.468 -0.8501  1.0572 -0.1662
16230TIP3   OH270180   2.829   2.340  12.050 -0.2091  0.0030  0.4935
16230TIP3    H170181   2.770   2.407  12.083 -0.4677 -0.2245  0.4987
16230TIP3    H270182   2.771   2.275  12.010  0.0393 -0.2130  0.4835
16231TIP3   OH270183   4.594   1.283   3.273 -0.4077  0.3255 -0.0793
16231TIP3    H170184   4.599   1.312   3.182  0.9286 -1.1853 -0.5125
16231TIP3    H270185   4.502   1.259   3.286 -0.8877  1.8304 -0.6051
16232TIP3   OH270186   5.586   5.349  12.659  0.2391  0.1949  0.1190
16232TIP3    H170187   5.554   5.438  12.645  0.6525  0.3422  0.0909
16232TIP3    H270188   5.578   5.336  12.753  0.3261  0.3234  0.1457
16233TIP3   OH270189   1.355   2.254   0.398  0.0986  0.1085  0.1796
16233TIP3    H170190   1.429   2.314   0.384 -0.3013  0.1829 -1.7383
16233TIP3    H270191   1.396   2.169   0.415  0.6381  0.2951 -0.1610
16234TIP3   OH270192   4.104   6.472   1.021 -0.7443 -0.7531  0.5689
16234TIP3    H170193   4.028   6.451   0.967 -0.8873 -0.8048  0.7904
16234TIP3    H270194   4.164   6.399   1.007  0.1241  0.2345 -1.1742
16235TIP3   OH270195   4.553   3.396   3.360  0.0604 -0.5333  0.0564
16235TIP3    H170196   4.515   3.457   3.297  0.5647 -1.8878 -1.6328
16235TIP3    H270197   4.478   3.360   3.407 -0.3136  0.6184  0.3635
16236TIP3   OH270198   2.040   5.953  16.263 -0.3556  0.1094 -0.2489
16236TIP3    H170199   2.085   5.870  16.251 -0.1781 -0.1132  1.7628
16236TIP3    H270200   2.009   5.977  16.176  0.3404 -1.6305 -0.9899
16237TIP3   OH270201   2.947   3.695  12.536 -0.9857  0.1585  0.2499
16237TIP3    H170202   2.940   3.760  12.466 -3.4385 -2.1750 -1.8139
16237TIP3    H270203   2.856   3.678  12.561 -0.5182 -3.1061  0.0412
16238TIP3   OH270204   6.048   6.743   0.101 -0.0381 -0.3949 -0.1657
16238TIP3    H170205   6.132   6.710   0.133  0.2091  0.3422 -0.0506
16238TIP3    H270206   6.058   6.838   0.101 -1.6412 -0.1991  1.9106
16239TIP3   OH270207   5.043   0.578  13.346  0.5531 -0.5742 -0.6178
16239TIP3    H170208   5.085   0.644  13.401  0.4333 -1.3971  0.4580
16239TIP3    H270209   5.109   0.558  13.279  1.3445 -0.8231  0.2319
16240TIP3   OH270210   1.633   0.500   6.424 -0.5218  0.1613  0.3498
16240TIP3    H170211   1.559   0.557   6.446  0.7844  1.1374  2.3299
16240TIP3    H270212   1.692   0.557   6.373 -0.0307  0.0777  0.8227
16241TIP3   OH270213   3.950   2.034   1.863  0.3912 -0.2568  0.6494
16241TIP3    H170214   3.900   1.992   1.934 -1.3545 -1.8202 -1.4317
16241TIP3    H270215   3.925   1.985   1.785  0.9132  2.5772 -1.3505
16242TIP3   OH270216   6.391   0.895  16.655  0.1633  0.0893 -0.0244
16242TIP3    H170217   6.471   0.843  16.666  1.2900  1.8324  0.1597
16242TIP3    H270218   6.375   0.894  16.561  1.0030  0.6163 -0.1747
16243TIP3   OH270219   1.800   6.365  13.478  1.1300  0.2181 -0.0380
16243TIP3    H170220   1.748   6.334  13.551  0.3105  2.2088  0.2634
16243TIP3    H270221   1.879   6.401  13.518  1.2011  0.2584 -0.2137
16244TIP3   OH270222   5.263   2.498   0.874 -0.0280 -0.0309 -0.0494
16244TIP3    H170223   5.184   2.520   0.824 -0.3845 -2.2128 -0.4613
16244TIP3    H270224   5.331   2.490   0.808 -0.1256 -1.1783 -0.0213
16245TIP3   OH270225   3.244   5.834  15.324 -0.6456 -0.0238 -0.0421
16245TIP3    H170226   3.185   5.858  15.396 -0.2216  0.5892  0.1078
16245TIP3    H270227   3.310   5.778  15.365 -0.4091  0.3181  0.0507
16246TIP3   OH270228   5.192   1.497   2.961  0.3680 -0.3909 -0.1131
16246TIP3    H170229   5.221   1.586   2.943 -0.0896 -0.2675 -0.2405
16246TIP3    H270230   5.258   1.462   3.021  1.2078 -0.3748 -1.0102
16247TIP3   OH270231   4.986   0.741  16.254 -0.0858  0.1791 -0.0591
16247TIP3    H170232   4.918   0.732  16.186  0.0503 -2.0061  0.0687
16247TIP3    H270233   5.061   0.694  16.219  0.2063 -0.3905  1.3039
16248TIP3   OH270234   2.365   5.267   4.075  0.1600  1.3000 -0.2930
16248TIP3    H170235   2.346   5.223   3.992 -0.5449 -0.2040  0.6368
16248TIP3    H270236   2.447   5.314   4.060 -1.1010  2.8673 -2.5131
16249TIP3   OH270237   3.107   0.415   4.043 -0.7621  0.0457  0.1837
16249TIP3    H170238   3.116   0.320   4.058  0.7984  0.3293  1.1737
16249TIP3    H270239   3.195   0.449   4.057 -1.3511  1.6734 -0.0429
16250TIP3   OH270240   6.484   4.714   4.258 -0.4879 -0.5942 -0.5226
16250TIP3    H170241   6.426   4.646   4.224 -0.7324 -0.7144  0.1405
16250TIP3    H270242   6.530   4.746   4.180  0.4099 -2.2369 -0.7013
16251TIP3   OH270243   0.571   4.159   5.482  0.3488 -0.2457 -0.7518
16251TIP3    H170244   0.497   4.184   5.537  0.8361 -0.0536 -0.1889
16251TIP3    H270245   0.609   4.241   5.453  0.9728 -0.3347 -0.1980
16252TIP3   OH270246   4.624   3.707  10.641 -0.0398  0.2448 -0.1563
16252TIP3    H170247   4.574   3.786  10.618 -0.9981 -0.1155  0.6442
16252TIP3    H270248   4.667   3.729  10.723  0.7322  0.3804 -0.5955
16253TIP3   OH270249   3.318   2.091   5.591  0.6841 -0.0586 -0.3751
16253TIP3    H170250   3.384   2.130   5.534  0.9047  0.1677  0.0334
16253TIP3    H270251   3.352   2.003   5.611  0.1755 -0.4765 -1.3134
16254TIP3   OH270252   2.977   2.552  14.229 -0.2636 -0.8012 -0.0745
16254TIP3    H170253   2.987   2.535  14.323 -1.3603  3.4197  0.9218
16254TIP3    H270254   3.065   2.578  14.201 -0.2855 -0.4596  0.1644
16255TIP3   OH270255   1.024   4.816  13.005  0.0644  0.4334  0.3086
16255TIP3    H170256   0.976   4.766  13.071  0.7843 -0.3992  0.2065
16255TIP3    H270257   1.076   4.751  12.958  0.9836  1.2646  0.1488
16256TIP3   OH270258   5.600   6.115   4.837  0.2471  0.1881  0.0334
16256TIP3    H170259   5.657   6.069   4.898  0.2009  2.4261  1.8323
16256TIP3    H270260   5.660   6.161   4.778  0.2935  0.0740 -0.0078
16257TIP3   OH270261   3.696   2.148   5.727 -0.3094  0.0301 -0.0858
16257TIP3    H170262   3.619   2.142   5.783  0.4050 -0.7608  0.8329
16257TIP3    H270263   3.701   2.240   5.702 -0.1339  0.5592  1.8739
16258TIP3   OH270264   1.906   2.286   5.286  0.7860  0.0333 -0.2269
16258TIP3    H170265   1.989   2.304   5.240  0.6800  0.9611 -0.0754
16258TIP3    H270266   1.864   2.372   5.293  0.2975 -0.2682  0.6354
16259TIP3   OH270267   5.001   2.016  12.130  0.0607  0.8720  0.5621
16259TIP3    H170268   4.956   2.090  12.088  0.5555  0.0350 -1.5221
16259TIP3    H270269   4.931   1.954  12.151 -0.0874  0.8037 -0.1022
16260TIP3   OH270270   0.113   2.565   0.217 -0.4675 -0.4759 -0.2006
16260TIP3    H170271   0.046   2.505   0.184 -0.2619 -0.2513 -1.0369
16260TIP3    H270272   0.183   2.508   0.249 -0.2185 -0.6856 -1.1041
16261TIP3   OH270273   6.125   3.402   4.640  0.5767 -0.4221 -0.0367
16261TIP3    H170274   6.178   3.475   4.670 -0.5860  0.6284 -0.4986
16261TIP3    H270275   6.035   3.433   4.646  0.1173 -1.5016 -1.0651
16262TIP3   OH270276   2.047   5.294  15.361  0.1531 -0.1698  0.0192
16262TIP3    H170277   2.091   5.374  15.332 -1.2153  0.3611 -0.6966
16262TIP3    H270278   2.103   5.223  15.330  1.1552  0.4989  0.2648
16263TIP3   OH270279   0.275   0.441   5.405  0.5461  0.0350 -0.3150
16263TIP3    H170280   0.326   0.360   5.397 -0.6936 -0.6157 -2.0693
16263TIP3    H270281   0.190   0.413   5.440 -0.3118  0.3491 -2.0464
16264TIP3   OH270282   1.897   6.809  14.121 -0.3644  0.7040 -0.8077
16264TIP3    H170283   1.852   6.866  14.183 -1.8218 -0.5806 -0.6557
16264TIP3    H270284   1.926   6.735  14.173  0.3572  0.6617 -1.2545
16265TIP3   OH270285   0.542   0.266  11.687 -0.7399 -1.0758 -0.4462
16265TIP3    H170286   0.465   0.222  11.722 -1.1434 -0.9741 -1.1902
16265TIP3    H270287   0.549   0.346  11.740  1.0085 -2.8163  2.0548
16266TIP3   OH270288   5.322   2.063   4.807 -0.3741 -0.0863  0.2551
16266TIP3    H170289   5.284   2.133   4.754 -1.0798 -1.2419 -0.7898
16266TIP3    H270290   5.285   2.076   4.894 -1.2940  0.2228 -0.1836
16267TIP3   OH270291   2.545   4.385  16.755 -0.1294 -0.4242  0.1123
16267TIP3    H170292   2.630   4.400  16.713 -0.6336  0.3205 -0.6572
16267TIP3    H270293   2.498   4.326  16.696 -0.2080 -0.7172  0.4640
16268TIP3   OH270294   4.592   2.952  17.045 -0.2185 -0.3819 -0.4799
16268TIP3    H170295   4.599   3.005  17.124  1.5067  0.4261 -1.1186
16268TIP3    H270296   4.508   2.977  17.006 -1.4964 -1.4618  1.5374
16269TIP3   OH270297   4.539   3.966   4.944 -0.0820 -0.3170 -0.5654
16269TIP3    H170298   4.465   3.906   4.950  0.3771 -0.7596  0.9008
16269TIP3    H270299   4.564   3.982   5.035 -0.1320  2.0195 -0.9357
16270TIP3   OH270300   1.630   5.759   2.610  0.1152 -0.4106  0.2594
16270TIP3    H170301   1.634   5.677   2.660  1.7200 -0.7291 -0.3702
16270TIP3    H270302   1.645   5.827   2.676  4.0964 -0.9135  0.0237
16271TIP3   OH270303   3.759   0.381  17.211  0.1162 -0.3761 -0.2082
16271TIP3    H170304   3.719   0.408  17.294  0.8127 -0.9205  0.3127
16271TIP3    H270305   3.749   0.286  17.210  0.6992 -0.4331 -0.4364
16272TIP3   OH270306   5.769   0.343   3.496  1.0085  0.1994  0.7010
16272TIP3    H170307   5.825   0.286   3.443  1.4795 -0.6818  2.0840
16272TIP3    H270308   5.831   0.392   3.550  0.5272  0.7252  0.7724
16273TIP3   OH270309   1.505   1.175  13.629 -0.7456  0.1174 -0.5055
16273TIP3    H170310   1.479   1.263  13.601 -0.5652  0.2837 -0.1646
16273TIP3    H270311   1.424   1.135  13.658 -0.6399  0.6226  0.5223
16274TIP3   OH270312   3.016   1.605  11.051  0.5569  0.0554  0.3158
16274TIP3    H170313   2.927   1.595  11.084  0.3375  1.4608  0.2105
16274TIP3    H270314   3.070   1.546  11.104 -0.5676 -1.4299 -0.1845
16275TIP3   OH270315   1.213   0.740   3.232  0.1327  0.0290  0.2722
16275TIP3    H170316   1.201   0.754   3.138  0.7124 -1.1530  0.0099
16275TIP3    H270317   1.152   0.670   3.254  0.0194  0.2840  0.7637
16276TIP3   OH270318   4.234   5.079  10.348  0.1945  0.0649 -0.0685
16276TIP3    H170319   4.268   5.156  10.392  0.3286  0.1078 -0.2512
16276TIP3    H270320   4.141   5.077  10.372  0.2102  0.2327  0.0044
16277TIP3   OH270321   2.487   4.340   1.008  0.5441  0.3428  0.2417
16277TIP3    H170322   2.540   4.375   0.937 -1.3444  3.0612  0.0829
16277TIP3    H270323   2.453   4.257   0.974  0.4813  1.1246 -1.6579
16278TIP3   OH270324   2.122   0.727  15.911 -0.4599  0.1822 -0.7750
16278TIP3    H170325   2.215   0.720  15.935 -0.9454 -0.0706  1.0489
16278TIP3    H270326   2.108   0.822  15.901 -0.1172  0.2513 -0.6342
16279TIP3   OH270327   2.365   3.398  15.408 -0.4080 -0.4154  0.2276
16279TIP3    H170328   2.359   3.486  15.370 -0.7353 -0.5750 -0.0948
16279TIP3    H270329   2.321   3.342  15.345 -0.3993 -0.7800  0.5438
16280TIP3   OH270330   1.894   0.949  16.591 -0.1691  0.5627 -0.0545
16280TIP3    H170331   1.937   0.952  16.676  1.2363 -2.0750 -0.6184
16280TIP3    H270332   1.937   1.016  16.539  2.7676 -1.4496 -0.3394
16281TIP3   OH270333   4.307   0.665  11.936 -0.1228 -0.1537 -0.3562
16281TIP3    H170334   4.234   0.616  11.974 -1.0289  0.4898 -1.2055
16281TIP3    H270335   4.385   0.615  11.958 -0.5705  0.3876  2.6470
16282TIP3   OH270336   3.296   0.325   0.707  0.2783 -0.6222  0.2196
16282TIP3    H170337   3.204   0.324   0.734  0.6594  0.5803  1.5726
16282TIP3    H270338   3.294   0.357   0.617 -0.5711  0.1123  0.4970
16283TIP3   OH270339   4.340   2.450  12.749  0.3501  0.5495 -0.1327
16283TIP3    H170340   4.296   2.375  12.709  0.9078  0.3961 -0.4659
16283TIP3    H270341   4.433   2.436  12.730  0.5729  0.7429  0.7700
16284TIP3   OH270342   3.686   1.795   4.190 -0.2173  0.0300  0.1202
16284TIP3    H170343   3.720   1.884   4.200  0.3094 -0.3297  1.8506
16284TIP3    H270344   3.764   1.742   4.176 -0.4528 -0.2610 -0.0846
16285TIP3   OH270345   3.407   4.687   5.914 -0.0649  0.3442  0.1898
16285TIP3    H170346   3.438   4.686   6.004 -0.0653  0.0557  0.1868
16285TIP3    H270347   3.312   4.700   5.921  0.0593  1.2916  0.1967
16286TIP3   OH270348   1.862   4.675  15.334  0.4537 -0.0120  0.3891
16286TIP3    H170349   1.790   4.618  15.362 -0.3318  0.6810 -0.1871
16286TIP3    H270350   1.895   4.634  15.255 -0.4637  0.6191 -0.3267
16287TIP3   OH270351   1.435   0.538  13.543  0.1793  0.5191  0.3432
16287TIP3    H170352   1.412   0.578  13.459 -0.2077 -0.1015  0.1533
16287TIP3    H270353   1.442   0.445  13.525 -0.0789  0.3595  1.0435
16288TIP3   OH270354   2.824   5.150  12.190 -0.2301 -0.0942  0.4961
16288TIP3    H170355   2.884   5.188  12.126  1.1063  0.9771  2.3666
16288TIP3    H270356   2.740   5.193  12.173  0.1150  0.1775 -0.5293
16289TIP3   OH270357   5.582   0.321  13.456  0.1506  0.3870  0.4225
16289TIP3    H170358   5.622   0.285  13.377 -0.6678 -1.5909  0.8671
16289TIP3    H270359   5.607   0.413  13.456  1.6932 -0.0050 -1.1662
16290TIP3   OH270360   1.227   5.225   0.815  0.0456 -0.1577 -0.4553
16290TIP3    H170361   1.276   5.157   0.862 -0.2644 -1.5057 -2.0460
16290TIP3    H270362   1.143   5.185   0.794 -0.4479  0.9921 -0.7180
16291TIP3   OH270363   5.171   2.382  10.839 -0.2253 -0.2015 -0.5110
16291TIP3    H170364   5.114   2.426  10.777 -0.8446 -1.5054 -0.8836
16291TIP3    H270365   5.113   2.354  10.909  0.0418 -1.0173 -0.6099
16292TIP3   OH270366   4.233   2.988  12.007 -0.2340  0.2876  0.9323
16292TIP3    H170367   4.258   3.041  11.931 -0.0013  1.3054  1.7042
16292TIP3    H270368   4.147   2.954  11.984  0.3952 -0.5028 -0.3380
16293TIP3   OH270369   1.152   5.886   3.108 -0.1200  0.7162 -0.5991
16293TIP3    H170370   1.217   5.816   3.112  0.3536  1.2106  1.1201
16293TIP3    H270371   1.114   5.888   3.196 -2.0133  0.8620 -1.3989
16294TIP3   OH270372   5.145   0.796   0.532 -0.4045  0.3906 -0.2453
16294TIP3    H170373   5.081   0.805   0.602 -2.0772 -1.2923 -1.5266
16294TIP3    H270374   5.211   0.735   0.566 -0.8130  0.1678  0.1356
16295TIP3   OH270375   3.644   1.837  13.782 -0.1914 -0.5109  0.3396
16295TIP3    H170376   3.570   1.797  13.829 -1.1555  1.4724  0.5336
16295TIP3    H270377   3.611   1.850  13.693  0.0436  0.0761  0.3398
16296TIP3   OH270378   2.782   0.246  12.586 -0.4267  0.9942  1.0482
16296TIP3    H170379   2.799   0.285  12.500 -0.9580  0.3401  0.6395
16296TIP3    H270380   2.780   0.320  12.647 -1.3592  1.5882  0.2982
16297TIP3   OH270381   5.596   1.972  15.264 -0.4579 -0.3914 -0.6611
16297TIP3    H170382   5.656   2.031  15.218 -0.7387  0.6345  0.2660
16297TIP3    H270383   5.653   1.908  15.307 -0.0164  0.5542  0.1805
16298TIP3   OH270384   4.490   4.362  15.618 -0.3719 -0.2531 -0.1428
16298TIP3    H170385   4.529   4.322  15.696  0.0637  1.2678  0.4378
16298TIP3    H270386   4.504   4.299  15.548  2.5170 -0.0390  0.2086
16299TIP3   OH270387   5.252   0.901  13.099 -0.8240 -0.2608  0.2883
16299TIP3    H170388   5.296   0.873  13.019  0.4854 -0.2525  0.9923
16299TIP3    H270389   5.160   0.908  13.074 -0.1341  2.0684 -1.8520
16300TIP3   OH270390   0.896   2.398  14.560  0.4318  0.2191 -0.0407
16300TIP3    H170391   0.889   2.375  14.653 -0.9954 -1.0176 -0.4473
16300TIP3    H270392   0.966   2.342  14.527  0.6581  0.3631  0.1894
16301TIP3   OH270393   1.335   2.237   1.724  0.1349  0.0466  0.8499
16301TIP3    H170394   1.396   2.191   1.782  1.0829  0.7402  0.4150
16301TIP3    H270395   1.391   2.294   1.672 -0.6158 -1.2306 -1.3949
16302TIP3   OH270396   5.425   1.103   4.767 -0.7725 -0.4601  0.2608
16302TIP3    H170397   5.507   1.143   4.797 -0.8586  0.0567 -0.2008
16302TIP3    H270398   5.451   1.014   4.742 -0.0510  0.1609 -1.2987
16303TIP3   OH270399   5.645   1.467   0.941  0.3910 -0.0162  0.1807
16303TIP3    H170400   5.653   1.544   0.997 -1.5592  0.0540  0.3985
16303TIP3    H270401   5.730   1.461   0.897  0.3900  2.6321 -0.3017
16304TIP3   OH270402   4.395   1.719   5.333  0.2015  0.1615 -0.4080
16304TIP3    H170403   4.322   1.772   5.301  0.1212  1.2460  1.4918
16304TIP3    H270404   4.469   1.745   5.278 -0.5783 -0.1324 -1.6110
16305TIP3   OH270405   2.456   6.119  10.831 -0.0888  0.2367  0.2698
16305TIP3    H170406   2.372   6.104  10.873  1.0777  0.7311  2.8854
16305TIP3    H270407   2.434   6.150  10.743 -2.6229  0.8995  1.1057
16306TIP3   OH270408   0.156   5.015  12.424 -0.2533 -0.0046  0.6069
16306TIP3    H170409   0.184   4.964  12.348  0.2667  0.2068  0.6583
16306TIP3    H270410   0.061   5.003  12.427 -0.1964 -0.5433  0.3099
16307TIP3   OH270411   3.237   3.607  11.666 -0.1096  0.1530  0.0291
16307TIP3    H170412   3.322   3.575  11.637  0.5200  1.4689  0.4034
16307TIP3    H270413   3.196   3.640  11.586  0.4297  1.0835  0.1319
16308TIP3   OH270414   1.235   1.588  14.838  0.5013  0.6105  0.4807
16308TIP3    H170415   1.204   1.500  14.859  1.5879  0.5140  1.7669
16308TIP3    H270416   1.193   1.644  14.903  0.6028  0.9084  0.2881
16309TIP3   OH270417   0.439   6.208   1.505 -0.2592  0.1310 -0.4249
16309TIP3    H170418   0.389   6.146   1.558  3.0868 -1.9969  0.4260
16309TIP3    H270419   0.465   6.277   1.566 -0.6630  0.3133 -0.4602
16310TIP3   OH270420   5.698   3.569  14.655 -0.2720  0.2715 -0.4454
16310TIP3    H170421   5.763   3.569  14.726 -0.9420 -2.4505  0.2025
16310TIP3    H270422   5.615   3.589  14.698 -0.4093  0.3247 -0.7359
16311TIP3   OH270423   1.774   1.961   2.850  0.3771  0.8300 -0.0025
16311TIP3    H170424   1.844   1.897   2.854  1.5846  2.1664  0.5555
16311TIP3    H270425   1.701   1.915   2.808  2.1743 -0.0264 -2.2426
16312TIP3   OH270426   2.981   6.256   3.000 -0.6338 -0.2384 -0.0240
16312TIP3    H170427   2.998   6.293   3.087  0.2833  0.1768 -0.3772
16312TIP3    H270428   3.019   6.168   3.004  0.1550  0.0896 -0.2781
16313TIP3   OH270429   5.213   3.274  14.839 -0.5226 -0.2485  0.7832
16313TIP3    H170430   5.283   3.218  14.805 -0.3979  0.2208  0.2535
16313TIP3    H270431   5.193   3.239  14.926 -0.2801 -0.9606  0.5475
16314TIP3   OH270432   1.207   5.744  14.963  0.3820  0.2962  0.7230
16314TIP3    H170433   1.285   5.788  14.995  0.1131  1.1106  0.2569
16314TIP3    H270434   1.211   5.656  15.002  1.4167  0.4051  0.8565
16315TIP3   OH270435   0.112   6.438  11.302  0.4597  0.5730  0.3214
16315TIP3    H170436   0.173   6.426  11.375 -1.4814 -3.8551  1.4290
16315TIP3    H270437   0.150   6.385  11.231 -1.5793 -1.5537  0.7629
16316TIP3   OH270438   0.165   1.015  11.484 -0.1496  0.7031 -0.5819
16316TIP3    H170439   0.199   1.104  11.484  0.2746  0.5454 -1.1682
16316TIP3    H270440   0.102   1.013  11.556 -0.4137  1.5696 -0.7848
16317TIP3   OH270441   2.912   1.746   5.639 -0.3029  0.0983 -0.1468
16317TIP3    H170442   2.871   1.671   5.681 -0.4613  0.1542 -0.2024
16317TIP3    H270443   2.987   1.710   5.593 -0.3047 -0.0074 -0.0672
16318TIP3   OH270444   5.152   2.381  15.824  0.3229  0.0120 -0.0034
16318TIP3    H170445   5.105   2.298  15.835 -0.5323  0.5019  0.0915
16318TIP3    H270446   5.088   2.439  15.783  0.9013  0.6477 -0.0128
16319TIP3   OH270447   4.815   4.462  13.853 -0.4085 -0.0695 -0.2269
16319TIP3    H170448   4.903   4.461  13.817 -0.0884 -1.7884  0.5851
16319TIP3    H270449   4.826   4.451  13.947 -1.6147 -3.8012 -0.4458
16320TIP3   OH270450   2.946   0.933   2.929  0.6429  0.0646 -0.1455
16320TIP3    H170451   2.947   0.904   3.020 -1.1778  0.7784  0.1262
16320TIP3    H270452   2.931   0.853   2.879  3.0596 -0.5499  0.0518
16321TIP3   OH270453   4.962   4.805   2.799  0.5780  0.3941  0.7586
16321TIP3    H170454   5.038   4.787   2.854  0.6988  1.6695  1.0367
16321TIP3    H270455   4.985   4.885   2.753 -1.7222  2.4740  3.0335
16322TIP3   OH270456   2.877   3.357  14.873  0.4224  0.0030  0.1372
16322TIP3    H170457   2.864   3.274  14.828  1.2745 -0.5609  0.8918
16322TIP3    H270458   2.822   3.420  14.826  0.5290 -0.7757 -1.0488
16323TIP3   OH270459   2.099   1.761  10.903 -0.3014 -0.4694 -0.2730
16323TIP3    H170460   2.068   1.838  10.856  1.0442 -0.7512 -1.6649
16323TIP3    H270461   2.020   1.725  10.944 -1.4200  0.1270 -1.8351
16324TIP3   OH270462   3.122   4.234   2.086  0.7958  0.1910 -0.3241
16324TIP3    H170463   3.072   4.184   2.151 -0.3992  1.6911 -0.0792
16324TIP3    H270464   3.080   4.319   2.083  1.9266  0.7199 -1.8169
16325TIP3   OH270465   1.682   4.359  15.104  0.2595 -0.6061 -0.0612
16325TIP3    H170466   1.653   4.292  15.166  0.3795 -0.0632  0.5921
16325TIP3    H270467   1.616   4.428  15.111  1.1733  0.2053  0.7260
16326TIP3   OH270468   1.457   1.625  13.393  0.5051  0.4234 -0.2383
16326TIP3    H170469   1.469   1.640  13.299  0.1384  1.8446 -0.0706
16326TIP3    H270470   1.458   1.713  13.431  1.5433 -0.1985  1.1972
16327TIP3   OH270471   3.290   4.399  11.185  0.1003  0.1601 -0.0016
16327TIP3    H170472   3.307   4.412  11.092  1.6660 -0.5697  0.1649
16327TIP3    H270473   3.298   4.305  11.199 -1.2576  0.1356  0.6570
16328TIP3   OH270474   0.574   3.019  11.602  0.0290 -0.4653 -0.4870
16328TIP3    H170475   0.599   3.111  11.611  0.8904 -0.7025 -0.3909
16328TIP3    H270476   0.532   3.014  11.516  1.1991 -0.2353 -1.0920
16329TIP3   OH270477   5.250   2.450  15.403 -0.3163 -0.0061 -0.4223
16329TIP3    H170478   5.198   2.522  15.437  0.9132  0.2491  0.9455
16329TIP3    H270479   5.313   2.430  15.472  0.0537 -1.6930 -1.2072
16330TIP3   OH270480   4.999   0.451  15.778 -0.1227 -0.0271  0.1039
16330TIP3    H170481   5.067   0.469  15.712 -0.7019 -1.2138 -0.8461
16330TIP3    H270482   5.002   0.526  15.837  1.2423  0.4781 -0.5868
16331TIP3   OH270483   0.313   6.709  15.287  0.4052 -0.5448 -0.0068
16331TIP3    H170484   0.370   6.674  15.219 -1.4368 -1.1079 -1.2797
16331TIP3    H270485   0.245   6.757  15.240  0.8111  1.6934  1.5602
16332TIP3   OH270486   1.370   2.678   3.825  0.2010  0.0491 -0.0612
16332TIP3    H170487   1.436   2.702   3.890 -0.9000  1.5374  0.5386
16332TIP3    H270488   1.287   2.707   3.864 -0.7932 -1.7221 -0.8407
16333TIP3   OH270489   1.053   5.556   4.304 -0.1774  0.2021  0.2987
16333TIP3    H170490   1.022   5.497   4.236 -0.7237  1.2595 -0.3766
16333TIP3    H270491   1.034   5.644   4.271  3.6776  0.9295 -0.2793
16334TIP3   OH270492   4.614   5.682   5.976  0.3163  0.0536  0.0503
16334TIP3    H170493   4.650   5.596   5.956 -1.8781 -0.6338 -1.1007
16334TIP3    H270494   4.653   5.740   5.911  0.3802 -0.4309 -0.3526
16335TIP3   OH270495   3.692   5.819   1.124 -0.3114  0.1978  0.4762
16335TIP3    H170496   3.768   5.761   1.119 -0.7052 -0.4562  1.8933
16335TIP3    H270497   3.635   5.791   1.052 -0.5530 -1.2407  1.2300
16336TIP3   OH270498   6.133   2.442   3.098 -0.3552 -0.3570 -0.1972
16336TIP3    H170499   6.103   2.417   3.186 -0.7051 -1.5261 -0.6504
16336TIP3    H270500   6.182   2.523   3.113 -2.0929  0.5598  0.8174
16337TIP3   OH270501   2.366   0.041  12.692  0.4560 -0.2589  0.3693
16337TIP3    H170502   2.444   0.052  12.638 -0.0493  0.8044 -0.1526
16337TIP3    H270503   2.379   0.101  12.766  1.2687 -1.9021  1.5913
16338TIP3   OH270504   2.447   1.819   6.521  0.0465 -0.4249  0.5190
16338TIP3    H170505   2.462   1.821   6.427  0.1379 -1.5763  0.5028
16338TIP3    H270506   2.367   1.869   6.535  0.1127 -0.1381 -0.1495
16339TIP3   OH270507   1.751   2.239   1.883  0.6181 -0.2380 -0.0023
16339TIP3    H170508   1.805   2.243   1.962  1.8125  0.2356 -0.8294
16339TIP3    H270509   1.676   2.296   1.903  0.3379 -1.0127  1.2065
16340TIP3   OH270510   6.448   2.014  15.719  0.2920 -0.5546  0.2447
16340TIP3    H170511   6.397   1.941  15.684 -1.2081 -0.1183  1.5004
16340TIP3    H270512   6.441   2.083  15.653 -2.1032  0.0830  1.1255
16341TIP3   OH270513   2.926   1.303   6.276 -0.0449  0.2681 -0.0331
16341TIP3    H170514   2.972   1.322   6.357 -0.4266 -2.3395  0.8419
16341TIP3    H270515   2.833   1.309   6.299 -0.2102 -3.7612  0.6378
16342TIP3   OH270516   1.959   1.464  13.798  0.7440  0.0136 -0.1502
16342TIP3    H170517   2.002   1.382  13.772  0.9564  0.6025 -1.7335
16342TIP3    H270518   1.869   1.438  13.819  0.4220 -0.4511 -1.9742
16343TIP3   OH270519   4.052   1.252  16.283  0.0629 -0.5780 -0.4858
16343TIP3    H170520   4.107   1.327  16.261 -0.1413 -0.3900 -0.3623
16343TIP3    H270521   3.975   1.290  16.325  0.6097 -0.9436  0.8859
16344TIP3   OH270522   1.683   0.646  13.687  0.2148  0.1420  0.2820
16344TIP3    H170523   1.684   0.739  13.663  0.3056 -0.4810 -2.2254
16344TIP3    H270524   1.602   0.612  13.648 -1.3420 -0.2648  3.6449
16345TIP3   OH270525   4.431   6.346   1.455  0.2506 -0.0099  0.0392
16345TIP3    H170526   4.420   6.440   1.438 -0.3945  0.2102  1.5891
16345TIP3    H270527   4.511   6.323   1.408 -0.3198  1.0148 -1.4697
16346TIP3   OH270528   1.186   1.992   3.753 -0.3286  0.2357  0.1644
16346TIP3    H170529   1.098   1.985   3.790 -0.2864 -0.4993  0.1487
16346TIP3    H270530   1.241   1.943   3.815  0.1274  0.9748  0.3529
16347TIP3   OH270531   4.663   5.112   0.031  0.1700  0.2597  0.0703
16347TIP3    H170532   4.661   5.207   0.038 -3.7507  0.4842 -2.7187
16347TIP3    H270533   4.739   5.093  -0.023  2.9291  1.4800  3.3202
16348TIP3   OH270534   1.185   6.228   2.439 -0.3087  0.7939 -0.7136
16348TIP3    H170535   1.200   6.289   2.511  0.1181  1.9380 -1.7374
16348TIP3    H270536   1.095   6.244   2.411 -0.7865 -0.3127  0.1627
16349TIP3   OH270537   2.299   4.806  12.038  0.3578  0.0047 -0.3429
16349TIP3    H170538   2.308   4.873  12.106  1.8017  0.7576 -1.2344
16349TIP3    H270539   2.243   4.739  12.077  2.3522 -0.2914  2.1477
16350TIP3   OH270540   6.305   1.520  12.126  0.0115 -0.8178 -0.5815
16350TIP3    H170541   6.254   1.577  12.184 -0.9462 -1.0816 -1.1642
16350TIP3    H270542   6.249   1.443  12.113  0.7027 -1.2590 -0.9477
16351TIP3   OH270543   6.739   3.791   4.826  0.1407 -0.0139  0.5666
16351TIP3    H170544   6.704   3.864   4.775 -0.6849 -1.4172 -0.9072
16351TIP3    H270545   6.828   3.778   4.793  0.1117 -0.0126  0.4875
16352TIP3   OH270546   3.826   5.457   1.635 -0.4395  0.3139  0.0007
16352TIP3    H170547   3.829   5.542   1.591  1.0744 -0.3110 -1.1458
16352TIP3    H270548   3.918   5.433   1.648 -0.8311 -1.6466 -0.6766
16353TIP3   OH270549   3.029   6.802   3.303 -0.6786  0.1451 -0.3321
16353TIP3    H170550   3.078   6.728   3.339 -1.2048 -0.2778 -0.4824
16353TIP3    H270551   2.993   6.847   3.380  1.7455  1.7392 -0.0701
16354TIP3   OH270552   4.206   0.473   3.141 -0.5035  0.0036 -0.6558
16354TIP3    H170553   4.148   0.522   3.199 -0.5991 -1.2527  0.3324
16354TIP3    H270554   4.278   0.533   3.122 -1.0617  0.8318 -0.1861
16355TIP3   OH270555   5.122   5.043   5.110 -0.3173  0.1835 -0.5080
16355TIP3    H170556   5.199   5.083   5.149  0.1981  0.5006 -1.8327
16355TIP3    H270557   5.050   5.103   5.133 -0.1832 -0.0843  0.6670
16356TIP3   OH270558   3.542   3.766   0.111  0.0808  0.4102 -0.1973
16356TIP3    H170559   3.485   3.745   0.185 -0.1401  1.7479  0.0130
16356TIP3    H270560   3.482   3.772   0.037  0.3242 -1.1227 -0.5477
16357TIP3   OH270561   6.513   3.936  13.144 -0.0465  0.4703 -0.3794
16357TIP3    H170562   6.427   3.916  13.106 -0.2382  1.1382 -0.3114
16357TIP3    H270563   6.526   4.029  13.125  0.1703  0.6438  0.5570
16358TIP3   OH270564   3.969   2.135   4.970  0.0354 -0.1227 -0.3083
16358TIP3    H170565   4.021   2.214   4.978  0.4585 -0.3131 -1.0511
16358TIP3    H270566   3.980   2.090   5.054  0.0001  0.4770  0.0193
16359TIP3   OH270567   5.104   5.664  13.544 -0.7125 -0.1967  0.1079
16359TIP3    H170568   5.196   5.689  13.553  0.2828 -2.9987 -1.6552
16359TIP3    H270569   5.074   5.650  13.633  0.9729 -0.6281  0.6201
16360TIP3   OH270570   3.279   4.402   5.418 -0.1774 -0.1259  0.0388
16360TIP3    H170571   3.258   4.464   5.349  0.0950  0.7311  0.7229
16360TIP3    H270572   3.334   4.336   5.376  0.6815  0.8441 -0.3696
16361TIP3   OH270573   0.937   5.383   2.905  0.0949 -0.2741 -0.1165
16361TIP3    H170574   0.890   5.435   2.970  0.2291 -1.1947  0.7261
16361TIP3    H270575   0.915   5.293   2.926  0.9412 -0.6280 -0.7285
16362TIP3   OH270576   3.878   4.980  15.280  0.0771 -0.5030 -0.4368
16362TIP3    H170577   3.954   4.932  15.248  0.0225 -1.2159  0.4558
16362TIP3    H270578   3.839   5.019  15.202  0.3967 -1.5246 -1.1149
16363TIP3   OH270579   3.006   1.609   3.168 -0.0681 -0.3920  0.9110
16363TIP3    H170580   3.098   1.599   3.143 -0.4690 -1.1887 -0.3024
16363TIP3    H270581   3.009   1.636   3.260  1.3847  0.1446  0.7226
16364TIP3   OH270582   2.870   1.202   5.719 -0.4575 -0.1030 -0.0256
16364TIP3    H170583   2.933   1.221   5.787 -0.8008 -0.4501  0.3924
16364TIP3    H270584   2.807   1.142   5.760 -0.6963 -0.2686 -0.6234
16365TIP3   OH270585   0.582   0.126  16.983  0.1834 -0.2598  0.2787
16365TIP3    H170586   0.661   0.169  17.016 -0.2596  0.7040  0.1276
16365TIP3    H270587   0.512   0.158  17.039 -0.0393 -1.4656  0.6962
16366TIP3   OH270588   6.137   5.636   1.933 -0.2296 -0.0463 -0.2664
16366TIP3    H170589   6.070   5.570   1.914 -0.6718 -0.1008  1.4100
16366TIP3    H270590   6.215   5.586   1.957 -1.0571 -0.0172  2.7070
16367TIP3   OH270591   0.938   6.191   2.291 -0.3535  0.3057  0.1627
16367TIP3    H170592   0.877   6.135   2.339  0.9174 -1.2006  0.0673
16367TIP3    H270593   0.899   6.199   2.204 -0.5956 -0.3698  0.2023
16368TIP3   OH270594   0.759   4.746  17.077  0.2988 -0.0046  0.7327
16368TIP3    H170595   0.730   4.752  16.986 -2.1553 -1.1837  1.4010
16368TIP3    H270596   0.841   4.698  17.073 -2.2449 -4.4827 -0.4769
16369TIP3   OH270597   2.457   6.577   6.271 -0.5391 -0.3054 -0.0597
16369TIP3    H170598   2.515   6.552   6.344 -0.4382 -0.8515 -0.3224
16369TIP3    H270599   2.428   6.665   6.293  0.9360  0.2492 -0.2511
16370TIP3   OH270600   5.378   5.974  10.519  0.1970  0.3500 -0.1550
16370TIP3    H170601   5.342   6.062  10.525  1.1297  0.6307  1.5656
16370TIP3    H270602   5.343   5.928  10.595  2.1890  0.1549  0.6611
16371TIP3   OH270603   2.164   0.992   1.284 -0.2755  0.1129  0.1928
16371TIP3    H170604   2.182   1.067   1.228  0.7018 -0.6403 -0.5220
16371TIP3    H270605   2.249   0.966   1.318 -0.6296 -0.5172  0.6222
16372TIP3   OH270606   6.202   0.098  15.988  0.0068  0.5190 -0.0005
16372TIP3    H170607   6.246   0.094  15.903 -1.4006  0.6256 -0.7572
16372TIP3    H270608   6.119   0.052  15.974 -1.5723  3.1125  0.4555
16373TIP3   OH270609   5.398   3.144  13.342  0.0041  0.8805  0.6886
16373TIP3    H170610   5.477   3.197  13.350  0.6452  0.0671 -0.2311
16373TIP3    H270611   5.353   3.180  13.265  0.9306 -0.5243 -0.5331
16374TIP3   OH270612   6.478   5.901  12.968  0.0614  0.4841  0.1954
16374TIP3    H170613   6.467   5.831  12.904 -0.2536  0.6106  0.1099
16374TIP3    H270614   6.564   5.885  13.006  0.3826  0.5840 -0.4753
16375TIP3   OH270615   0.225   2.301  15.073  0.4341 -0.5534 -0.0859
16375TIP3    H170616   0.158   2.247  15.031  1.3553 -1.8860  0.1312
16375TIP3    H270617   0.219   2.386  15.028 -2.2448 -0.2325  0.8036
16376TIP3   OH270618   4.599   5.962  11.748  0.0108  0.0940 -0.6321
16376TIP3    H170619   4.627   6.007  11.668 -1.0763 -0.3966 -1.3083
16376TIP3    H270620   4.541   6.025  11.791  0.5221  0.3215 -0.2733
16377TIP3   OH270621   5.010   1.767   0.615 -0.6994  0.1887  0.2481
16377TIP3    H170622   4.993   1.861   0.613  1.6148  0.6556  0.9680
16377TIP3    H270623   4.979   1.736   0.530 -0.3728  1.8042 -0.4892
16378TIP3   OH270624   4.604   1.609   4.012 -0.5503  0.1658  0.4349
16378TIP3    H170625   4.583   1.535   3.955 -0.2507 -1.2858  2.1818
16378TIP3    H270626   4.699   1.618   4.005 -0.5672  0.2914  0.3589
16379TIP3   OH270627   3.517   5.592  16.573 -0.1624  0.0785 -0.0514
16379TIP3    H170628   3.490   5.546  16.652 -0.0951 -1.1077 -0.7172
16379TIP3    H270629   3.438   5.597  16.519 -0.0780  0.3954 -0.1452
16380TIP3   OH270630   2.525   1.765  13.426 -0.2977 -0.0209  0.7885
16380TIP3    H170631   2.579   1.818  13.484  0.4200 -0.5688  0.6290
16380TIP3    H270632   2.435   1.787  13.450 -0.0114  1.6278  0.3980
16381TIP3   OH270633   5.835   3.521  14.434 -0.2353 -0.0817 -0.4380
16381TIP3    H170634   5.915   3.474  14.457 -0.7364 -1.4709 -1.4873
16381TIP3    H270635   5.799   3.550  14.517  0.7784 -0.4173  0.1194
16382TIP3   OH270636   6.122   4.622  17.014  0.1182  0.5410 -0.5808
16382TIP3    H170637   6.208   4.603  17.050 -0.1883 -0.7119 -0.4813
16382TIP3    H270638   6.109   4.556  16.946 -0.9678  0.4190 -0.2688
16383TIP3   OH270639   2.658   1.024  14.564 -0.0536 -0.9021 -0.6161
16383TIP3    H170640   2.678   1.075  14.485 -0.9486  0.9819  0.3499
16383TIP3    H270641   2.742   0.987  14.591  0.9372  1.4189 -0.4074
16384TIP3   OH270642   5.341   0.459  13.451 -0.6164  0.0555  0.1057
16384TIP3    H170643   5.420   0.414  13.421  0.0440  1.3850 -0.1763
16384TIP3    H270644   5.347   0.547  13.412 -1.1165  0.8908  1.8594
16385TIP3   OH270645   4.862   4.330   3.238 -0.5110 -0.1894 -0.6444
16385TIP3    H170646   4.796   4.290   3.294  0.2803 -0.7870 -0.1336
16385TIP3    H270647   4.915   4.383   3.298  0.8534 -1.4916 -0.6871
16386TIP3   OH270648   0.235   2.472   6.063 -0.1566  0.0216 -0.3089
16386TIP3    H170649   0.192   2.531   6.124  0.2535  0.5965 -0.5760
16386TIP3    H270650   0.171   2.457   5.994 -0.8063 -1.0174  0.4938
16387TIP3   OH270651   1.730   2.703  12.609  0.1806 -0.3036  0.9016
16387TIP3    H170652   1.673   2.774  12.637  0.2687  0.6955 -1.3141
16387TIP3    H270653   1.715   2.633  12.672 -1.0776  1.1170  2.2062
16388TIP3   OH270654   0.460   2.663   4.696 -0.0073  0.4476  0.0448
16388TIP3    H170655   0.437   2.587   4.749  0.5497 -0.3068 -0.7747
16388TIP3    H270656   0.556   2.667   4.701 -0.0433  1.2042  0.2222
16389TIP3   OH270657   3.639   4.777  13.789 -0.0825 -0.4683 -0.3356
16389TIP3    H170658   3.716   4.828  13.765 -0.6983  0.1933 -0.9739
16389TIP3    H270659   3.658   4.743  13.876  1.5364 -1.5471 -1.0808
16390TIP3   OH270660   1.921   4.078  16.066 -0.1523 -0.4145 -0.6393
16390TIP3    H170661   1.844   4.079  16.123  0.7800 -1.0408  0.6388
16390TIP3    H270662   1.932   3.986  16.044 -0.2489 -0.2244 -1.4945
16391TIP3   OH270663   5.938   1.797   1.681  0.1635 -0.2284 -0.0634
16391TIP3    H170664   5.950   1.718   1.733  0.4186  0.8768  1.5882
16391TIP3    H270665   5.999   1.860   1.719 -0.3966  0.9285 -1.0551
16392TIP3   OH270666   0.105   1.178  15.498  0.1111 -0.1294  0.2187
16392TIP3    H170667   0.031   1.237  15.509 -0.7047 -1.0621 -0.1692
16392TIP3    H270668   0.082   1.126  15.420  0.1302 -1.9418  1.3924
16393TIP3   OH270669   6.241   5.287   5.414 -0.4293 -0.2735  0.2511
16393TIP3    H170670   6.261   5.363   5.469  0.7693 -0.2766 -0.1601
16393TIP3    H270671   6.327   5.251   5.390 -0.9685 -1.2378 -0.2754
16394TIP3   OH270672   0.152   5.608   0.861  0.0238  0.1617  0.7940
16394TIP3    H170673   0.222   5.672   0.874  0.4811 -0.1942  0.0917
16394TIP3    H270674   0.150   5.594   0.767 -0.5797 -0.2990  0.8758
16395TIP3   OH270675   6.134   0.723  13.624  0.0347 -0.2279 -0.4902
16395TIP3    H170676   6.182   0.791  13.575 -0.7662  0.8728  0.2310
16395TIP3    H270677   6.170   0.729  13.713 -2.5523  1.7590  0.4917
16396TIP3   OH270678   5.827   3.792   1.479  0.1042 -0.0118  0.3377
16396TIP3    H170679   5.873   3.875   1.466 -0.9367  0.4994 -0.0797
16396TIP3    H270680   5.766   3.786   1.406  0.3709 -1.2869  0.2092
16397TIP3   OH270681   0.465   5.106   4.678 -0.0826 -0.5753  0.2740
16397TIP3    H170682   0.551   5.124   4.717 -1.9200  0.6046  3.9230
16397TIP3    H270683   0.474   5.134   4.587  2.7516  1.4741  1.1183
16398TIP3   OH270684   1.596   5.643   0.836 -0.4020  0.0917  0.4781
16398TIP3    H170685   1.582   5.618   0.927 -1.7137  0.5793  0.4197
16398TIP3    H270686   1.535   5.590   0.785  1.0590 -0.9368 -0.2336
16399TIP3   OH270687   1.381   1.494   4.359  0.1423 -0.1542 -0.2645
16399TIP3    H170688   1.415   1.566   4.412  0.4172  0.2162 -0.9443
16399TIP3    H270689   1.290   1.486   4.386  0.4274 -0.3143  0.6497
16400TIP3   OH270690   1.773   5.828  13.164 -0.1462 -0.1938  0.2735
16400TIP3    H170691   1.799   5.799  13.077 -0.1476 -0.1547  0.2607
16400TIP3    H270692   1.730   5.912  13.151 -0.0944 -0.1595  0.3182
16401TIP3   OH270693   5.801   1.957   1.462 -0.5943 -0.6246 -0.3709
16401TIP3    H170694   5.859   1.917   1.526  0.1635  0.1497 -0.5474
16401TIP3    H270695   5.857   2.022   1.417 -0.9927 -1.4140 -2.0621
16402TIP3   OH270696   5.079   0.105   6.035  0.8897  0.2520  0.1958
16402TIP3    H170697   5.019   0.055   5.980  1.8101  1.8281 -2.3159
16402TIP3    H270698   5.094   0.049   6.111 -3.7975 -0.1543  0.9618
16403TIP3   OH270699   0.070   5.483  12.224  0.4128  0.3969 -0.3974
16403TIP3    H170700   0.165   5.469  12.221  0.1435 -1.4983 -0.6214
16403TIP3    H270701   0.040   5.466  12.135 -0.4269 -1.3189  0.1902
16404TIP3   OH270702   6.688   2.989  16.286 -0.2619  0.3088  0.3706
16404TIP3    H170703   6.658   3.015  16.199 -1.1705 -0.0688  0.5676
16404TIP3    H270704   6.667   2.896  16.292  2.6018 -0.4189 -0.1783
16405TIP3   OH270705   5.207   3.155  15.766 -1.3884 -0.0341 -0.1197
16405TIP3    H170706   5.209   3.197  15.852 -3.2698  0.4206 -0.2743
16405TIP3    H270707   5.289   3.106  15.761 -0.3685  1.5019  1.1409
16406TIP3   OH270708   1.165   4.731   2.852 -0.6585 -0.0494 -0.4543
16406TIP3    H170709   1.078   4.771   2.863 -1.4617 -0.5780 -4.1542
16406TIP3    H270710   1.146   4.641   2.827  0.9578 -0.1815 -1.2294
16407TIP3   OH270711   0.748   3.999   2.343 -0.0992 -0.3236  0.4787
16407TIP3    H170712   0.700   4.018   2.262  0.5757 -1.0036 -0.0853
16407TIP3    H270713   0.711   4.060   2.407 -1.8627 -0.9815  0.1096
16408TIP3   OH270714   3.642   3.625  13.075 -0.1249  0.2579  0.5512
16408TIP3    H170715   3.685   3.582  13.149 -0.8118 -0.4687  0.5268
16408TIP3    H270716   3.567   3.671  13.114  0.7232  1.6248  0.6123
16409TIP3   OH270717   0.044   2.510  12.182 -0.1280 -0.0325 -0.1113
16409TIP3    H170718  -0.016   2.448  12.141  0.8242  0.5199 -2.4184
16409TIP3    H270719   0.120   2.457  12.208 -0.6366 -0.3449  0.7558
16410TIP3   OH270720   3.731   6.597   2.732 -0.2813  0.0667 -0.2408
16410TIP3    H170721   3.789   6.620   2.805 -1.7251  0.1507  0.9047
16410TIP3    H270722   3.701   6.509   2.753 -1.9086  0.6831  0.0627
16411TIP3   OH270723   6.565   6.502   5.749 -0.0228 -0.0502 -0.5754
16411TIP3    H170724   6.634   6.480   5.812 -0.1540  3.0699  0.7393
16411TIP3    H270725   6.597   6.581   5.706 -2.0296  0.4430 -1.1773
16412TIP3   OH270726   2.691   4.124   3.142 -0.6861  0.4987 -0.0071
16412TIP3    H170727   2.760   4.106   3.078 -1.1308 -0.3723 -0.2457
16412TIP3    H270728   2.710   4.213   3.173 -0.8131  1.1640 -1.7886
16413TIP3   OH270729   3.788   5.301   5.787 -0.5605 -0.6681 -0.3736
16413TIP3    H170730   3.823   5.278   5.873  0.0043  2.0197  0.1576
16413TIP3    H270731   3.763   5.393   5.795  1.0234  0.1031 -3.5759
16414TIP3   OH270732   2.358   4.199   1.332  0.0500 -0.1145 -0.2866
16414TIP3    H170733   2.289   4.263   1.348  0.8230 -0.0589  3.1936
16414TIP3    H270734   2.439   4.251   1.325  0.4500 -0.5771  0.8619
16415TIP3   OH270735   2.992   4.390  14.715 -0.0562 -0.2967 -0.2774
16415TIP3    H170736   2.904   4.372  14.748 -0.2200  1.0237  0.0443
16415TIP3    H270737   2.977   4.442  14.636  0.3930 -1.7800 -1.3627
16416TIP3   OH270738   5.286   6.165  10.812 -0.9577 -0.1452 -0.2766
16416TIP3    H170739   5.234   6.244  10.826  0.1579  0.1490  2.4402
16416TIP3    H270740   5.244   6.122  10.737 -1.6236  2.9428 -1.7594
16417TIP3   OH270741   3.471   6.234   4.257  0.2426 -0.1702  0.0866
16417TIP3    H170742   3.437   6.146   4.272 -0.1412  0.1979  1.4403
16417TIP3    H270743   3.537   6.222   4.188 -2.0469 -0.9943 -2.0628
16418TIP3   OH270744   0.727   6.183   5.948 -0.0970  0.3702  0.1261
16418TIP3    H170745   0.678   6.245   6.002  0.2379 -0.1301  1.0126
16418TIP3    H270746   0.684   6.099   5.962 -0.4574  0.3658 -0.9580
16419TIP3   OH270747   3.262   6.353  14.543  0.1314 -0.1421  0.1895
16419TIP3    H170748   3.357   6.348  14.544  0.2000  0.8500  2.7441
16419TIP3    H270749   3.243   6.436  14.501  0.3505 -0.6383 -0.9161
16420TIP3   OH270750   4.226   6.242  13.080 -0.3729 -0.0168 -0.0994
16420TIP3    H170751   4.226   6.147  13.066 -0.9863 -0.1767  0.9180
16420TIP3    H270752   4.142   6.271  13.046  0.1936  0.3056 -1.2530
16421TIP3   OH270753   2.906   4.269   6.079 -0.5813  0.2943 -0.9406
16421TIP3    H170754   2.914   4.178   6.108 -0.6554 -0.0239 -1.8891
16421TIP3    H270755   2.835   4.305   6.131 -0.1664 -0.0254 -0.1485
16422TIP3   OH270756   3.249   1.482   0.976  0.0489 -0.2498 -0.2881
16422TIP3    H170757   3.326   1.482   0.919  0.2350  0.5758 -0.0480
16422TIP3    H270758   3.230   1.390   0.990  0.9631 -0.4631 -0.3974
16423TIP3   OH270759   2.296   3.648   2.874  0.1471  0.3210 -0.0533
16423TIP3    H170760   2.242   3.650   2.794  1.4594  0.5166 -0.9608
16423TIP3    H270761   2.384   3.627   2.842  1.1328  2.5975  1.0918
16424TIP3   OH270762   0.876   6.522  17.219  0.0708 -0.3182 -0.3756
16424TIP3    H170763   0.865   6.431  17.247  1.5462 -0.8355 -1.4141
16424TIP3    H270764   0.818   6.531  17.144  2.1672 -1.3322 -2.1896
16425TIP3   OH270765   0.540   3.699   3.948 -0.2510  0.6848 -0.2290
16425TIP3    H170766   0.622   3.649   3.958  0.1169  1.2425 -0.4398
16425TIP3    H270767   0.521   3.732   4.036  0.0575  1.0408 -0.2996
16426TIP3   OH270768   2.644   5.952   4.059 -0.0651  0.0080 -0.0235
16426TIP3    H170769   2.612   6.035   4.023  0.4356  0.2240  0.0209
16426TIP3    H270770   2.578   5.888   4.034 -0.7540  0.5241  0.4528
16427TIP3   OH270771   4.559   0.754  11.846 -0.2002  0.5048  0.5754
16427TIP3    H170772   4.467   0.756  11.872 -0.2596  0.5222  0.3635
16427TIP3    H270773   4.557   0.767  11.751 -0.1455 -2.0106  0.1860
16428TIP3   OH270774   5.540   3.877  13.934 -0.0739  0.0474  0.0980
16428TIP3    H170775   5.467   3.852  13.991  0.3472 -0.9801  0.1943
16428TIP3    H270776   5.544   3.808  13.868 -0.5627  1.2372 -1.1988
16429TIP3   OH270777   4.858   3.620   1.082 -0.1502 -0.0996 -0.8480
16429TIP3    H170778   4.832   3.535   1.119 -1.2796  0.4826 -0.3124
16429TIP3    H270779   4.954   3.616   1.080 -0.2483 -2.3396 -3.0657
16430TIP3   OH270780   3.883   5.517  13.763 -0.2199 -0.1261  0.5202
16430TIP3    H170781   3.853   5.509  13.672  2.9869  1.3544 -0.7470
16430TIP3    H270782   3.808   5.489  13.815 -2.5886  0.1960 -2.5392
16431TIP3   OH270783   6.265   6.601   5.356 -0.1078  0.0436 -0.5619
16431TIP3    H170784   6.336   6.548   5.393  0.4713  1.6855  0.7084
16431TIP3    H270785   6.225   6.644   5.431 -0.9912  0.9138 -1.5116
16432TIP3   OH270786   2.744   5.643  12.222  0.0097  0.1390 -0.0239
16432TIP3    H170787   2.798   5.615  12.147  1.1752  0.6814  0.5918
16432TIP3    H270788   2.688   5.568  12.241  1.1011 -0.7403 -0.1968
16433TIP3   OH270789   2.541   5.954  14.149 -0.5984  0.0330 -0.7949
16433TIP3    H170790   2.632   5.954  14.180 -1.7140  0.0665  2.6190
16433TIP3    H270791   2.525   6.045  14.125  0.3092 -0.0093 -1.6338
16434TIP3   OH270792   4.838   3.611  12.686  0.3066 -0.7162 -0.0783
16434TIP3    H170793   4.902   3.681  12.691  1.1548 -1.5333  0.4520
16434TIP3    H270794   4.753   3.656  12.692  0.7509  0.5172 -2.1946
16435TIP3   OH270795   4.237   4.075   4.229 -0.2840  0.0120 -0.0825
16435TIP3    H170796   4.333   4.072   4.227 -0.3130 -1.0222 -0.0678
16435TIP3    H270797   4.213   4.030   4.310 -0.7424  1.4769  0.6217
16436TIP3   OH270798   3.435   0.888  14.400  0.2313 -0.1254  0.2860
16436TIP3    H170799   3.442   0.952  14.329  0.8590  0.3623  0.7809
16436TIP3    H270800   3.505   0.826  14.384 -0.8433 -1.1201 -0.6122
16437TIP3   OH270801   5.455   6.540   5.390  0.3184  0.0860 -0.4065
16437TIP3    H170802   5.447   6.624   5.345 -0.7552  0.7096  0.9052
16437TIP3    H270803   5.451   6.562   5.483  0.4536 -1.3788 -0.0361
16438TIP3   OH270804   3.168   1.793  14.051  0.5780  0.2263 -0.3707
16438TIP3    H170805   3.090   1.742  14.030 -1.2251  2.7296 -0.0754
16438TIP3    H270806   3.215   1.741  14.117 -2.0738 -0.2791  1.1907
16439TIP3   OH270807   3.826   3.498   6.209 -0.1568 -0.0200 -0.9155
16439TIP3    H170808   3.777   3.419   6.230 -0.2037  0.3688  0.5000
16439TIP3    H270809   3.769   3.570   6.237  0.8554  0.4605 -0.0334
16440TIP3   OH270810   6.031   2.974   1.876  0.5885  0.0167 -0.2398
16440TIP3    H170811   6.125   2.971   1.895  0.3335 -0.6393  0.9986
16440TIP3    H270812   6.002   2.883   1.888 -0.6685  0.6629  1.9120
16441TIP3   OH270813   2.457   5.912   4.862  0.1989  0.2412 -0.1904
16441TIP3    H170814   2.399   5.967   4.809  0.5581  0.7211 -0.0955
16441TIP3    H270815   2.543   5.953   4.852  0.4173 -0.1476  0.1053
16442TIP3   OH270816   5.674   0.674  15.673 -0.0383  0.1403 -0.3483
16442TIP3    H170817   5.637   0.591  15.642 -2.6165  1.2993 -0.4793
16442TIP3    H270818   5.689   0.725  15.593 -3.1452  1.6605 -0.0684
16443TIP3   OH270819   5.824   1.642   4.186  0.4089 -0.4401 -0.3191
16443TIP3    H170820   5.740   1.676   4.159 -0.5212 -0.6206  2.2296
16443TIP3    H270821   5.875   1.719   4.213  1.2628 -0.2809 -2.2753
16444TIP3   OH270822   6.110   5.001  14.679  0.6692  0.3985  0.1169
16444TIP3    H170823   6.103   5.022  14.586 -0.9591 -0.7549 -0.0450
16444TIP3    H270824   6.130   4.907  14.681 -0.9897  0.0466  0.9289
16445TIP3   OH270825   3.901   1.102  13.314 -0.1342  0.1817 -0.0349
16445TIP3    H170826   3.853   1.159  13.374 -1.1389  1.0701 -1.6628
16445TIP3    H270827   3.886   1.013  13.348 -0.0876  0.7196  1.4321
16446TIP3   OH270828   0.287   2.539   3.790  0.8724  0.2884 -0.0176
16446TIP3    H170829   0.224   2.610   3.794  0.9157  0.3210  0.0732
16446TIP3    H270830   0.280   2.505   3.700 -0.1097 -0.4739  0.3388
16447TIP3   OH270831   3.539   4.033   0.636  0.4632  0.2723  0.1288
16447TIP3    H170832   3.506   4.073   0.716 -0.9695 -0.3086 -0.1537
16447TIP3    H270833   3.498   3.946   0.633  0.6256  0.2217 -1.1430
16448TIP3   OH270834   2.161   4.531  15.830 -0.3233  1.4726  0.2066
16448TIP3    H170835   2.227   4.493  15.772 -0.5273 -0.4990  1.2091
16448TIP3    H270836   2.077   4.504  15.792 -0.5070  2.0985  0.1602
16449TIP3   OH270837   5.784   1.936  16.559  0.3606 -1.0770  0.6851
16449TIP3    H170838   5.729   1.981  16.623 -0.3983 -1.6523  0.4391
16449TIP3    H270839   5.860   1.994  16.548  0.5270 -0.9973  2.1408
16450TIP3   OH270840   1.473   1.263  14.761 -0.3868 -0.1136  0.0734
16450TIP3    H170841   1.418   1.263  14.682 -1.8883  0.8291  1.0731
16450TIP3    H270842   1.437   1.334  14.815  0.9016 -0.4372  1.3976
16451TIP3   OH270843   3.944   0.617  11.643 -0.8067  0.1812 -0.5610
16451TIP3    H170844   3.953   0.664  11.726  0.1360 -2.4008  0.8568
16451TIP3    H270845   3.931   0.686  11.578  0.6979  2.4250  1.4084
16452TIP3   OH270846   3.956   0.181   6.403 -0.3861  0.0305 -0.0240
16452TIP3    H170847   3.986   0.199   6.492  0.2201  0.1662 -0.2565
16452TIP3    H270848   3.870   0.223   6.398 -0.8382 -0.7715  0.7956
16453TIP3   OH270849   2.645   1.628   3.772  0.2964  0.0207  0.1573
16453TIP3    H170850   2.614   1.539   3.789 -0.7488 -0.1039 -2.2782
16453TIP3    H270851   2.586   1.684   3.822 -0.2016 -0.5315  0.1912
16454TIP3   OH270852   0.779   6.061   4.178 -0.4247  0.1429 -0.5490
16454TIP3    H170853   0.765   6.156   4.168 -0.6541  0.1948  0.2148
16454TIP3    H270854   0.845   6.054   4.247 -0.1214 -0.2473 -0.8769
16455TIP3   OH270855   5.231   2.942   3.550 -0.7722 -0.1267  0.4039
16455TIP3    H170856   5.277   3.023   3.527  0.6776 -1.2082 -0.6412
16455TIP3    H270857   5.301   2.879   3.568 -1.8757 -1.1838  1.1042
16456TIP3   OH270858   2.650   5.036   0.705  0.4301 -0.8900  0.0927
16456TIP3    H170859   2.650   5.083   0.789 -0.3714 -1.2867  0.3236
16456TIP3    H270860   2.593   4.960   0.720 -0.2369 -0.6197 -0.9980
16457TIP3   OH270861   4.533   5.358   3.268 -0.1654 -0.3557  0.1894
16457TIP3    H170862   4.458   5.407   3.303 -0.4441 -1.2706  0.9099
16457TIP3    H270863   4.495   5.273   3.242  0.6093 -0.7960  0.4961
16458TIP3   OH270864   1.401   0.156   1.564  0.5247  0.1813 -0.7852
16458TIP3    H170865   1.409   0.123   1.475  2.8559  1.6628 -1.1704
16458TIP3    H270866   1.427   0.248   1.558 -2.9897  1.4035  0.7587
16459TIP3   OH270867   1.316   4.143  16.346  0.0736  0.4177 -0.5323
16459TIP3    H170868   1.231   4.127  16.305  0.5523 -0.4917 -1.1920
16459TIP3    H270869   1.343   4.057  16.379  1.2813  0.4442 -1.3989
16460TIP3   OH270870   1.254   6.581   0.592  0.7433  0.5871 -0.1234
16460TIP3    H170871   1.159   6.580   0.602  0.8732 -0.2180  1.1020
16460TIP3    H270872   1.281   6.665   0.629  0.5834  0.4984  0.1955
16461TIP3   OH270873   3.889   3.839   1.144  0.4352 -0.1916  0.7921
16461TIP3    H170874   3.949   3.770   1.117 -0.2774  0.3454 -2.3856
16461TIP3    H270875   3.935   3.884   1.215  2.3056 -1.8886  0.7078
16462TIP3   OH270876   2.655   2.411   4.337  0.0326  0.1142 -0.4884
16462TIP3    H170877   2.657   2.430   4.243  0.3990 -0.2624 -0.5616
16462TIP3    H270878   2.747   2.396   4.360 -0.1781 -1.0466 -0.3397
16463TIP3   OH270879   4.190   5.950  12.393  0.0236  0.1779 -0.0643
16463TIP3    H170880   4.245   5.926  12.468 -0.7118 -0.1745  0.3713
16463TIP3    H270881   4.133   6.019  12.427 -0.3327 -0.0037 -0.2983
16464TIP3   OH270882   2.518   5.809   5.532 -0.3454  0.2364 -0.1230
16464TIP3    H170883   2.451   5.765   5.480 -1.0516  2.4213 -1.1068
16464TIP3    H270884   2.472   5.837   5.611  0.3762 -1.7512  1.0384
16465TIP3   OH270885   3.333   5.779  12.482  0.2061  0.6807  0.9777
16465TIP3    H170886   3.410   5.803  12.431  1.0038 -0.3859  1.6577
16465TIP3    H270887   3.261   5.782  12.419  1.0161  0.3867  0.0189
16466TIP3   OH270888   5.179   0.773   0.912  0.5026 -0.2743  0.0751
16466TIP3    H170889   5.120   0.720   0.965 -0.2156 -0.7788 -1.1964
16466TIP3    H270890   5.167   0.863   0.943  1.4407 -0.7877  1.9790
16467TIP3   OH270891   5.067   1.120   1.978 -0.0301  0.2441 -0.0808
16467TIP3    H170892   5.091   1.128   2.070 -2.0671 -0.7627  0.5502
16467TIP3    H270893   4.986   1.070   1.978  0.0239  0.1021 -2.4408
16468TIP3   OH270894   6.469   3.819  14.146 -0.2955  0.7955  0.0572
16468TIP3    H170895   6.503   3.864  14.069  0.2365  1.1689  0.5061
16468TIP3    H270896   6.382   3.856  14.159 -0.1402  1.1780  0.0035
16469TIP3   OH270897   1.836   5.340   3.773 -0.0046 -0.1693 -0.2035
16469TIP3    H170898   1.832   5.365   3.680 -3.5790 -1.5782 -0.5097
16469TIP3    H270899   1.755   5.374   3.810  0.0513 -2.0797  1.7453
16470TIP3   OH270900   4.866   2.344   0.275  0.3872  0.2603  0.0625
16470TIP3    H170901   4.954   2.322   0.247  1.1258  1.8344  1.0490
16470TIP3    H270902   4.814   2.266   0.256  2.0226 -0.7553 -0.3230
16471TIP3   OH270903   6.119   6.778  12.443  0.1792 -0.5455 -0.1366
16471TIP3    H170904   6.138   6.871  12.446 -0.5841 -0.2926 -2.2381
16471TIP3    H270905   6.030   6.772  12.409 -0.6491 -1.9767  2.1411
16472TIP3   OH270906   3.105   4.959  13.659  0.1139  0.2245  0.2002
16472TIP3    H170907   3.106   4.865  13.643 -0.9144  0.4860 -1.5143
16472TIP3    H270908   3.195   4.987  13.640  0.4483 -0.4213  0.8209
16473TIP3   OH270909   3.480   3.420   1.901 -0.1919 -0.1999  0.2025
16473TIP3    H170910   3.446   3.381   1.981  0.1221  1.0715  0.9731
16473TIP3    H270911   3.570   3.444   1.922  0.1068 -0.4688 -0.7506
16474TIP3   OH270912   4.319   6.320  14.699  0.9958 -0.1103 -0.6703
16474TIP3    H170913   4.340   6.227  14.706  0.7303 -0.0617  1.0306
16474TIP3    H270914   4.230   6.327  14.732  1.3381  0.8701  0.0650
16475TIP3   OH270915   2.167   0.457   1.341  0.0831 -0.1260  0.0316
16475TIP3    H170916   2.192   0.548   1.354 -1.1207  0.5595 -2.2924
16475TIP3    H270917   2.089   0.460   1.285 -2.7752 -2.3950  3.6392
16476TIP3   OH270918   2.788   6.634  10.587  0.3244  0.6481 -0.2283
16476TIP3    H170919   2.879   6.659  10.572  0.0250 -0.2908 -3.9795
16476TIP3    H270920   2.794   6.551  10.635  1.4124  0.8626  0.0233
16477TIP3   OH270921   5.544   6.601   1.510  0.1120  0.1678  0.1785
16477TIP3    H170922   5.449   6.607   1.506  0.1882  0.9230 -0.5766
16477TIP3    H270923   5.565   6.517   1.469 -0.2731 -0.4079  1.1276
16478TIP3   OH270924   0.512   2.955  14.794 -0.1249  0.1201 -0.6475
16478TIP3    H170925   0.581   2.900  14.832 -1.4865 -0.9589  0.3461
16478TIP3    H270926   0.542   3.045  14.809  2.3533 -0.3282 -2.7231
16479TIP3   OH270927   5.861   4.162   2.807  0.6829 -0.7147 -0.1414
16479TIP3    H170928   5.858   4.255   2.784  0.8706  0.1533  3.1249
16479TIP3    H270929   5.789   4.123   2.757  0.2898  1.2418 -1.1718
16480TIP3   OH270930   4.140   3.079  12.288  0.1427 -0.6564  0.3054
16480TIP3    H170931   4.158   3.072  12.194  1.1430 -1.2085  0.5330
16480TIP3    H270932   4.066   3.020  12.303 -1.6447  1.2721 -0.5558
16481TIP3   OH270933   1.838   5.046  12.936  0.3231  0.4561  0.3091
16481TIP3    H170934   1.800   5.126  12.973 -0.0219  1.1114 -1.4229
16481TIP3    H270935   1.876   5.074  12.853 -1.8640 -1.6291 -1.4670
16482TIP3   OH270936   0.117   1.088  12.994  0.0110 -0.8338 -0.0643
16482TIP3    H170937   0.129   1.178  12.964  0.8715 -1.2950 -1.0894
16482TIP3    H270938   0.025   1.069  12.976 -0.6639  0.4359  1.8044
16483TIP3   OH270939   3.263   1.085   1.925  0.3054  0.4753  1.0263
16483TIP3    H170940   3.297   0.998   1.942 -0.6222  0.5622  3.5532
16483TIP3    H270941   3.198   1.072   1.856  1.7727 -0.4508 -0.2159
16484TIP3   OH270942   4.746   5.818  14.206  0.7231 -0.0408  0.6789
16484TIP3    H170943   4.737   5.725  14.225 -0.6299 -0.4899 -1.9101
16484TIP3    H270944   4.811   5.822  14.136 -0.9400  0.6894 -0.8862
16485TIP3   OH270945   1.795   6.512  12.037 -0.9459  0.8413  0.9122
16485TIP3    H170946   1.767   6.538  11.949 -0.8294 -2.6360 -0.2168
16485TIP3    H270947   1.783   6.417  12.039  3.8929  0.1158  2.8358
16486TIP3   OH270948   6.387   2.851  15.406 -0.0402 -0.6361 -0.2750
16486TIP3    H170949   6.303   2.806  15.408 -0.0808 -0.5323  0.3692
16486TIP3    H270950   6.402   2.870  15.313 -0.6531 -0.7880 -0.4057
16487TIP3   OH270951   2.432   2.090   6.293 -0.0467 -0.1266  0.3603
16487TIP3    H170952   2.477   2.173   6.277  0.4980 -0.7379 -1.3761
16487TIP3    H270953   2.344   2.116   6.322  0.8638  1.0596  2.2443
16488TIP3   OH270954   6.701   2.270  16.580 -0.3580 -0.1088 -0.0475
16488TIP3    H170955   6.795   2.265  16.596 -0.4111  0.5115  0.4897
16488TIP3    H270956   6.692   2.251  16.486  0.1960 -1.2281  0.1230
16489TIP3   OH270957   5.591   5.357   0.874 -0.0609  0.2023 -0.0282
16489TIP3    H170958   5.662   5.317   0.825 -1.0035 -0.8183 -0.5643
16489TIP3    H270959   5.613   5.451   0.876  1.2012 -0.0808 -0.3253
16490TIP3   OH270960   5.937   2.266   0.712  0.5133  0.0954  0.0995
16490TIP3    H170961   5.980   2.316   0.643 -0.6528 -0.0485 -0.7454
16490TIP3    H270962   5.950   2.174   0.687  1.6574 -0.0209  1.0445
16491TIP3   OH270963   4.468   2.729   4.127  0.0625  0.0720 -0.0887
16491TIP3    H170964   4.508   2.750   4.211  1.7066  0.5008 -0.9355
16491TIP3    H270965   4.540   2.692   4.075 -0.7775  0.3349 -1.4826
16492TIP3   OH270966   5.850   2.584  14.364 -0.6522 -0.5592  0.3848
16492TIP3    H170967   5.927   2.541  14.327 -0.4905 -0.5063  0.6558
16492TIP3    H270968   5.776   2.549  14.314 -0.4884 -0.8881  0.3744
16493TIP3   OH270969   6.191   6.204   2.206  0.3154 -0.1289  0.0948
16493TIP3    H170970   6.165   6.114   2.188  0.2180 -0.3316  1.1737
16493TIP3    H270971   6.203   6.244   2.120 -1.5573 -0.6199 -0.4302
16494TIP3   OH270972   3.406   4.611  12.074  0.0720  0.1642  0.0317
16494TIP3    H170973   3.311   4.603  12.088  0.0288 -2.8348 -1.5664
16494TIP3    H270974   3.414   4.679  12.007 -0.7651  2.1431  1.8759
16495TIP3   OH270975   1.541   1.270   4.376 -0.3181  0.2555 -0.4795
16495TIP3    H170976   1.465   1.327   4.365  0.1561  0.9634 -0.1082
16495TIP3    H270977   1.591   1.310   4.447 -0.8927 -1.5896  1.0249
16496TIP3   OH270978   0.127   1.514  10.655 -0.1289 -0.5052  0.4512
16496TIP3    H170979   0.133   1.600  10.613  1.1121 -0.9807 -0.3793
16496TIP3    H270980   0.047   1.519  10.708  0.6779  1.6343  1.5272
16497TIP3   OH270981   4.799   3.342  13.695  0.9768 -0.5643  0.1924
16497TIP3    H170982   4.775   3.323  13.604  1.0018  0.6257 -0.0776
16497TIP3    H270983   4.891   3.368  13.691  0.8646 -0.1075  0.4899
16498TIP3   OH270984   5.685   0.373  16.041  0.2441  0.0874  0.3412
16498TIP3    H170985   5.618   0.372  15.973 -0.4250 -0.4775  0.9967
16498TIP3    H270986   5.636   0.364  16.123  1.1636 -1.0319  0.7831
16499TIP3   OH270987   1.001   2.320   2.790 -0.3800 -0.5972  0.5152
16499TIP3    H170988   0.953   2.380   2.847  1.8595  0.5287  1.3035
16499TIP3    H270989   1.046   2.261   2.851 -2.5626 -3.1272 -0.2505
16500TIP3   OH270990   5.629   6.057  15.854 -0.1337  0.0525  0.2881
16500TIP3    H170991   5.701   6.026  15.799 -0.3724 -0.8937  0.5106
16500TIP3    H270992   5.668   6.066  15.941 -0.4595 -1.1547  0.5640
16501TIP3   OH270993   0.068   3.133  16.133  0.1302  0.1052 -0.3874
16501TIP3    H170994   0.053   3.183  16.214 -0.0916  1.6772 -1.3718
16501TIP3    H270995  -0.019   3.100  16.110  0.1819 -0.2884 -0.0283
16502TIP3   OH270996   2.672   0.599   4.030  0.4192  0.1408 -0.2517
16502TIP3    H170997   2.731   0.557   4.092 -0.5538 -2.9068 -1.2669
16502TIP3    H270998   2.713   0.586   3.945  0.1136  1.3282 -0.5910
16503TIP3   OH270999   4.869   5.123  10.936  0.0739  0.1768  0.0296
16503TIP3    H171000   4.777   5.101  10.953  0.4870 -0.8209  1.0341
16503TIP3    H271001   4.876   5.215  10.960 -0.8843  0.5251 -0.9861
16504TIP3   OH271002   4.432   1.729  11.818 -0.1220 -0.0017 -0.3496
16504TIP3    H171003   4.480   1.803  11.855  0.2931 -0.8385  0.8295
16504TIP3    H271004   4.409   1.675  11.894 -0.9737 -0.7548 -1.1312
16505TIP3   OH271005   5.137   5.268   6.393 -0.5934  0.2024 -0.1188
16505TIP3    H171006   5.051   5.238   6.363 -0.2260  0.9072 -1.9790
16505TIP3    H271007   5.182   5.189   6.422 -1.1974 -0.4343 -0.8916
16506TIP3   OH271008   3.391   2.034   4.688  0.1753 -0.5919  0.4115
16506TIP3    H171009   3.355   1.966   4.631 -1.1344 -0.2591  0.8262
16506TIP3    H271010   3.485   2.031   4.672 -0.3240  0.7928 -3.2508
16507TIP3   OH271011   6.432   2.068  11.322 -0.3041 -0.1284  0.4706
16507TIP3    H171012   6.441   2.150  11.370 -0.5506  0.5735 -0.6772
16507TIP3    H271013   6.512   2.062  11.270 -1.2149  0.4345 -1.0315
16508TIP3   OH271014   1.962   2.906   4.275 -0.4669 -0.0212 -0.0651
16508TIP3    H171015   1.877   2.946   4.293 -0.2567 -0.3437  1.8176
16508TIP3    H271016   1.942   2.833   4.216 -1.2658  0.9307 -0.9765
16509TIP3   OH271017   6.095   3.119   4.010 -0.3158  0.0737 -0.0705
16509TIP3    H171018   6.032   3.174   4.057 -1.8981  0.4778 -2.5712
16509TIP3    H271019   6.109   3.044   4.068 -1.6038  0.9184  1.3735
16510TIP3   OH271020   4.881   3.385  10.874  0.1964 -0.0111  0.6477
16510TIP3    H171021   4.969   3.423  10.888 -0.0249  0.4529  0.8072
16510TIP3    H271022   4.896   3.312  10.814  0.8246 -0.4889  1.3640
16511TIP3   OH271023   5.688   5.188  10.513 -0.1497  0.0602 -0.2263
16511TIP3    H171024   5.783   5.199  10.512 -0.0966 -0.2121  0.7817
16511TIP3    H271025   5.656   5.262  10.565 -0.3563 -0.6631  0.7008
16512TIP3   OH271026   3.719   2.205   0.602 -0.0191 -0.0454 -0.3265
16512TIP3    H171027   3.676   2.279   0.559  0.6816  0.0473 -0.8758
16512TIP3    H271028   3.756   2.242   0.682  3.6034  1.0770 -2.4338
16513TIP3   OH271029   0.753   4.740  10.931 -0.0248 -0.6238  0.4670
16513TIP3    H171030   0.841   4.774  10.920 -0.1911  0.4087  2.1146
16513TIP3    H271031   0.724   4.719  10.843  1.0506  1.1209 -0.3326
16514TIP3   OH271032   4.086   4.688  15.686  0.7955  0.1618  0.3414
16514TIP3    H171033   4.135   4.607  15.672  0.1720 -0.1753  0.0965
16514TIP3    H271034   4.148   4.758  15.665  0.8085 -0.2845 -1.1086
16515TIP3   OH271035   5.374   2.271  14.305  0.0620  0.9028  0.4453
16515TIP3    H171036   5.296   2.322  14.327 -0.8677  0.4072 -1.5521
16515TIP3    H271037   5.340   2.196  14.256  1.7461  0.3039  0.1695
16516TIP3   OH271038   2.702   2.725   2.878 -0.0442 -0.4064  0.0810
16516TIP3    H171039   2.766   2.665   2.918 -0.6889 -0.6141  0.8118
16516TIP3    H271040   2.618   2.698   2.914 -0.2964  1.2341  0.7731
16517TIP3   OH271041   4.770   2.583   5.321  0.1265  0.0873  0.2342
16517TIP3    H171042   4.857   2.621   5.332  0.6241 -1.1345  0.5426
16517TIP3    H271043   4.757   2.582   5.226  0.0181  1.2186  0.2287
16518TIP3   OH271044   0.693   4.260  17.284 -0.2002 -0.4178  0.9235
16518TIP3    H171045   0.749   4.190  17.319  0.7372  0.0819  0.4269
16518TIP3    H271046   0.604   4.223  17.287  0.3767 -1.9023 -0.0054
16519TIP3   OH271047   0.706   6.582   1.745  0.4439 -0.3837  0.0933
16519TIP3    H171048   0.771   6.537   1.692  2.0993  1.0425  0.8780
16519TIP3    H271049   0.657   6.635   1.682  1.4126  0.1409 -0.2306
16520TIP3   OH271050   3.720   4.735   4.785 -0.2095 -0.0892  0.3556
16520TIP3    H171051   3.669   4.712   4.707  1.1325 -0.8449 -0.3139
16520TIP3    H271052   3.654   4.762   4.849 -1.4754 -1.3065 -0.4041
16521TIP3   OH271053   5.756   4.993  15.745  0.0376  0.6105  0.5737
16521TIP3    H171054   5.682   5.052  15.759 -0.2070  1.0540 -2.3713
16521TIP3    H271055   5.716   4.907  15.730  0.2182  0.4356  1.0855
16522TIP3   OH271056   5.271   6.451   1.830 -0.3804 -0.0515 -0.1980
16522TIP3    H171057   5.339   6.383   1.832  0.9251  1.2761  1.1374
16522TIP3    H271058   5.198   6.409   1.783  1.2185 -1.5975 -1.4047
16523TIP3   OH271059   2.314   4.308  12.403 -0.0496  0.6086  0.0431
16523TIP3    H171060   2.292   4.371  12.472 -1.4721  0.8799 -0.6420
16523TIP3    H271061   2.233   4.295  12.355  0.8064  0.0377 -1.2890
16524TIP3   OH271062   0.303   2.028   4.079  0.1745 -0.5622 -0.7454
16524TIP3    H171063   0.288   2.088   4.006  1.3692  1.4428  0.6034
16524TIP3    H271064   0.236   2.051   4.143  1.5513  0.4073  0.3957
16525TIP3   OH271065   0.878   1.448   6.525  0.1570  0.6994  0.2124
16525TIP3    H171066   0.850   1.357   6.517 -1.4231  1.3636 -2.0943
16525TIP3    H271067   0.812   1.489   6.581  0.7317  0.5082  1.0442
16526TIP3   OH271068   4.530   3.085  15.084  0.3402  0.5101 -0.4609
16526TIP3    H171069   4.491   3.171  15.102 -0.2718  0.0436  0.4749
16526TIP3    H271070   4.619   3.091  15.120  0.2595  0.7110 -0.2957
16527TIP3   OH271071   3.359   0.824   1.454 -0.9772 -0.6166  0.3709
16527TIP3    H171072   3.294   0.851   1.389 -1.5409 -2.0267  0.3311
16527TIP3    H271073   3.356   0.892   1.521 -1.2871  0.1972 -0.4618
16528TIP3   OH271074   1.911   0.829   2.156  0.3143  0.0430  0.6382
16528TIP3    H171075   1.820   0.850   2.177  0.1501  0.4285 -0.4454
16528TIP3    H271076   1.913   0.733   2.154 -0.2646  0.0416 -0.1689
16529TIP3   OH271077   6.355   4.715  17.173  0.4019  0.6390  0.1252
16529TIP3    H171078   6.426   4.652  17.185  0.9699  0.8603 -1.8191
16529TIP3    H271079   6.338   4.749  17.260  0.7500 -1.4863  1.0609
16530TIP3   OH271080   6.283   1.085  11.371  0.0919 -0.0106  0.0124
16530TIP3    H171081   6.334   1.084  11.290  0.4190 -0.5619  0.2156
16530TIP3    H271082   6.218   1.015  11.359  0.9345 -0.9288  0.7133
16531TIP3   OH271083   1.307   5.089  16.563 -0.5231  0.2172 -0.1332
16531TIP3    H171084   1.382   5.133  16.522  0.1838 -1.7250 -0.9883
16531TIP3    H271085   1.346   5.037  16.633 -0.9896 -1.1845 -0.8999
16532TIP3   OH271086   3.225   2.413  14.825  0.8002  0.5163  0.0384
16532TIP3    H171087   3.301   2.449  14.781  1.6750  0.1610  1.2402
16532TIP3    H271088   3.196   2.341  14.768  0.8978  1.1369 -0.7965
16533TIP3   OH271089   6.379   1.756  13.404 -0.1209  0.6741  0.7360
16533TIP3    H171090   6.370   1.663  13.381  1.3932  0.0248  2.6062
16533TIP3    H271091   6.373   1.802  13.321 -0.8514 -1.0976 -0.2349
16534TIP3   OH271092   4.274   1.441  15.133  0.2024 -1.0971 -0.1647
16534TIP3    H171093   4.282   1.404  15.045 -1.5018  0.7082 -1.1188
16534TIP3    H271094   4.212   1.384  15.177 -0.2346 -1.0259 -0.6831
16535TIP3   OH271095   3.426   2.071  13.003 -0.5042  0.0336  0.1619
16535TIP3    H171096   3.487   2.145  13.009 -0.0854 -0.3800  1.2046
16535TIP3    H271097   3.349   2.098  13.053 -0.1219 -0.4385  1.0277
16536TIP3   OH271098   2.184   6.605   4.160  0.2748 -0.1908  0.0276
16536TIP3    H171099   2.156   6.646   4.077 -0.3116  0.9940  0.7954
16536TIP3    H271100   2.268   6.645   4.180  0.1660 -0.0881  0.2794
16537TIP3   OH271101   0.934   3.415   1.079 -0.1780  0.4666 -0.3368
16537TIP3    H171102   0.878   3.347   1.041 -0.5942  0.8847 -0.4727
16537TIP3    H271103   0.986   3.446   1.005 -1.1000  1.3912 -0.6123
16538TIP3   OH271104   5.437   4.831  14.544 -0.2530 -0.8563 -0.4769
16538TIP3    H171105   5.409   4.825  14.453  1.7172  0.1099 -1.1879
16538TIP3    H271106   5.357   4.825  14.595 -1.3244 -2.0107 -2.2507
16539TIP3   OH271107   1.409   0.390   6.143  0.5137  0.1328  0.1186
16539TIP3    H171108   1.502   0.414   6.135  1.2638 -2.7747 -0.3737
16539TIP3    H271109   1.398   0.317   6.082 -2.0871  0.3624  0.2698
16540TIP3   OH271110   0.485   0.821  14.377  0.0231  0.1526  0.0621
16540TIP3    H171111   0.562   0.857  14.420  0.6338 -2.1787  0.9857
16540TIP3    H271112   0.416   0.826  14.443  0.1441 -0.4834  0.2382
16541TIP3   OH271113   0.121   5.302   2.486 -0.4513  0.1650  0.2474
16541TIP3    H171114   0.175   5.355   2.429  1.2145 -1.3459  0.3781
16541TIP3    H271115   0.141   5.333   2.574 -1.0066  0.6830  0.1929
16542TIP3   OH271116   2.533   2.185  14.405 -0.2838  0.6964  0.3438
16542TIP3    H171117   2.461   2.130  14.435  0.8457 -0.5830  0.7970
16542TIP3    H271118   2.518   2.270  14.445 -1.7713  0.5652  0.0772
16543TIP3   OH271119   1.457   6.663   3.654  0.0230 -0.1515 -0.0914
16543TIP3    H171120   1.537   6.635   3.699 -0.5808 -1.0911  0.4213
16543TIP3    H271121   1.411   6.581   3.635 -1.3190  0.4304  0.5674
16544TIP3   OH271122   0.982   1.463  14.360 -0.6368 -0.0166  0.2361
16544TIP3    H171123   0.991   1.395  14.293  1.9892 -0.5314  1.0668
16544TIP3    H271124   0.995   1.545  14.312  1.4704 -0.3924  0.0976
16545TIP3   OH271125   4.668   2.033  12.315 -0.3233  0.6138  0.2337
16545TIP3    H171126   4.711   2.114  12.287  0.3158  0.0418 -0.4582
16545TIP3    H271127   4.726   1.997  12.382  0.6989 -0.5524 -1.2427
16546TIP3   OH271128   4.156   2.829   6.363 -0.3374 -0.7751  0.2574
16546TIP3    H171129   4.175   2.748   6.411 -0.4717 -1.3331 -0.6135
16546TIP3    H271130   4.242   2.870   6.350 -0.3694 -0.3092  1.5107
16547TIP3   OH271131   2.787   1.325  13.586  0.2712 -0.1867  0.0934
16547TIP3    H171132   2.878   1.347  13.567 -0.3962  2.3395 -0.3870
16547TIP3    H271133   2.789   1.293  13.676  1.2849  2.6787  1.1809
16548TIP3   OH271134   6.794   3.140   3.116  0.1441 -0.6971  0.9187
16548TIP3    H171135   6.769   3.231   3.098  0.9309 -0.3374  1.5924
16548TIP3    H271136   6.746   3.089   3.051 -1.8209  0.0198  1.7509
16549TIP3   OH271137   3.240   3.130  11.572  0.6559 -0.0014  0.5551
16549TIP3    H171138   3.256   3.197  11.639  0.2428 -0.2254  0.8825
16549TIP3    H271139   3.226   3.179  11.491 -0.8026  0.3655  1.0232
16550TIP3   OH271140   5.697   0.229  17.237 -0.4131  0.9932 -0.5607
16550TIP3    H171141   5.614   0.182  17.237  1.6331 -2.8223  1.8628
16550TIP3    H271142   5.692   0.288  17.313  0.2616 -1.5181  1.4818
16551TIP3   OH271143   0.347   1.325  12.025 -0.2887  0.5927  0.9336
16551TIP3    H171144   0.296   1.385  12.079  0.3977  1.3247  0.7733
16551TIP3    H271145   0.428   1.311  12.074  0.3821  1.3477  0.0652
16552TIP3   OH271146   3.437   2.995  10.372 -0.1039 -0.3969  0.1789
16552TIP3    H171147   3.477   3.048  10.303 -1.5002  0.6034  0.1152
16552TIP3    H271148   3.414   3.057  10.441  1.2429 -1.3876  1.5549
16553TIP3   OH271149   5.779   2.210  16.403 -0.4656  0.6179 -0.1549
16553TIP3    H171150   5.737   2.279  16.454  0.4202  0.0427  1.4077
16553TIP3    H271151   5.724   2.133  16.417 -0.6534  0.6493 -0.7105
16554TIP3   OH271152   4.818   4.456  15.293 -0.3430  0.1119 -0.0710
16554TIP3    H171153   4.843   4.364  15.280 -0.5971  0.0616 -0.2174
16554TIP3    H271154   4.839   4.473  15.385  0.8056  0.2615 -0.3549
16555TIP3   OH271155   0.058   2.435   5.873  0.5870  0.9451 -0.6108
16555TIP3    H171156  -0.030   2.427   5.909  0.4124 -0.7495 -1.3570
16555TIP3    H271157   0.048   2.417   5.779  1.9291 -0.7521 -0.4580
16556TIP3   OH271158   2.758   1.202   0.194 -0.2083  0.0347  0.4032
16556TIP3    H171159   2.822   1.212   0.124  0.7556 -1.6864  1.0100
16556TIP3    H271160   2.707   1.283   0.192  0.8795  0.6975 -1.1968
16557TIP3   OH271161   4.523   0.652   5.016 -0.1176 -0.1213 -0.2259
16557TIP3    H171162   4.527   0.639   5.111 -2.4851 -2.1708 -0.3621
16557TIP3    H271163   4.547   0.567   4.979  4.3035  1.5513 -1.6191
16558TIP3   OH271164   2.754   3.229   3.177 -0.5377  0.2916 -0.4385
16558TIP3    H171165   2.765   3.301   3.116  1.2183  0.4992  0.1115
16558TIP3    H271166   2.795   3.259   3.259  0.1383 -1.2721 -0.1786
16559TIP3   OH271167   4.559   2.620   4.781  0.3004 -0.0426 -0.1561
16559TIP3    H171168   4.648   2.628   4.746  0.5570  1.2010  0.7618
16559TIP3    H271169   4.538   2.527   4.771  2.0407 -0.5207  0.4211
16560TIP3   OH271170   6.698   5.528   3.981  0.1840  0.6666  0.3741
16560TIP3    H171171   6.718   5.553   3.891 -0.7436 -1.4740 -0.4660
16560TIP3    H271172   6.781   5.499   4.018  0.0572 -1.2769 -0.7782
16561TIP3   OH271173   4.314   2.568  15.479  0.1447  0.0284 -0.3779
16561TIP3    H171174   4.366   2.551  15.558  0.4132 -0.5865 -0.6787
16561TIP3    H271175   4.258   2.641  15.502  0.1558 -0.2129  0.4248
16562TIP3   OH271176   3.839   0.474  15.728 -0.6972  0.1102 -0.2044
16562TIP3    H171177   3.820   0.388  15.766  1.8536 -1.5898 -2.6092
16562TIP3    H271178   3.807   0.468  15.638  0.5223  1.3053 -0.7295
16563TIP3   OH271179   2.147   1.548  13.487  0.0466 -0.3682 -0.2288
16563TIP3    H171180   2.066   1.592  13.513 -0.4404  0.8384 -3.6087
16563TIP3    H271181   2.201   1.617  13.449  2.6049 -1.2131  1.6898
16564TIP3   OH271182   5.596   6.521   0.128 -0.4763 -0.5093  0.0960
16564TIP3    H171183   5.652   6.477   0.192  1.0055 -1.3645 -1.7273
16564TIP3    H271184   5.521   6.552   0.179 -0.6160 -3.4408  1.7766
16565TIP3   OH271185   5.759   2.336   4.916  0.1605 -0.1052  0.1269
16565TIP3    H171186   5.696   2.405   4.941  0.8057  0.9901 -1.2125
16565TIP3    H271187   5.757   2.336   4.820  1.7472 -0.4813  0.0890
16566TIP3   OH271188   6.652   2.149   3.038 -0.1331  0.1933  0.0593
16566TIP3    H171189   6.661   2.141   3.133 -0.1566  0.5605  0.0926
16566TIP3    H271190   6.728   2.103   3.003  0.5287  1.1115  0.2869
16567TIP3   OH271191   4.187   1.990  10.808 -0.1998  0.3134 -0.1037
16567TIP3    H171192   4.190   1.954  10.719  2.4829 -0.2505  0.1806
16567TIP3    H271193   4.195   1.913  10.865 -1.3866  0.7300  0.6504
16568TIP3   OH271194   3.850   2.425  11.579 -0.2129 -0.2707 -0.8009
16568TIP3    H171195   3.765   2.449  11.615 -0.0452  1.3699 -1.4743
16568TIP3    H271196   3.909   2.423  11.654 -0.4232  0.5770 -0.6114
16569TIP3   OH271197   6.646   6.646   0.091 -0.5010  0.8153 -0.0660
16569TIP3    H171198   6.691   6.731   0.088  2.3249 -0.5264  1.7384
16569TIP3    H271199   6.578   6.658   0.158 -0.5118  1.8481 -0.2526
16570TIP3   OH271200   1.888   5.160   6.548 -0.0796  0.1709 -0.0245
16570TIP3    H171201   1.800   5.137   6.517 -0.7292  0.0964  1.7590
16570TIP3    H271202   1.945   5.145   6.473 -1.5013 -0.4366 -1.0135
16571TIP3   OH271203   0.346   4.012   0.640  0.0331 -0.4082  0.2810
16571TIP3    H171204   0.317   4.037   0.728 -1.5061 -3.6780  0.7711
16571TIP3    H271205   0.440   3.996   0.649  0.2535  1.1498  0.8660
16572TIP3   OH271206   5.673   1.752  13.637 -0.0991  0.2068 -0.2010
16572TIP3    H171207   5.740   1.718  13.578  0.5321  1.2099 -0.0840
16572TIP3    H271208   5.686   1.702  13.718  0.0034 -0.1426 -0.4309
16573TIP3   OH271209   4.646   5.417  10.122 -0.1352  0.5043 -0.0536
16573TIP3    H171210   4.654   5.423  10.217  1.0899  0.7818 -0.1670
16573TIP3    H271211   4.597   5.336  10.107  0.0123  0.2527  0.8040
16574TIP3   OH271212   6.718   6.387  16.180  0.2373 -0.3816 -0.3807
16574TIP3    H171213   6.759   6.349  16.259  0.4988  1.8945  0.6152
16574TIP3    H271214   6.630   6.349  16.178 -0.4256  0.9351  2.0716
16575TIP3   OH271215   0.923   3.424   5.074 -0.6859 -0.0431 -0.6903
16575TIP3    H171216   0.872   3.344   5.061 -1.0184 -0.3684  2.1792
16575TIP3    H271217   1.007   3.394   5.109 -1.2336  0.8835  1.5192
16576TIP3   OH271218   2.351   3.963   5.494  0.3784  0.1251  0.4239
16576TIP3    H171219   2.299   3.943   5.417  0.4522  0.7906  0.1962
16576TIP3    H271220   2.311   4.042   5.531  0.6598  0.1094  0.7710
16577TIP3   OH271221   3.025   5.333  11.740  0.1284  0.7419  0.1841
16577TIP3    H171222   2.994   5.291  11.660 -0.6058 -1.9972  1.8440
16577TIP3    H271223   2.991   5.423  11.734 -2.4440 -0.2627 -1.1773
16578TIP3   OH271224   3.335   6.058  15.433 -0.2193  0.3203 -0.3732
16578TIP3    H171225   3.294   5.982  15.392 -0.8185  0.0375  0.7482
16578TIP3    H271226   3.412   6.076  15.378 -0.0657 -1.0966 -0.6416
16579TIP3   OH271227   0.837   4.229   3.076  0.0804  0.3631 -0.0714
16579TIP3    H171228   0.808   4.200   2.989  0.0345 -0.5801  0.2525
16579TIP3    H271229   0.929   4.203   3.081  0.4540  1.5875 -0.3310
16580TIP3   OH271230   3.014   5.452   1.361  0.5524 -0.0383  0.3590
16580TIP3    H171231   3.103   5.484   1.341  1.4079 -0.9711  2.5411
16580TIP3    H271232   2.979   5.426   1.276  2.1479  0.8899 -0.6170
16581TIP3   OH271233   0.680   0.461  15.555 -0.2263  0.0215 -0.5197
16581TIP3    H171234   0.628   0.541  15.552 -0.5250 -0.1556 -0.1230
16581TIP3    H271235   0.729   0.468  15.638  1.0385  0.5987 -1.2981
16582TIP3   OH271236   5.167   1.852   5.049 -0.2956  0.0117 -0.1564
16582TIP3    H171237   5.099   1.790   5.021  0.0976 -1.0744  1.2446
16582TIP3    H271238   5.117   1.926   5.085 -0.7542 -0.0996 -0.5511
16583TIP3   OH271239   3.992   3.832   3.895  0.1949 -0.1694  0.4790
16583TIP3    H171240   4.061   3.898   3.909  1.0024 -1.0186  0.5162
16583TIP3    H271241   4.009   3.765   3.960  1.9188 -2.4665 -2.2066
16584TIP3   OH271242   4.620   0.700  14.130  0.1105  0.0990 -0.1826
16584TIP3    H171243   4.672   0.648  14.192 -0.7473 -0.3658  0.1559
16584TIP3    H271244   4.611   0.644  14.053  2.5296  1.2893 -1.3910
16585TIP3   OH271245   1.465   4.572  12.060  0.9830 -0.2383 -0.1780
16585TIP3    H171246   1.411   4.508  12.106 -0.0712  0.9463  0.2701
16585TIP3    H271247   1.480   4.642  12.124  2.3526 -0.1429 -0.5663
16586TIP3   OH271248   0.397   1.819  12.476  0.5802  0.2371  0.6537
16586TIP3    H171249   0.319   1.874  12.474 -0.1077 -0.7362  0.4899
16586TIP3    H271250   0.446   1.846  12.398 -0.4914 -0.4183 -0.2745
16587TIP3   OH271251   2.635   1.102   2.998  0.8804  0.7260  0.4386
16587TIP3    H171252   2.707   1.074   3.055  0.2973  0.3723  1.0112
16587TIP3    H271253   2.623   1.029   2.936  0.2292  0.2584  1.1019
16588TIP3   OH271254   6.695   5.710   3.485 -0.4460 -0.1724 -0.0601
16588TIP3    H171255   6.690   5.695   3.390  1.1368 -0.1954 -0.1428
16588TIP3    H271256   6.715   5.624   3.521  0.3806  0.1099  0.1658
16589TIP3   OH271257   0.137   2.701   6.213  1.2598 -0.1841  0.1350
16589TIP3    H171258   0.054   2.739   6.187  1.7838 -0.1008 -1.4466
16589TIP3    H271259   0.128   2.687   6.307  0.6799  2.9295  0.6017
16590TIP3   OH271260   5.522   4.155   4.769 -0.0614 -0.1287 -0.3932
16590TIP3    H171261   5.500   4.125   4.680 -2.3584 -1.8941  0.7265
16590TIP3    H271262   5.547   4.247   4.757 -1.9133  0.1350 -2.6549
16591TIP3   OH271263   0.613   3.158  12.751  0.2618 -0.0869 -0.4402
16591TIP3    H171264   0.636   3.235  12.699 -0.4023  0.1683 -0.3628
16591TIP3    H271265   0.695   3.132  12.792  0.6878  0.0213 -1.2025
16592TIP3   OH271266   2.547   4.256  13.457 -0.1275 -0.0115 -0.0956
16592TIP3    H171267   2.524   4.199  13.530  1.6145 -0.6194 -0.0071
16592TIP3    H271268   2.528   4.205  13.379  1.2445 -0.6645 -0.0178
16593TIP3   OH271269   5.076   2.789   0.813  0.7563 -0.0823 -0.2415
16593TIP3    H171270   5.144   2.786   0.746 -0.1115 -1.6864 -1.0711
16593TIP3    H271271   5.024   2.710   0.799 -1.5174  1.2719  0.1192
16594TIP3   OH271272   0.542   3.681  14.291  0.0024  0.1632  0.1095
16594TIP3    H171273   0.544   3.625  14.368 -0.5456 -1.2623 -0.8821
16594TIP3    H271274   0.608   3.644  14.232  0.7715  1.5360  0.0767
16595TIP3   OH271275   2.597   3.864  12.815  0.1381  0.2694 -0.2911
16595TIP3    H171276   2.592   3.955  12.788  0.0967  0.6405  0.9161
16595TIP3    H271277   2.516   3.849  12.865  0.8502  0.0237  0.8242
16596TIP3   OH271278   5.069   4.840  11.516  0.5087  0.6704  0.8542
16596TIP3    H171279   5.025   4.890  11.584  1.9052  0.9142  1.5922
16596TIP3    H271280   5.091   4.904  11.449  1.0341  0.8033  1.1521
16597TIP3   OH271281   0.851   5.733  13.971 -0.5331 -0.2710  0.5006
16597TIP3    H171282   0.895   5.718  14.054  0.2562 -1.3624 -0.1126
16597TIP3    H271283   0.828   5.646  13.939 -0.8248  0.1382 -0.4273
16598TIP3   OH271284   4.937   1.014  12.146  0.0408  0.1460  0.2428
16598TIP3    H171285   4.894   1.100  12.140  1.8921  0.9569 -2.3094
16598TIP3    H271286   4.988   1.008  12.065 -1.2994 -4.0750 -0.3834
16599TIP3   OH271287   2.776   2.678   6.571  0.4164 -0.4051  0.2728
16599TIP3    H171288   2.723   2.690   6.650 -1.0443  2.0790 -1.0047
16599TIP3    H271289   2.726   2.615   6.518 -0.7223  1.0194 -0.4020
16600TIP3   OH271290   2.062   0.844  15.160  0.3447  0.1932 -0.0963
16600TIP3    H171291   2.017   0.922  15.128 -0.3619 -1.2247 -2.6012
16600TIP3    H271292   2.151   0.852  15.125  0.9782  1.0360  1.6329
16601TIP3   OH271293   0.293   3.025  15.064 -0.0022 -0.2634  0.5916
16601TIP3    H171294   0.363   2.961  15.082 -0.7570 -1.5031 -0.8517
16601TIP3    H271295   0.218   2.993  15.114  0.4259  1.0575  2.1224
16602TIP3   OH271296   3.727   2.744  10.823 -0.1645 -0.2873  0.0435
16602TIP3    H171297   3.632   2.757  10.822  0.3307  4.6971 -2.9994
16602TIP3    H271298   3.746   2.702  10.739  0.2596 -2.1192  1.0470
16603TIP3   OH271299   2.705   6.742  11.766 -0.0672 -0.2498 -0.1648
16603TIP3    H171300   2.740   6.655  11.747  1.2576 -0.0918  1.4053
16603TIP3    H271301   2.768   6.802  11.726 -0.6994  0.0038 -0.7933
16604TIP3   OH271302   3.688   0.956   0.021  0.0636  0.4078  0.2749
16604TIP3    H171303   3.717   1.012   0.093  1.7648 -0.1707  0.0593
16604TIP3    H271304   3.764   0.902  -0.000 -0.8918 -0.5073 -0.9391
16605TIP3   OH271305   3.471   2.823   3.020  0.0896 -0.0036  0.2086
16605TIP3    H171306   3.562   2.830   2.990  0.0277  0.8649  0.1868
16605TIP3    H271307   3.426   2.778   2.949 -0.0570  2.0634 -1.0710
16606TIP3   OH271308   5.512   3.703   1.649 -0.2275 -0.4359  0.2388
16606TIP3    H171309   5.566   3.641   1.600  0.5743  0.6231 -0.2244
16606TIP3    H271310   5.563   3.722   1.728 -0.1610  0.1386  0.0615
16607TIP3   OH271311   0.641   0.790  14.001 -0.0144 -0.0959 -0.0283
16607TIP3    H171312   0.678   0.729  14.064 -0.1092 -1.0730 -0.9093
16607TIP3    H271313   0.617   0.736  13.926  0.4445  1.1098 -1.0573
16608TIP3   OH271314   6.103   2.633   3.420  0.4443  0.0430 -0.0898
16608TIP3    H171315   6.076   2.705   3.476 -2.3677 -1.3655  0.4962
16608TIP3    H271316   6.036   2.565   3.435  1.6266 -1.7182 -2.4456
16609TIP3   OH271317   0.437   3.585  10.898 -0.2450 -0.0182  0.6833
16609TIP3    H171318   0.463   3.540  10.818  0.8730 -1.6437  1.9155
16609TIP3    H271319   0.445   3.678  10.877  3.5536 -0.4294 -0.0388
16610TIP3   OH271320   0.904   0.050   1.563 -0.4015 -0.0111  0.6354
16610TIP3    H171321   0.921  -0.011   1.492  0.8283  0.9608  0.0827
16610TIP3    H271322   0.986   0.097   1.575 -1.5418  2.0707  0.5440
16611TIP3   OH271323   3.883   3.862  11.575  0.0481 -0.8677 -0.2925
16611TIP3    H171324   3.960   3.901  11.534 -0.4903 -0.4693 -0.9280
16611TIP3    H271325   3.907   3.853  11.667  0.0506  1.3029 -0.0650
16612TIP3   OH271326   2.472   1.091   5.758 -0.1051  0.8236  0.5873
16612TIP3    H171327   2.450   1.042   5.837 -1.1214  1.0100  0.4205
16612TIP3    H271328   2.544   1.149   5.784  0.4995 -0.1054  1.0172
16613TIP3   OH271329   1.716   1.426   6.179 -0.6258  0.9292  0.2431
16613TIP3    H171330   1.789   1.479   6.210 -0.9058  1.6263 -0.2842
16613TIP3    H271331   1.644   1.488   6.167 -1.0354  0.3938 -0.1137
16614TIP3   OH271332   0.796   1.092   2.094 -0.0578  0.3389  0.1723
16614TIP3    H171333   0.830   1.178   2.117 -1.0339  0.9425 -0.6268
16614TIP3    H271334   0.725   1.076   2.155 -0.9980  0.8505 -0.7730
16615TIP3   OH271335   3.773   0.647  15.958 -0.0556  0.5439 -0.1532
16615TIP3    H171336   3.716   0.713  15.919 -0.6298  0.5436  0.6566
16615TIP3    H271337   3.804   0.595  15.884 -1.5978  0.1600 -0.5446
16616TIP3   OH271338   3.886   5.858  15.851 -0.0990 -0.0627 -0.4127
16616TIP3    H171339   3.895   5.902  15.767 -0.2211 -0.6149 -0.7166
16616TIP3    H271340   3.975   5.834  15.876 -0.0412  0.2915 -0.2855
16617TIP3   OH271341   6.633   0.788  14.658  0.1115  0.2214 -0.6619
16617TIP3    H171342   6.636   0.693  14.665  2.2574  0.0662 -2.7969
16617TIP3    H271343   6.674   0.807  14.573 -0.0112  3.0472 -0.1439
16618TIP3   OH271344   1.066   3.075   3.788  0.7578 -0.4741  0.1941
16618TIP3    H171345   1.096   3.115   3.869 -1.8622 -1.1865  1.5739
16618TIP3    H271346   1.073   3.144   3.723 -1.8318  1.6921  2.1160
16619TIP3   OH271347   6.279   0.416  15.055  0.6372 -0.1504 -0.4457
16619TIP3    H171348   6.361   0.407  15.006  0.3651 -1.2255 -0.7330
16619TIP3    H271349   6.243   0.501  15.029  0.1003 -1.0475 -2.7354
16620TIP3   OH271350   1.375   6.146   0.345  0.0356 -0.3512  0.3928
16620TIP3    H171351   1.361   6.194   0.263 -3.2930 -1.1799  0.4024
16620TIP3    H271352   1.346   6.206   0.413  0.5370 -0.5486  0.7823
16621TIP3   OH271353   3.451   1.092  14.190 -0.0576  0.3382 -0.1295
16621TIP3    H171354   3.519   1.149  14.225 -0.3621 -0.2280  1.3830
16621TIP3    H271355   3.369   1.131  14.220 -0.2907 -0.5644  0.4226
16622TIP3   OH271356   5.007   4.906   1.144 -0.2632  0.6820 -0.4033
16622TIP3    H171357   4.938   4.861   1.193  1.1173 -1.0162  0.0401
16622TIP3    H271358   4.997   4.875   1.054  1.4509 -1.5713  0.1230
16623TIP3   OH271359   0.788   0.277   5.874  0.3956 -0.3301  0.3130
16623TIP3    H171360   0.736   0.357   5.875 -0.8445 -1.0947 -0.8658
16623TIP3    H271361   0.731   0.212   5.832  2.3930 -1.1216 -1.2742
16624TIP3   OH271362   5.617   1.364  11.936 -0.0695  0.4526  0.3638
16624TIP3    H171363   5.586   1.368  12.026  0.3251  0.0770  0.5176
16624TIP3    H271364   5.648   1.453  11.918  0.7677  0.2799  0.9333
16625TIP3   OH271365   3.215   4.871   1.650 -0.2327  0.0062  0.2317
16625TIP3    H171366   3.278   4.800   1.662 -1.4790 -1.4582 -1.6121
16625TIP3    H271367   3.132   4.827   1.635 -1.3938  1.9000  0.9365
16626TIP3   OH271368   4.036   0.767   4.333  0.1293  0.1411  0.5854
16626TIP3    H171369   4.067   0.677   4.323 -0.6203 -0.0624  0.0275
16626TIP3    H271370   3.998   0.770   4.421 -1.3084 -0.5507  0.0104
16627TIP3   OH271371   1.162   3.950  14.113  0.1845 -0.2394 -0.0081
16627TIP3    H171372   1.081   3.940  14.162 -0.8080 -0.5895 -1.6719
16627TIP3    H271373   1.208   3.867  14.125  0.9242  0.4499  2.0244
16628TIP3   OH271374   6.237   0.283   3.599 -0.6756  0.2059  0.0437
16628TIP3    H171375   6.273   0.328   3.523 -2.5765  2.4701  0.4229
16628TIP3    H271376   6.300   0.298   3.669 -0.2587  0.4505 -0.3891
16629TIP3   OH271377   0.404   4.599  12.562 -0.0227  0.2672 -0.2567
16629TIP3    H171378   0.399   4.667  12.629  0.7462  1.3224 -1.2337
16629TIP3    H271379   0.359   4.524  12.600 -0.0059  0.9975  1.2425
16630TIP3   OH271380   3.584   4.113  15.827 -0.3329  0.6886 -0.3149
16630TIP3    H171381   3.576   4.120  15.923  0.9600 -1.5452 -0.0010
16630TIP3    H271382   3.678   4.106  15.811 -0.5774  0.4444 -1.7008
16631TIP3   OH271383   1.784   1.322  13.194 -0.2429 -0.3022 -0.0436
16631TIP3    H171384   1.690   1.333  13.179  0.0010  0.0131 -1.4711
16631TIP3    H271385   1.799   1.229  13.178 -0.4387 -0.4937  0.9068
16632TIP3   OH271386   1.460   3.326   1.558  0.0427  0.8093  0.4160
16632TIP3    H171387   1.482   3.310   1.467  1.4503 -0.5231  0.9746
16632TIP3    H271388   1.374   3.368   1.555 -0.0763  0.4612 -1.4903
16633TIP3   OH271389   1.962   3.631  13.974 -0.1183 -0.2476 -0.2902
16633TIP3    H171390   1.990   3.575  14.046  0.2388 -0.7451 -0.8114
16633TIP3    H271391   1.869   3.646  13.989 -0.1480 -0.7418  0.0049
16634TIP3   OH271392   0.404   2.210   4.319  0.2105 -0.7017 -0.5187
16634TIP3    H171393   0.448   2.136   4.360  1.4550  0.4806  0.3328
16634TIP3    H271394   0.464   2.238   4.250 -0.7473 -1.1479 -1.5376
16635TIP3   OH271395   2.623   2.561  11.372  0.1462  0.3578  1.1832
16635TIP3    H171396   2.540   2.585  11.332 -0.8077 -2.4049  1.4043
16635TIP3    H271397   2.658   2.643  11.407 -1.4517  1.9088 -0.7740
16636TIP3   OH271398   3.813   1.624   2.395  0.7963  0.5169  0.3777
16636TIP3    H171399   3.820   1.720   2.389  1.1719  0.4494 -0.4443
16636TIP3    H271400   3.719   1.607   2.403  0.6552  0.9195 -0.3400
16637TIP3   OH271401   4.920   3.506   2.699  0.6486 -0.0674  0.2081
16637TIP3    H171402   4.920   3.489   2.793  1.1058 -2.5633 -0.1878
16637TIP3    H271403   4.834   3.477   2.669  0.8726 -0.2430 -0.2789
16638TIP3   OH271404   6.303   3.509   1.514 -0.5448 -0.4165  0.0440
16638TIP3    H171405   6.398   3.506   1.507 -0.7114 -0.8517 -2.8986
16638TIP3    H271406   6.273   3.532   1.426 -3.1472  0.3915  1.0689
16639TIP3   OH271407   5.728   0.502   6.178 -0.2680 -0.0620 -0.1912
16639TIP3    H171408   5.721   0.438   6.248 -0.7021  1.5536  1.2673
16639TIP3    H271409   5.656   0.481   6.118  1.5721 -2.9942 -1.5101
16640TIP3   OH271410   5.496   3.043  15.116 -0.5000 -0.1025  0.7599
16640TIP3    H171411   5.558   3.001  15.057  0.7245 -0.5388  2.3177
16640TIP3    H271412   5.506   3.137  15.097  0.1084 -0.2185  0.4806
16641TIP3   OH271413   5.124   1.220   1.737  0.3844 -0.4426 -0.1709
16641TIP3    H171414   5.132   1.153   1.669 -2.5043 -0.3039 -0.7037
16641TIP3    H271415   5.118   1.171   1.819  0.3960 -0.7621 -0.3616
16642TIP3   OH271416   0.437   6.154   2.226  0.4596 -0.3832 -0.2938
16642TIP3    H171417   0.438   6.212   2.303 -2.2583 -1.4671  0.6246
16642TIP3    H271418   0.488   6.078   2.252  0.5862 -0.1994 -0.0044
16643TIP3   OH271419   3.280   6.219   5.618  0.0509 -0.2479 -0.3423
16643TIP3    H171420   3.372   6.240   5.604  0.1331  0.3782  0.9765
16643TIP3    H271421   3.265   6.242   5.710 -1.9548  1.6543 -1.1168
16644TIP3   OH271422   3.349   1.241  13.431 -0.5088  0.4635  0.4115
16644TIP3    H171423   3.414   1.202  13.489 -0.6951  0.6651  0.7613
16644TIP3    H271424   3.266   1.201  13.457 -0.2018 -1.5410 -1.6152
16645TIP3   OH271425   2.750   1.878  14.709 -0.0356 -0.3590  0.1931
16645TIP3    H171426   2.752   1.823  14.630 -3.1999  0.5726 -0.6160
16645TIP3    H271427   2.665   1.861  14.748  0.5984  0.9041  2.1806
16646TIP3   OH271428   4.853   2.383  14.450  0.0100  0.1771  0.1385
16646TIP3    H171429   4.806   2.433  14.516 -1.2310  2.6979 -2.5374
16646TIP3    H271430   4.784   2.350  14.391  1.1358 -1.2842 -0.4008
16647TIP3   OH271431   4.790   2.186  11.393  0.2239  0.1632 -0.1548
16647TIP3    H171432   4.799   2.158  11.302 -1.7631  2.2678 -1.0443
16647TIP3    H271433   4.723   2.254  11.391 -0.3616 -0.2212  2.9901
16648TIP3   OH271434   3.012   0.841  13.604 -0.1868  0.4262 -0.0492
16648TIP3    H171435   2.977   0.814  13.519  2.3750 -1.3113 -0.6110
16648TIP3    H271436   3.091   0.892  13.582  1.9795 -2.2279  1.2717
16649TIP3   OH271437   1.176   4.046   2.002 -0.1742  0.1433  0.0118
16649TIP3    H171438   1.229   3.970   2.026  0.2959 -0.5365 -2.9597
16649TIP3    H271439   1.087   4.012   1.994 -0.5298  0.6103  1.8639
16650TIP3   OH271440   4.851   4.907  16.722  0.5215 -0.3041  0.1355
16650TIP3    H171441   4.764   4.868  16.726 -0.1926  1.3367  1.6964
16650TIP3    H271442   4.900   4.851  16.663 -1.6880 -1.0835 -1.0244
16651TIP3   OH271443   4.885   4.896   5.294 -0.3742 -0.4496  0.1513
16651TIP3    H171444   4.912   4.932   5.378 -2.3848 -0.7538  0.9528
16651TIP3    H271445   4.806   4.944   5.271  0.7705  0.4008 -2.1296
16652TIP3   OH271446   3.055   3.231   3.171  0.1639  0.4575 -0.2312
16652TIP3    H171447   3.092   3.243   3.084 -0.7142 -0.7010 -0.7703
16652TIP3    H271448   3.033   3.138   3.175  0.2247  0.4964  1.2394
16653TIP3   OH271449   2.687   5.624   0.650 -0.3491  0.0938  0.3941
16653TIP3    H171450   2.601   5.638   0.610 -0.3982 -1.1999  0.0242
16653TIP3    H271451   2.692   5.529   0.664  1.0473  0.1559  0.3605
16654TIP3   OH271452   5.211   5.014  15.951  0.3757  0.3467  0.3932
16654TIP3    H171453   5.172   4.980  15.871  0.4217 -0.0733  0.5480
16654TIP3    H271454   5.146   5.075  15.986  0.1306  0.1294  0.3150
16655TIP3   OH271455   2.471   3.652   0.218  0.2270  0.3757  0.3528
16655TIP3    H171456   2.406   3.666   0.150 -1.6700  1.0695  2.2698
16655TIP3    H271457   2.511   3.738   0.232 -0.8317  0.6817  1.5448
16656TIP3   OH271458   1.784   2.594   3.275  0.5404  0.1446  0.6840
16656TIP3    H171459   1.762   2.523   3.214  0.8721 -1.2676  2.1502
16656TIP3    H271460   1.821   2.549   3.352 -0.8317  1.7875  2.3641
16657TIP3   OH271461   2.786   5.954  13.439  0.0621  0.6953  0.0104
16657TIP3    H171462   2.780   6.014  13.364 -0.1863  1.6909  0.8185
16657TIP3    H271463   2.816   6.009  13.511  2.4697 -0.7200  0.1250
16658TIP3   OH271464   0.189   4.828   1.492  0.2155 -0.2230  0.1844
16658TIP3    H171465   0.193   4.810   1.586 -1.5836  1.7557  0.7071
16658TIP3    H271466   0.276   4.860   1.470  0.5803 -0.4448  1.2650
16659TIP3   OH271467   2.008   1.838   4.617  0.1067 -0.3555 -0.1844
16659TIP3    H171468   2.010   1.782   4.695 -0.5933  1.7217  1.3506
16659TIP3    H271469   1.930   1.892   4.628  0.3342  0.3919 -2.0371
16660TIP3   OH271470   3.211   0.550   5.302  0.1555 -0.4738  0.4724
16660TIP3    H171471   3.148   0.620   5.283 -0.7418 -1.0217  1.3663
16660TIP3    H271472   3.271   0.587   5.366  1.4145  0.4117 -1.1974
16661TIP3   OH271473   4.807   0.795   0.444 -0.3119  0.4587  0.3153
16661TIP3    H171474   4.868   0.833   0.508 -0.1224  1.3270 -0.3598
16661TIP3    H271475   4.724   0.841   0.460 -0.6348 -0.3063  0.8478
16662TIP3   OH271476   5.305   5.170  11.918  0.6619 -0.3400  0.0738
16662TIP3    H171477   5.333   5.127  11.999 -1.6058 -1.0140  0.5472
16662TIP3    H271478   5.312   5.102  11.851 -0.8682 -0.8561  0.4128
16663TIP3   OH271479   0.229   5.094  14.163 -0.1061  0.5081 -0.1332
16663TIP3    H171480   0.280   5.145  14.100  0.8672 -0.7522 -0.4052
16663TIP3    H271481   0.153   5.148  14.183  1.4061  2.4815  0.3781
16664TIP3   OH271482   4.282   5.751  14.166  0.1115 -0.3089  0.1849
16664TIP3    H171483   4.255   5.673  14.117 -1.5292  0.0456  0.5139
16664TIP3    H271484   4.219   5.818  14.141 -1.0214 -0.2245  3.1143
16665TIP3   OH271485   5.001   4.809   3.973  0.5446 -0.1137  0.2450
16665TIP3    H171486   5.039   4.740   3.917 -0.0301 -0.7409  0.6139
16665TIP3    H271487   5.029   4.786   4.061  0.5493  0.2595  0.3389
16666TIP3   OH271488   1.006   1.331  12.180  0.2198 -0.6882  0.1859
16666TIP3    H171489   1.097   1.356  12.199  0.4866 -1.4252 -0.1276
16666TIP3    H271490   0.990   1.365  12.092 -0.6477  1.7083  1.2096
16667TIP3   OH271491   2.787   3.395   1.358 -0.8902 -0.0374  0.2798
16667TIP3    H171492   2.803   3.317   1.305 -0.1739  0.8776 -0.8877
16667TIP3    H271493   2.869   3.408   1.406 -0.9423  0.1033  0.3290
16668TIP3   OH271494   2.126   2.842   0.556 -0.3536 -0.0371 -0.1929
16668TIP3    H171495   2.131   2.810   0.466  0.0223  0.7986 -0.4709
16668TIP3    H271496   2.087   2.929   0.548 -0.5695 -0.0676  0.4807
16669TIP3   OH271497   3.431   5.691  15.504  0.2846 -0.1083 -0.6223
16669TIP3    H171498   3.498   5.725  15.443  0.0715 -0.6772 -1.1772
16669TIP3    H271499   3.481   5.660  15.579  0.5642  0.4514 -0.5705
16670TIP3   OH271500   4.944   0.591  14.714  0.4361  0.5449 -0.0095
16670TIP3    H171501   4.878   0.618  14.777 -0.4449  1.3711 -1.2761
16670TIP3    H271502   5.027   0.606  14.759 -0.1767  1.3435  0.8662
16671TIP3   OH271503   1.191   2.392   2.573  0.3086  0.2389  0.4408
16671TIP3    H171504   1.198   2.487   2.576 -1.8955  0.5134 -1.6746
16671TIP3    H271505   1.123   2.371   2.637 -0.6185  0.2878 -0.5139
16672TIP3   OH271506   1.749   2.106   5.418 -0.0706  0.2535 -0.1974
16672TIP3    H171507   1.656   2.113   5.394 -0.2330 -0.3309  0.2551
16672TIP3    H271508   1.791   2.178   5.371 -0.4536 -0.6086 -1.9067
16673TIP3   OH271509   0.493   2.195  15.049 -0.2167  0.2049 -0.1511
16673TIP3    H171510   0.529   2.278  15.082 -0.6110  0.1300  0.4730
16673TIP3    H271511   0.399   2.201  15.068 -0.0066 -1.0716  1.3723
16674TIP3   OH271512   6.557   5.917   3.937  0.2530  0.2840 -0.0586
16674TIP3    H171513   6.545   5.868   4.018  2.2579 -0.3053 -0.1044
16674TIP3    H271514   6.652   5.926   3.928  0.0151  1.1239 -1.8812
16675TIP3   OH271515   6.007   6.818  15.811  0.1882  1.3352  0.4948
16675TIP3    H171516   5.998   6.824  15.716 -0.0708  0.7228  0.4776
16675TIP3    H271517   5.917   6.823  15.844  0.1476  0.1535  0.6154
16676TIP3   OH271518   0.993   2.380   3.901 -0.2484  0.2909  0.1300
16676TIP3    H171519   0.948   2.436   3.838 -0.2536 -0.5155 -0.6001
16676TIP3    H271520   0.923   2.340   3.952 -0.2893  0.1792 -0.0145
16677TIP3   OH271521   3.844   2.094  13.460 -0.2059 -0.0699  0.5921
16677TIP3    H171522   3.797   2.047  13.391 -1.0553 -0.3855  1.3785
16677TIP3    H271523   3.787   2.087  13.537  0.3177  1.0463  1.0871
16678TIP3   OH271524   4.951   0.371   4.637  0.3117 -0.4787 -0.5523
16678TIP3    H171525   4.964   0.410   4.550  1.6226 -1.3103 -0.7499
16678TIP3    H271526   4.980   0.439   4.698  1.7185 -0.7797 -0.8615
16679TIP3   OH271527   0.356   1.625   3.481 -0.7476  0.6482 -0.0096
16679TIP3    H171528   0.340   1.625   3.575 -0.7895  0.8816 -0.0178
16679TIP3    H271529   0.274   1.657   3.443 -0.8689  0.1789 -0.1475
16680TIP3   OH271530   4.960   4.008   1.902  0.0638 -0.0997  0.7778
16680TIP3    H171531   5.013   4.084   1.877  0.0934 -0.3692 -0.0085
16680TIP3    H271532   5.015   3.933   1.880  0.2712 -0.3378  2.1038
16681TIP3   OH271533   6.547   6.790   5.304  0.4346  0.0139  0.8559
16681TIP3    H171534   6.548   6.698   5.276  0.1340  0.5269 -0.9031
16681TIP3    H271535   6.584   6.838   5.229  0.4002  1.3476  1.6859
16682TIP3   OH271536   4.829   1.801  10.783 -0.0508  0.0911 -0.2385
16682TIP3    H171537   4.832   1.766  10.694  0.7207  0.5423 -0.3951
16682TIP3    H271538   4.774   1.879  10.776 -0.0358  0.0956 -0.3152
16683TIP3   OH271539   1.985   3.157   2.662  0.1878  0.1258  0.1788
16683TIP3    H171540   2.060   3.098   2.664  1.5584  1.6786 -2.5074
16683TIP3    H271541   1.909   3.099   2.669  1.5906 -1.4292  3.3930
16684TIP3   OH271542   6.009   2.671  12.510 -0.0335  0.9267 -0.2243
16684TIP3    H171543   6.030   2.730  12.437  0.9213  1.3381  0.3710
16684TIP3    H271544   6.048   2.713  12.586 -0.4358  0.1464  0.4161
16685TIP3   OH271545   1.723   2.061   6.089  0.2498 -0.0563 -0.4964
16685TIP3    H171546   1.752   1.969   6.083 -3.6966 -1.3947 -0.4036
16685TIP3    H271547   1.718   2.078   6.183  1.5241  0.4681 -0.5140
16686TIP3   OH271548   6.035   3.645  15.784 -0.0848 -0.0317 -0.1056
16686TIP3    H171549   6.109   3.601  15.825 -0.6871 -0.2532  0.7587
16686TIP3    H271550   6.061   3.737  15.779  0.8054 -0.3281 -1.0854
16687TIP3   OH271551   6.456   5.956   2.064  0.4744 -0.0648 -0.4692
16687TIP3    H171552   6.482   6.047   2.082 -1.4207  0.9161 -2.3332
16687TIP3    H271553   6.449   5.915   2.150  3.0089  1.0494  0.3264
16688TIP3   OH271554   3.762   5.747   4.979 -0.0267  0.0999  0.1851
16688TIP3    H171555   3.689   5.711   4.928  0.0620 -0.3876  0.3911
16688TIP3    H271556   3.790   5.824   4.930 -3.3419  2.7271  2.2579
16689TIP3   OH271557   5.678   5.753  17.169 -0.3132 -0.5279 -0.4815
16689TIP3    H171558   5.681   5.771  17.263 -0.6489  0.5007 -0.6622
16689TIP3    H271559   5.729   5.673  17.158  0.5657 -0.1049  0.4524
16690TIP3   OH271560   3.779   4.274  13.545 -0.1987 -0.5691  0.0607
16690TIP3    H171561   3.696   4.248  13.505  0.4257 -0.3512 -1.4168
16690TIP3    H271562   3.829   4.193  13.551 -0.3892 -0.6468  0.6668
16691TIP3   OH271563   6.129   5.500  15.817 -0.1144  0.0167 -0.2652
16691TIP3    H171564   6.177   5.418  15.831  1.4763  0.8859 -0.4619
16691TIP3    H271565   6.183   5.567  15.859 -0.7641  1.1398 -1.1763
16692TIP3   OH271566   3.816   6.257   3.389 -0.2176  0.3546  0.2890
16692TIP3    H171567   3.783   6.184   3.337 -1.5035 -0.2566  1.9163
16692TIP3    H271568   3.908   6.236   3.405  0.3687  0.8735 -2.2426
16693TIP3   OH271569   2.198   1.079  12.449 -0.0445 -0.4305  0.9510
16693TIP3    H171570   2.243   1.153  12.408 -0.8578 -0.3481  0.1998
16693TIP3    H271571   2.122   1.063  12.393 -0.8389 -0.7034  2.0801
16694TIP3   OH271572   2.354   1.658  13.077 -0.1747  0.3160 -0.7409
16694TIP3    H171573   2.308   1.657  13.161  2.6870  2.3318  0.9720
16694TIP3    H271574   2.289   1.686  13.013 -1.4741  2.5361  1.4894
16695TIP3   OH271575   4.785   6.717   1.727 -0.4817  0.4251 -0.0934
16695TIP3    H171576   4.866   6.758   1.758 -0.5039  1.4098 -1.2942
16695TIP3    H271577   4.748   6.675   1.805  1.8702 -1.2013  0.1932
16696TIP3   OH271578   1.079   4.094  11.988  0.3545  0.2194 -0.0363
16696TIP3    H171579   1.070   4.176  11.940  3.1558  0.7049  0.1846
16696TIP3    H271580   1.104   4.121  12.076  1.9962 -0.8921 -0.1502
16697TIP3   OH271581   1.871   5.204  14.827  0.1033 -0.4380  0.4224
16697TIP3    H171582   1.894   5.199  14.735  0.4586 -0.9152  0.5385
16697TIP3    H271583   1.932   5.145  14.871  1.2517  1.2975  1.2183
16698TIP3   OH271584   4.159   0.068   6.278 -0.4722  0.0250  0.2821
16698TIP3    H171585   4.191  -0.005   6.331 -0.5615 -1.0357 -1.1002
16698TIP3    H271586   4.086   0.104   6.327 -0.4520 -0.8453  0.9517
16699TIP3   OH271587   6.314   1.852  15.460  0.3607 -0.5334  0.0534
16699TIP3    H171588   6.253   1.824  15.528  1.5345  0.3206  1.4944
16699TIP3    H271589   6.320   1.947  15.471  3.5261 -0.8038  1.3653
16700TIP3   OH271590   5.846   6.670  15.139  0.5095  0.1745  0.2466
16700TIP3    H171591   5.769   6.701  15.187  0.1876 -0.4218  0.1066
16700TIP3    H271592   5.919   6.719  15.178  0.0633  0.7420  0.3730
16701TIP3   OH271593   6.767   4.322  14.317 -0.5087  0.0215  0.0055
16701TIP3    H171594   6.757   4.232  14.348 -1.4640  0.0767 -0.1490
16701TIP3    H271595   6.756   4.376  14.395  0.1274  0.0119  0.1101
16702TIP3   OH271596   4.834   1.709   0.831 -0.2693 -0.3743  0.2187
16702TIP3    H171597   4.852   1.617   0.853 -0.9504 -1.0680 -2.0006
16702TIP3    H271598   4.911   1.737   0.782 -1.1306 -0.5231 -1.2420
16703TIP3   OH271599   0.244   1.514  15.863  0.1167  0.1311  0.5605
16703TIP3    H171600   0.181   1.523  15.934  0.3684 -0.9654  0.9278
16703TIP3    H271601   0.249   1.602  15.825 -2.7206 -0.0847 -0.4181
16704TIP3   OH271602   4.790   6.474  13.172  0.3021 -0.1202  0.1283
16704TIP3    H171603   4.743   6.426  13.240  0.2409  0.9163  0.8234
16704TIP3    H271604   4.864   6.515  13.218 -0.2354  1.3098 -0.2471
16705TIP3   OH271605   5.408   4.297  11.508  0.5347 -0.6559  0.5892
16705TIP3    H171606   5.470   4.364  11.536 -0.5151 -0.3675  2.3015
16705TIP3    H271607   5.459   4.216  11.504  1.0502 -0.3859  1.8256
16706TIP3   OH271608   5.532   1.375   4.375  0.0446 -0.2859 -0.1043
16706TIP3    H171609   5.470   1.434   4.332 -0.2709 -0.6613 -0.1705
16706TIP3    H271610   5.555   1.310   4.308  0.2312 -0.3595  0.0283
16707TIP3   OH271611   6.272   0.175  14.194 -0.3047 -0.5810  0.5229
16707TIP3    H171612   6.193   0.212  14.156  1.1095  0.6289 -1.3498
16707TIP3    H271613   6.337   0.246  14.187  1.9889 -2.8057 -1.4761
16708TIP3   OH271614   1.197   0.562   2.391 -0.1657  0.3993 -0.6525
16708TIP3    H171615   1.211   0.530   2.480  0.2929  0.9073 -0.5422
16708TIP3    H271616   1.136   0.635   2.400  2.8378  2.9772 -0.2939
16709TIP3   OH271617   1.452   5.566   1.108  0.2119 -0.5303 -0.2249
16709TIP3    H171618   1.374   5.511   1.115 -0.3210  0.3074  0.5674
16709TIP3    H271619   1.421   5.654   1.130  1.6547 -0.4222  1.5426
16710TIP3   OH271620   5.810   4.292  12.445  0.3548 -0.3802  0.0488
16710TIP3    H171621   5.803   4.286  12.350  3.3907 -0.9256 -0.1835
16710TIP3    H271622   5.811   4.386  12.463  0.9967 -0.2722 -0.5594
16711TIP3   OH271623   4.448   4.864   4.140  0.8570 -0.1284 -0.6896
16711TIP3    H171624   4.493   4.832   4.218 -0.2004  0.6372  0.2535
16711TIP3    H271625   4.364   4.818   4.141 -0.8388  2.8463  0.8806
16712TIP3   OH271626   6.160   2.363  12.391 -0.3196 -0.6721 -0.1697
16712TIP3    H171627   6.124   2.336  12.306 -0.5032 -0.5759 -0.1245
16712TIP3    H271628   6.092   2.340  12.454 -0.6065  0.1644 -0.1689
16713TIP3   OH271629   3.850   1.225   3.660  0.2710  0.7801  0.7127
16713TIP3    H171630   3.761   1.224   3.693 -0.5038 -0.6649 -1.2692
16713TIP3    H271631   3.852   1.297   3.597  0.7658  1.3589  1.3778
16714TIP3   OH271632   4.631   5.692   0.032  0.7243  0.3369 -0.1096
16714TIP3    H171633   4.588   5.755  -0.026  0.6591  0.2236 -0.1856
16714TIP3    H271634   4.667   5.626  -0.027 -0.8034 -0.6882  0.0793
16715TIP3   OH271635   3.240   0.242  11.443 -0.6748  0.2109  0.0783
16715TIP3    H171636   3.270   0.314  11.498 -1.5523  0.4217  0.2862
16715TIP3    H271637   3.259   0.271  11.353 -0.8740  0.6359  0.1698
16716TIP3   OH271638   0.672   4.190   3.615 -0.1535 -0.4506  0.1115
16716TIP3    H171639   0.700   4.273   3.577  0.1099 -0.6911 -0.2262
16716TIP3    H271640   0.593   4.211   3.665 -0.6071 -0.1566 -0.7142
16717TIP3   OH271641   2.023   2.682  11.134  0.0584  0.1951  0.6536
16717TIP3    H171642   1.946   2.625  11.145  1.1079 -1.4411 -0.2431
16717TIP3    H271643   2.072   2.672  11.215 -0.0026  0.1916  0.6911
16718TIP3   OH271644   4.418   6.042   6.140  0.5281 -0.3845 -0.2318
16718TIP3    H171645   4.413   5.960   6.189  0.6859  0.0642  0.5440
16718TIP3    H271646   4.349   6.097   6.178  1.1518  0.2391  0.0211
16719TIP3   OH271647   2.925   0.642   0.032 -0.1222 -0.4483 -0.1812
16719TIP3    H171648   2.833   0.644   0.008 -0.6134 -3.1243  1.2339
16719TIP3    H271649   2.926   0.665   0.125  0.7130  0.0625 -0.3071
16720TIP3   OH271650   2.280   4.929   2.266 -0.0836 -0.2220 -0.5641
16720TIP3    H171651   2.361   4.977   2.252  0.4900 -1.4575 -1.5169
16720TIP3    H271652   2.302   4.863   2.332 -0.7226  0.4381  0.3231
16721TIP3   OH271653   2.269   3.240  16.071  0.2698 -0.8634 -0.1771
16721TIP3    H171654   2.296   3.150  16.056  0.3379 -0.8760  0.0174
16721TIP3    H271655   2.283   3.254  16.165  1.6088 -0.1937 -0.4668
16722TIP3   OH271656   3.348   4.284   3.041 -0.1573 -0.3418  0.4336
16722TIP3    H171657   3.303   4.357   2.998  0.9022 -0.2124 -0.4613
16722TIP3    H271658   3.310   4.282   3.129 -0.5393  0.9826  0.3162
16723TIP3   OH271659   6.395   6.722  12.416 -0.0040 -0.0567  0.2244
16723TIP3    H171660   6.311   6.759  12.390 -1.2477 -1.6446  1.8705
16723TIP3    H271661   6.449   6.798  12.439 -1.2308  0.9156 -0.0784
16724TIP3   OH271662   2.891   5.305  14.933 -0.2438  0.3085 -0.0707
16724TIP3    H171663   2.913   5.356  14.855 -0.2278 -0.4352 -0.5568
16724TIP3    H271664   2.847   5.367  14.991  2.3649  1.6464  0.5762
16725TIP3   OH271665   0.129   0.647  11.112 -0.0702  0.3534 -0.5946
16725TIP3    H171666   0.165   0.559  11.103 -3.4227 -0.8985 -2.7201
16725TIP3    H271667   0.149   0.690  11.029 -2.8569 -0.1758 -1.5833
16726TIP3   OH271668   0.641   6.058   4.663 -0.2742  0.5737  0.1094
16726TIP3    H171669   0.650   6.130   4.724  1.0120  1.8137 -1.5023
16726TIP3    H271670   0.549   6.062   4.635 -0.5270  0.8039  0.9523
16727TIP3   OH271671   6.095   2.111   5.731 -0.3662  0.0243  0.5457
16727TIP3    H171672   6.119   2.171   5.660  0.8977 -0.0230  0.9206
16727TIP3    H271673   6.000   2.119   5.738 -0.2758  1.5726  0.2190
16728TIP3   OH271674   4.833   2.627  13.506 -1.1837 -0.4685  0.5433
16728TIP3    H171675   4.784   2.555  13.545 -2.8902 -0.4596 -1.4947
16728TIP3    H271676   4.776   2.661  13.438  0.8007  0.9585 -0.4728
16729TIP3   OH271677   4.916   4.248   5.221 -0.0725  0.7596  0.2066
16729TIP3    H171678   4.931   4.260   5.315 -0.1701 -1.2011  0.4966
16729TIP3    H271679   4.958   4.165   5.201 -2.0504  0.0294 -0.9996
16730TIP3   OH271680   4.723   5.206  14.204  0.1009  0.4805 -0.4457
16730TIP3    H171681   4.653   5.197  14.140  0.5350  0.6237 -0.9505
16730TIP3    H271682   4.798   5.163  14.163 -0.0769 -0.9133  0.6992
16731TIP3   OH271683   6.659   5.114  16.262 -0.2304 -0.2194  0.6019
16731TIP3    H171684   6.612   5.190  16.297 -0.0641  0.0913  0.1452
16731TIP3    H271685   6.721   5.091  16.331  0.0165  0.3226  0.5628
16732TIP3   OH271686   5.174   1.932   5.368 -0.0881 -0.0424  0.3957
16732TIP3    H171687   5.214   2.000   5.422 -0.7204  0.7803 -0.1762
16732TIP3    H271688   5.219   1.938   5.284  0.1652 -0.6311  0.4839
16733TIP3   OH271689   5.171   2.761   3.217  0.9501  0.4063  0.1223
16733TIP3    H171690   5.192   2.815   3.141 -0.2284  0.4855 -0.1645
16733TIP3    H271691   5.092   2.802   3.254 -0.9673 -2.0717 -1.0818
16734TIP3   OH271692   0.607   6.102  10.893 -0.1216  0.1140  0.3142
16734TIP3    H171693   0.538   6.092  10.959  0.4211 -1.3232  0.6832
16734TIP3    H271694   0.610   6.196  10.876 -2.3799  0.1645  0.0630
16735TIP3   OH271695   4.574   5.545  16.495  0.3038  0.0798 -0.2675
16735TIP3    H171696   4.549   5.518  16.407  3.7308 -0.7940 -1.0591
16735TIP3    H271697   4.577   5.464  16.546  0.7837  0.2458 -0.0239
16736TIP3   OH271698   2.686   1.836  15.256 -0.1469 -0.0226  0.6950
16736TIP3    H171699   2.612   1.886  15.290 -0.8060 -0.9587  0.6524
16736TIP3    H271700   2.649   1.750  15.234  1.0078 -0.5989  0.9563
16737TIP3   OH271701   0.359   1.880   4.656 -0.5092 -0.4282  0.5145
16737TIP3    H171702   0.404   1.879   4.741 -1.0354  0.5934  0.8194
16737TIP3    H271703   0.342   1.788   4.636 -0.4091 -0.6715  1.5330
16738TIP3   OH271704   5.050   6.245  15.917 -0.0261  0.2674  0.1442
16738TIP3    H171705   5.026   6.170  15.863 -1.4148  1.8586 -1.5469
16738TIP3    H271706   5.130   6.218  15.962  0.4877 -1.5722 -1.7775
16739TIP3   OH271707   4.459   6.677  11.367 -0.7209 -0.5077  0.1658
16739TIP3    H171708   4.509   6.622  11.307  0.0979 -0.1552  0.5074
16739TIP3    H271709   4.493   6.766  11.352  0.0688 -0.5217  1.7033
16740TIP3   OH271710   1.469   0.560   2.306 -0.1042 -0.1628 -0.1164
16740TIP3    H171711   1.473   0.497   2.378 -0.2686  0.1428  0.1656
16740TIP3    H271712   1.375   0.575   2.293 -0.0635  0.0826 -0.1270
16741TIP3   OH271713   1.888   2.239   0.767 -0.8501  0.3940  0.1474
16741TIP3    H171714   1.819   2.271   0.710 -1.8258 -0.1373  1.0220
16741TIP3    H271715   1.961   2.220   0.708 -1.7361  0.1630 -0.8841
16742TIP3   OH271716   0.541   4.902   3.451  0.0801  0.5915 -0.1196
16742TIP3    H171717   0.592   4.828   3.486 -1.0240  0.8819  2.1942
16742TIP3    H271718   0.583   4.922   3.367  0.8223 -2.2315 -0.4901
16743TIP3   OH271719   6.401   2.231  14.400 -0.3714 -0.6473  0.6102
16743TIP3    H171720   6.448   2.236  14.483  0.5106 -0.3934  0.0977
16743TIP3    H271721   6.365   2.319  14.386  1.9514  0.1244 -0.7066
16744TIP3   OH271722   2.179   4.999   3.190 -0.1003  0.2816  0.5118
16744TIP3    H171723   2.179   4.922   3.247 -2.6889 -2.4605 -2.8729
16744TIP3    H271724   2.088   5.028   3.189  0.0232  0.7101 -1.5457
16745TIP3   OH271725   5.535   1.790  14.835  0.2241  0.7101 -0.1106
16745TIP3    H171726   5.570   1.775  14.747  0.6215  1.9171 -0.1615
16745TIP3    H271727   5.608   1.774  14.894 -0.1051 -0.3323  0.0193
16746TIP3   OH271728   3.311   0.317  14.519 -0.3475  0.2930  0.5691
16746TIP3    H171729   3.323   0.401  14.475  0.3964 -0.8912 -1.5774
16746TIP3    H271730   3.253   0.268  14.461 -0.4805 -0.7972  1.6192
16747TIP3   OH271731   2.551   0.968  11.710 -0.2816 -0.3699 -0.4069
16747TIP3    H171732   2.548   0.885  11.758 -1.5743 -0.3402 -0.4200
16747TIP3    H271733   2.543   0.943  11.618  0.4667 -0.3060 -0.4932
16748TIP3   OH271734   6.278   3.650  15.069  0.5584  0.1081 -0.3665
16748TIP3    H171735   6.354   3.699  15.039  0.0197  0.0394 -1.8952
16748TIP3    H271736   6.228   3.632  14.990 -1.5017  0.9160  0.6974
16749TIP3   OH271737   3.983   1.757  15.620  1.0414 -0.0897  0.2211
16749TIP3    H171738   4.069   1.787  15.652  1.3133  0.6302 -1.1657
16749TIP3    H271739   3.992   1.755  15.525 -0.3597 -0.4293  0.0906
16750TIP3   OH271740   4.459   2.895   0.527  0.1945 -0.5309  0.2500
16750TIP3    H171741   4.434   2.891   0.619 -2.4353 -1.6113 -0.4485
16750TIP3    H271742   4.483   2.805   0.505 -0.5953 -0.5704 -0.4673
16751TIP3   OH271743   5.771   0.741   1.298 -0.0524 -0.8185  0.0048
16751TIP3    H171744   5.805   0.828   1.276 -2.1349  0.1499  0.4910
16751TIP3    H271745   5.688   0.736   1.250 -2.4377 -0.4986  3.9009
16752TIP3   OH271746   3.329   3.843  11.401 -0.1673  0.5656 -0.4550
16752TIP3    H171747   3.362   3.912  11.343 -0.7799  0.9259 -0.3746
16752TIP3    H271748   3.297   3.889  11.478 -0.6527  0.1981 -0.4369
16753TIP3   OH271749   4.860   1.022  17.019  0.7342 -0.5520  0.3903
16753TIP3    H171750   4.932   1.017  17.081  0.2302 -1.3927  0.9110
16753TIP3    H271751   4.859   1.114  16.990  2.2311 -0.6203  0.1007
16754TIP3   OH271752   5.952   0.274   3.281 -0.1734 -0.1493 -1.0690
16754TIP3    H171753   6.014   0.203   3.268 -0.6363 -0.9429  0.7923
16754TIP3    H271754   6.006   0.350   3.303  0.1695 -1.1001  1.6586
16755TIP3   OH271755   2.793   5.297  17.150 -0.2155 -0.6725 -0.3248
16755TIP3    H171756   2.848   5.340  17.216 -0.1624  0.5671 -1.1580
16755TIP3    H271757   2.742   5.232  17.200 -2.0483  1.9794  1.3806
16756TIP3   OH271758   5.485   3.839   2.878 -0.0563 -0.0937 -0.1843
16756TIP3    H171759   5.580   3.845   2.864  0.0550 -0.1040  0.5400
16756TIP3    H271760   5.456   3.931   2.883 -0.1024 -0.0895 -0.5117
16757TIP3   OH271761   5.893   6.429  11.588  0.6047  0.4157  0.0335
16757TIP3    H171762   5.943   6.474  11.657 -1.3346  1.4059  0.8491
16757TIP3    H271763   5.811   6.405  11.631 -1.1187  2.0689 -2.2206
16758TIP3   OH271764   2.742   1.375  15.275 -0.0802 -0.3015 -0.2108
16758TIP3    H171765   2.833   1.362  15.249 -0.2090 -0.1577 -0.7434
16758TIP3    H271766   2.691   1.327  15.210 -0.3196 -2.0042  1.1997
16759TIP3   OH271767   4.852   3.778   0.092  0.0101 -0.3040  0.0741
16759TIP3    H171768   4.835   3.862   0.133  1.2661 -0.4559  0.9297
16759TIP3    H271769   4.773   3.759   0.042 -0.2258  1.4397 -0.2373
16760TIP3   OH271770   5.388   6.636  17.003  0.1346 -0.4247  0.4632
16760TIP3    H171771   5.436   6.587  16.935 -1.0480 -0.2906 -0.4888
16760TIP3    H271772   5.435   6.616  17.084  0.7638 -1.6759 -0.1890
16761TIP3   OH271773   3.832   6.250  14.126 -0.3290  0.2003 -0.5072
16761TIP3    H171774   3.790   6.180  14.077  0.0559 -1.8745  2.0583
16761TIP3    H271775   3.926   6.230  14.121 -0.3648 -0.7749  2.1013
16762TIP3   OH271776   3.689   6.481  12.381  0.0771 -0.3745  0.2989
16762TIP3    H171777   3.630   6.463  12.454 -2.3786  0.8254 -1.3316
16762TIP3    H271778   3.663   6.420  12.312  0.1629  0.7417 -0.7461
16763TIP3   OH271779   5.129   0.037   1.157 -0.5373 -0.8130  0.0159
16763TIP3    H171780   5.076   0.006   1.083  3.0263 -0.2329 -2.9253
16763TIP3    H271781   5.154   0.127   1.132 -1.2420  0.2692  3.0668
16764TIP3   OH271782   6.746   2.560  12.427 -0.1183 -0.4004 -0.0195
16764TIP3    H171783   6.752   2.655  12.419  0.9956 -0.5313 -0.8809
16764TIP3    H271784   6.763   2.528  12.338 -2.9539 -1.3121 -0.2902
16765TIP3   OH271785   5.896   4.456   5.500 -0.2839  0.2984 -0.0439
16765TIP3    H171786   5.980   4.482   5.463  0.0215 -1.1565 -0.4115
16765TIP3    H271787   5.847   4.421   5.426 -0.6710 -0.1739  0.4316
16766TIP3   OH271788   4.645   4.776   3.801  0.7616 -0.1726 -0.5851
16766TIP3    H171789   4.675   4.742   3.885 -0.9044  1.1085  0.5809
16766TIP3    H271790   4.648   4.871   3.811 -0.1583 -0.0100 -1.6941
16767TIP3   OH271791   1.091   5.049  12.368  0.1379  0.1821 -0.3369
16767TIP3    H171792   1.102   5.140  12.342 -0.2184  0.0220 -1.0500
16767TIP3    H271793   1.000   5.044  12.399 -0.0765 -0.1072 -1.0159
16768TIP3   OH271794   3.153   6.477  12.519  0.0199  0.0444 -0.1942
16768TIP3    H171795   3.200   6.428  12.451 -0.3120 -0.5112 -0.0265
16768TIP3    H271796   3.073   6.507  12.475  0.5478  1.0262 -0.4919
16769TIP3   OH271797   5.617   1.803  12.172 -0.5979  0.1457  0.2439
16769TIP3    H171798   5.652   1.870  12.114  0.2617 -0.4647  0.0411
16769TIP3    H271799   5.546   1.762  12.122 -0.0998 -0.1353 -0.2343
16770TIP3   OH271800   5.492   3.432  11.351 -0.1971  0.9067  0.0099
16770TIP3    H171801   5.577   3.448  11.308 -0.6874  1.0061 -0.9478
16770TIP3    H271802   5.508   3.360  11.411  0.8397  1.6554  0.6464
16771TIP3   OH271803   3.402   6.118  12.144 -0.0425 -0.8574 -0.9791
16771TIP3    H171804   3.463   6.192  12.150 -1.6602  0.4911 -1.0219
16771TIP3    H271805   3.429   6.072  12.064  0.6484 -0.0206 -1.2393
16772TIP3   OH271806   3.874   0.696   3.912 -0.1458 -0.4684 -0.7485
16772TIP3    H171807   3.912   0.773   3.955 -0.3781 -0.8641  0.1571
16772TIP3    H271808   3.949   0.654   3.869  0.0424  0.0562 -0.9463
16773TIP3   OH271809   4.497   5.134   1.929 -0.2382 -0.3685  0.1639
16773TIP3    H171810   4.427   5.069   1.930 -1.5932  1.0278 -0.4597
16773TIP3    H271811   4.575   5.088   1.960 -1.4091 -1.9964  0.7062
16774TIP3   OH271812   2.361   5.922   2.157 -0.4317 -0.3978  0.5367
16774TIP3    H171813   2.266   5.911   2.146 -0.7076  1.6227  0.6784
16774TIP3    H271814   2.390   5.963   2.075  0.0158  0.5644  1.1590
16775TIP3   OH271815   2.297   5.462   1.947 -0.1736  0.5794 -0.2837
16775TIP3    H171816   2.243   5.536   1.977 -0.9493 -0.7334  1.6702
16775TIP3    H271817   2.352   5.441   2.023 -0.3375 -1.1676 -0.6339
16776TIP3   OH271818   4.646   5.486  10.408  0.0932 -0.5033 -0.2193
16776TIP3    H171819   4.688   5.531  10.482 -0.2725  1.4027 -1.1280
16776TIP3    H271820   4.558   5.522  10.405  0.0130 -0.7700 -1.3899
16777TIP3   OH271821   0.514   2.799   5.707 -0.0603  0.1614 -0.6410
16777TIP3    H171822   0.577   2.785   5.778  0.7160  0.4399 -1.2650
16777TIP3    H271823   0.433   2.757   5.738  0.8570 -1.5348 -0.4671
16778TIP3   OH271824   0.596   5.875  15.732 -0.2549  0.2293  0.3436
16778TIP3    H171825   0.571   5.954  15.780 -1.7152  0.1819 -0.3215
16778TIP3    H271826   0.629   5.907  15.648  0.2476  0.1831  0.5176
16779TIP3   OH271827   1.915   4.737  15.982  0.3810  0.1877  0.4490
16779TIP3    H171828   1.956   4.824  15.976  0.4116  0.1311 -0.2543
16779TIP3    H271829   1.889   4.717  15.892  0.9325 -0.8098  0.5041
16780TIP3   OH271830   2.005   1.094   2.385 -0.3191  0.4870 -0.0811
16780TIP3    H171831   1.920   1.052   2.367  0.4162 -1.8610  1.6235
16780TIP3    H271832   2.048   1.099   2.300 -0.3343 -2.5664 -0.3209
16781TIP3   OH271833   4.268   4.975  15.500  0.2876  0.0276 -0.0330
16781TIP3    H171834   4.322   4.902  15.530  1.7552  1.3806  0.7135
16781TIP3    H271835   4.226   5.007  15.580 -1.2488 -0.7010 -0.5319
16782TIP3   OH271836   1.944   3.126   0.242  0.0603 -0.6876 -0.1136
16782TIP3    H171837   1.879   3.196   0.233 -0.4521 -1.2080 -0.5133
16782TIP3    H271838   1.899   3.048   0.211  0.9523 -1.0191 -0.5944
16783TIP3   OH271839   3.547   5.793  10.830 -0.3601 -0.1692  0.1143
16783TIP3    H171840   3.505   5.877  10.808  0.3727  0.2988  0.4741
16783TIP3    H271841   3.606   5.776  10.757 -0.8830 -0.6293 -0.2013
16784TIP3   OH271842   4.209   0.210   5.168  0.1983  0.7419 -0.6731
16784TIP3    H171843   4.278   0.268   5.135  0.5431 -0.2118 -1.6713
16784TIP3    H271844   4.128   0.261   5.161  0.7674  1.8380  0.4222
16785TIP3   OH271845   6.609   2.343   5.916 -0.1611 -0.0271  0.1644
16785TIP3    H171846   6.546   2.271   5.915 -0.3019  0.0876  0.5697
16785TIP3    H271847   6.599   2.385   5.830  0.1816 -0.7088 -0.2158
16786TIP3   OH271848   5.070   3.662  12.400 -0.2976 -0.0231  0.5641
16786TIP3    H171849   5.030   3.693  12.481 -0.0201 -1.6944  1.3676
16786TIP3    H271850   5.113   3.580  12.425  0.4929 -0.1191 -1.0948
16787TIP3   OH271851   6.494   4.016  14.620 -0.4368 -0.4817 -1.3251
16787TIP3    H171852   6.573   4.058  14.654 -0.4415 -1.2227 -0.3746
16787TIP3    H271853   6.521   3.976  14.538  0.0502 -0.3098 -1.2495
16788TIP3   OH271854   4.424   4.888  16.112 -0.3296 -0.1089  0.4340
16788TIP3    H171855   4.392   4.973  16.144  0.6803  0.0809  0.9910
16788TIP3    H271856   4.403   4.827  16.183 -1.1832 -0.3481 -0.0289
16789TIP3   OH271857   6.380   0.094   0.655  0.4234  0.3598 -0.2141
16789TIP3    H171858   6.467   0.132   0.648  1.5529 -2.3682 -1.5976
16789TIP3    H271859   6.385   0.037   0.733  0.6088 -1.4939 -1.5357
16790TIP3   OH271860   3.899   4.358   3.014  0.6061 -1.1538  0.4037
16790TIP3    H171861   3.877   4.306   2.937 -1.0715  1.3162 -0.8440
16790TIP3    H271862   3.834   4.332   3.080 -0.7724 -0.0643 -0.4948
16791TIP3   OH271863   4.920   4.976  11.738 -0.0079 -0.0586  0.5020
16791TIP3    H171864   4.950   5.037  11.804 -2.8338  1.0876  0.7816
16791TIP3    H271865   4.886   4.901  11.788 -1.4919  0.5003  0.3444
16792TIP3   OH271866   4.445   3.905  12.809 -0.5177 -0.0627  0.0110
16792TIP3    H171867   4.369   3.857  12.842 -0.7257  0.5190  0.3976
16792TIP3    H271868   4.479   3.851  12.738 -0.7988 -0.7353  0.3782
16793TIP3   OH271869   3.971   4.945   0.112  0.3657 -0.3671 -0.0895
16793TIP3    H171870   3.991   4.855   0.137 -1.6791 -1.2037 -1.4065
16793TIP3    H271871   3.951   4.989   0.194  0.3981 -1.3482  0.4462
16794TIP3   OH271872   1.358   0.751   5.521 -0.2748  0.2760  0.2284
16794TIP3    H171873   1.365   0.706   5.606  0.7466 -2.9806 -1.4890
16794TIP3    H271874   1.445   0.790   5.508 -0.0886 -0.1338  0.2139
16795TIP3   OH271875   3.270   4.476   1.558 -0.1321 -0.6697  0.1647
16795TIP3    H171876   3.258   4.396   1.610  1.5201 -0.9043  0.2019
16795TIP3    H271877   3.190   4.483   1.506 -1.2369 -1.1654  1.7414
16796TIP3   OH271878   1.596   4.188   4.000 -0.4505 -0.3624  0.3086
16796TIP3    H171879   1.592   4.134   3.921 -1.7120 -0.4748  0.4433
16796TIP3    H271880   1.689   4.189   4.024  0.2535  1.1954 -2.2266
16797TIP3   OH271881   0.076   6.520  15.976  0.5693 -0.0229 -0.4801
16797TIP3    H171882   0.017   6.474  16.036 -0.0567  0.2624 -0.8701
16797TIP3    H271883   0.161   6.518  16.020 -0.1781  1.4291  1.1077
16798TIP3   OH271884   3.163   3.809  11.853  0.1064  0.5198 -0.0716
16798TIP3    H171885   3.166   3.739  11.788 -1.0840  0.3443  0.0582
16798TIP3    H271886   3.085   3.860  11.830  0.0747  0.8701  0.7839
16799TIP3   OH271887   1.070   6.093  16.814 -0.1046 -0.3164  0.0355
16799TIP3    H171888   1.076   6.012  16.865  0.3912 -1.7135 -2.1341
16799TIP3    H271889   1.041   6.064  16.728 -2.4129  2.1466 -0.0757
16800TIP3   OH271890   0.349   5.797   0.857 -0.4281 -0.2052  0.3479
16800TIP3    H171891   0.340   5.878   0.906 -4.5450 -0.7840  0.7127
16800TIP3    H271892   0.377   5.824   0.770  1.1303  1.3145  1.2932
16801TIP3   OH271893   0.133   4.251  16.411  0.2682 -0.6988 -0.1417
16801TIP3    H171894   0.212   4.213  16.450  0.9311  2.0449  1.3158
16801TIP3    H271895   0.165   4.319  16.353 -0.9622 -1.0741 -1.2889
16802TIP3   OH271896   2.196   3.514   3.196  0.5067 -0.4500  0.3307
16802TIP3    H171897   2.186   3.463   3.116 -1.7997 -0.3702  0.5362
16802TIP3    H271898   2.222   3.601   3.166 -0.2376 -0.4539 -0.3346
16803TIP3   OH271899   0.005   3.073  13.119 -0.3360 -0.0421 -0.5663
16803TIP3    H171900  -0.016   3.119  13.038 -0.6695 -0.6474 -0.8218
16803TIP3    H271901   0.101   3.074  13.123 -0.3054 -0.4532 -1.2140
16804TIP3   OH271902   1.012   1.550  11.702 -0.3199 -0.5323  0.3002
16804TIP3    H171903   0.939   1.591  11.747  2.2476  2.2778  2.1263
16804TIP3    H271904   1.011   1.588  11.614  0.7011  1.8000  1.2766
16805TIP3   OH271905   5.313   4.202   4.939 -0.5671 -0.0090 -0.0297
16805TIP3    H171906   5.397   4.185   4.897  0.3014  2.2144  0.7464
16805TIP3    H271907   5.248   4.182   4.871  0.6185 -0.8378 -0.9351
16806TIP3   OH271908   2.962   0.546  16.247 -0.3465  0.1495  0.5881
16806TIP3    H171909   2.891   0.605  16.269 -0.0084  0.8064 -0.0642
16806TIP3    H271910   3.022   0.599  16.195 -0.4454 -0.9898 -0.7172
16807TIP3   OH271911   5.905   1.400   4.352 -0.1962  0.0969  0.1825
16807TIP3    H171912   5.989   1.427   4.390 -0.3793  0.1844  0.5234
16807TIP3    H271913   5.882   1.471   4.292  0.2387 -0.1791 -0.3213
16808TIP3   OH271914   3.968   0.850   0.581 -0.1783 -0.5348  0.2201
16808TIP3    H171915   3.901   0.825   0.646 -1.0020 -0.1649 -0.4864
16808TIP3    H271916   3.929   0.828   0.497  0.0823  0.8905 -0.2736
16809TIP3   OH271917   5.920   2.076  17.110  0.4113 -0.3137 -0.1333
16809TIP3    H171918   5.962   2.038  17.034 -0.4961  0.1994 -0.8973
16809TIP3    H271919   5.969   2.157  17.127  2.7146 -2.0338  1.8471
16810TIP3   OH271920   2.955   0.852   1.532  0.4073 -0.1460  0.3024
16810TIP3    H171921   3.007   0.795   1.590  1.2775  0.1677 -0.1586
16810TIP3    H271922   2.915   0.792   1.469  2.2440 -0.1652 -0.8955
16811TIP3   OH271923   2.404   4.773   3.364 -0.4664  0.3081 -0.2397
16811TIP3    H171924   2.434   4.799   3.277  0.4359  1.0688  0.2821
16811TIP3    H271925   2.312   4.750   3.352 -0.1109 -0.4743 -1.5604
16812TIP3   OH271926   4.551   0.994  16.785  0.0061  0.1162  1.0971
16812TIP3    H171927   4.596   0.953  16.859  0.7946 -0.0387  0.5397
16812TIP3    H271928   4.592   1.080  16.777  0.9142 -0.4126 -0.0521
16813TIP3   OH271929   5.743   2.714   5.755  0.3882  0.0578 -0.3950
16813TIP3    H171930   5.741   2.703   5.850  1.9055 -0.9792 -0.4654
16813TIP3    H271931   5.823   2.764   5.738  0.9467 -1.1068 -1.2443
16814TIP3   OH271932   4.906   3.816  14.281  0.1323  0.1404 -0.6674
16814TIP3    H171933   4.936   3.892  14.330  0.1858  0.6288 -1.4354
16814TIP3    H271934   4.812   3.827  14.273 -0.1141 -0.7986  0.7484
16815TIP3   OH271935   0.139   2.302  16.576  0.1169 -0.4808  0.0559
16815TIP3    H171936   0.185   2.308  16.660 -1.0021 -1.2705  0.7459
16815TIP3    H271937   0.201   2.260  16.517  0.1305 -1.9286  1.0821
16816TIP3   OH271938   5.882   6.314   0.061  0.0595 -0.0346 -0.6959
16816TIP3    H171939   5.824   6.303   0.137  0.8672 -3.0411 -0.4575
16816TIP3    H271940   5.843   6.387   0.012 -1.3612  0.9359  1.7780
16817TIP3   OH271941   3.359   4.985  13.507  0.0652 -0.4433 -0.0366
16817TIP3    H171942   3.353   5.042  13.430 -0.4818 -1.0823 -0.4714
16817TIP3    H271943   3.453   4.973  13.520  0.1698  0.1359 -0.2663
16818TIP3   OH271944   6.071   0.309  16.515  0.3834  0.0253 -0.0804
16818TIP3    H171945   6.092   0.264  16.598 -1.0404  0.0676  0.3055
16818TIP3    H271946   6.077   0.402  16.537  4.5661  0.1415 -1.1771
16819TIP3   OH271947   2.312   1.354   2.742  0.1679 -0.1821  0.0986
16819TIP3    H171948   2.264   1.277   2.710 -0.0073 -0.9443  2.0654
16819TIP3    H271949   2.400   1.321   2.761  0.6831  0.5851 -0.9329
16820TIP3   OH271950   6.446   1.891  11.555  0.5242 -0.3085  0.0761
16820TIP3    H171951   6.534   1.914  11.582  0.3121  1.6776 -0.8726
16820TIP3    H271952   6.433   1.936  11.471 -0.7788 -1.9602 -0.6638
16821TIP3   OH271953   5.704   3.778  13.636  0.3863 -0.5251  0.5061
16821TIP3    H171954   5.730   3.713  13.572  1.6408  0.3293  0.1409
16821TIP3    H271955   5.681   3.856  13.585  1.5252  0.2072  1.0801
16822TIP3   OH271956   5.916   0.652  14.944 -0.4721  0.1506 -0.3735
16822TIP3    H171957   5.927   0.699  15.027 -0.8855 -1.0771  0.3814
16822TIP3    H271958   5.834   0.687  14.908 -0.8297 -0.0535  0.2353
16823TIP3   OH271959   6.362   4.552   5.173 -0.1465 -0.0970 -0.9849
16823TIP3    H171960   6.421   4.488   5.212  2.7400  2.7649 -0.4370
16823TIP3    H271961   6.308   4.582   5.246  1.1461  0.8629 -0.3948
16824TIP3   OH271962   5.330   6.106   1.271  0.2877  0.6996 -0.1472
16824TIP3    H171963   5.406   6.051   1.291 -0.4680 -0.0201  0.8840
16824TIP3    H271964   5.264   6.078   1.336 -0.4461  2.1312 -0.2668
16825TIP3   OH271965   4.124   1.061   4.895  0.2144 -0.1387  0.5076
16825TIP3    H171966   4.075   1.126   4.845 -1.0708 -0.8585  0.7911
16825TIP3    H271967   4.128   1.096   4.984 -1.8119 -1.0978  1.0255
16826TIP3   OH271968   0.885   6.727  12.091 -0.1208 -0.1945 -0.8287
16826TIP3    H171969   0.910   6.764  12.006 -1.7438 -2.8920 -2.5051
16826TIP3    H271970   0.964   6.682  12.121  1.0139  2.2222 -0.0227
16827TIP3   OH271971   5.849   3.262   3.739  0.6476  0.5864  0.5818
16827TIP3    H171972   5.838   3.316   3.817 -1.4012  2.0492 -0.6806
16827TIP3    H271973   5.782   3.194   3.747  0.6161  0.5740  0.2250
16828TIP3   OH271974   3.405   0.125   3.349 -0.4755 -1.0762 -0.0414
16828TIP3    H171975   3.403   0.053   3.286 -1.6225 -1.4217  0.3611
16828TIP3    H271976   3.312   0.143   3.366 -0.2749  2.1511 -1.9860
16829TIP3   OH271977   3.525   5.369  16.212 -0.6621  0.4140  0.4822
16829TIP3    H171978   3.577   5.295  16.180  0.7826  1.4019  0.5281
16829TIP3    H271979   3.479   5.401  16.135  1.6371  1.8253 -0.3548
16830TIP3   OH271980   4.045   6.333  14.726  0.2051 -0.0855 -0.4625
16830TIP3    H171981   4.020   6.350  14.817  1.1116 -1.1621  0.0009
16830TIP3    H271982   4.014   6.410  14.678  2.0772  1.7322  1.1751
16831TIP3   OH271983   6.261   5.480  13.876 -0.4340 -0.9785 -0.0039
16831TIP3    H171984   6.252   5.407  13.815 -0.6024 -0.6920 -0.3189
16831TIP3    H271985   6.239   5.557  13.825 -0.7387 -0.7532  0.4609
16832TIP3   OH271986   2.517   4.073   2.795 -0.5723  0.4622 -0.0823
16832TIP3    H171987   2.548   4.033   2.714  3.3260 -1.4748  2.2145
16832TIP3    H271988   2.566   4.155   2.801 -0.8234  0.5777  0.3804
16833TIP3   OH271989   3.822   3.051  14.480 -0.5586  1.0546  0.2115
16833TIP3    H171990   3.801   3.074  14.570 -0.3917 -2.0309  1.0727
16833TIP3    H271991   3.916   3.069  14.471 -0.1802 -0.3495  1.2266
16834TIP3   OH271992   3.136   3.335   2.680 -0.0849  0.7899  0.0061
16834TIP3    H171993   3.089   3.273   2.626  0.4244  0.1174  0.3301
16834TIP3    H271994   3.225   3.336   2.644 -0.2276  1.7357 -0.3379
16835TIP3   OH271995   6.187   2.469  14.588  0.2585 -0.3211 -0.6806
16835TIP3    H171996   6.248   2.457  14.514  0.2369 -1.3610 -0.5404
16835TIP3    H271997   6.242   2.456  14.665  0.1128 -0.0241 -0.5269
16836TIP3   OH271998   5.174   4.260  13.634  0.7538 -0.2480  0.3043
16836TIP3    H171999   5.257   4.219  13.660  1.3651  0.3707 -0.6554
16836TIP3    H272000   5.182   4.273  13.540  0.1799  1.1956  0.4423
16837TIP3   OH272001   2.055   1.855   5.951  0.1698  0.4738 -0.1387
16837TIP3    H172002   2.107   1.837   6.030 -0.9696 -0.1050  0.4912
16837TIP3    H272003   1.965   1.859   5.982 -0.2191  1.0063 -1.3027
16838TIP3   OH272004   5.598   0.983   3.743 -0.2234 -0.7779 -0.0721
16838TIP3    H172005   5.555   0.917   3.797 -0.5356 -0.3994  0.1411
16838TIP3    H272006   5.635   0.934   3.669 -1.8395 -0.9696 -0.7612
16839TIP3   OH272007   1.942   3.176   6.432 -0.1104 -0.1644  0.0497
16839TIP3    H172008   1.993   3.127   6.367  0.6417 -0.7591  1.0752
16839TIP3    H272009   1.991   3.257   6.445 -1.0307  0.6005 -1.1921
16840TIP3   OH272010   5.610   2.355  12.264 -0.4753  0.9044 -0.0652
16840TIP3    H172011   5.638   2.433  12.216  2.9415 -0.4734 -0.5053
16840TIP3    H272012   5.616   2.379  12.356 -0.5548  1.5281 -0.2250
16841TIP3   OH272013   5.582   3.943   0.910 -0.4743 -0.3589 -0.5799
16841TIP3    H172014   5.542   3.983   0.833  0.5063  0.9488 -0.4194
16841TIP3    H272015   5.594   4.015   0.972  0.5930 -1.0349  0.0102
16842TIP3   OH272016   1.510   2.058   1.842  0.7534  0.0495 -0.1546
16842TIP3    H172017   1.588   2.112   1.833  1.7058 -1.4244 -0.7762
16842TIP3    H272018   1.534   1.990   1.904  0.0712 -0.6191 -0.6105
16843TIP3   OH272019   0.711   4.727   1.330 -0.1471  0.3815  0.0005
16843TIP3    H172020   0.775   4.780   1.378 -1.5341  0.6245  1.6289
16843TIP3    H272021   0.637   4.786   1.317 -0.2402 -0.0415 -1.4603
16844TIP3   OH272022   5.002   1.162  15.282 -0.5308  0.1729  0.0183
16844TIP3    H172023   5.092   1.150  15.251 -0.3796  1.0834  0.0958
16844TIP3    H272024   4.981   1.253  15.261 -2.1487 -0.6078 -1.8414
16845TIP3   OH272025   4.575   5.374   5.598 -0.4978  0.4838  0.3999
16845TIP3    H172026   4.543   5.389   5.509 -2.0882 -0.6178  0.7726
16845TIP3    H272027   4.506   5.409   5.655 -0.8132 -1.4293  1.2248
16846TIP3   OH272028   2.681   4.716   3.475 -0.2438 -0.2137  0.0946
16846TIP3    H172029   2.694   4.787   3.537  1.8150  0.4935 -1.0964
16846TIP3    H272030   2.587   4.715   3.458 -0.5704  0.7589  1.8280
16847TIP3   OH272031   0.696   4.175   5.878 -0.0904  0.4423 -0.5687
16847TIP3    H172032   0.608   4.146   5.901  0.7644 -1.7431  0.1558
16847TIP3    H272033   0.710   4.253   5.932 -0.4423 -1.0219  1.7205
16848TIP3   OH272034   4.575   4.589  15.208  0.3932  0.7602 -0.7332
16848TIP3    H172035   4.534   4.652  15.267  0.4831  1.5495 -1.5074
16848TIP3    H272036   4.656   4.564  15.253 -1.6361 -2.0258  1.5746
16849TIP3   OH272037   4.927   0.299  14.684  0.3949  0.7335  0.2085
16849TIP3    H172038   4.926   0.288  14.589 -0.1194 -0.4556  0.3380
16849TIP3    H272039   4.927   0.393  14.698  0.9224  0.9143 -0.9765
16850TIP3   OH272040   0.317   5.679  12.968 -0.7412  0.8488 -0.0889
16850TIP3    H172041   0.351   5.768  12.967  1.9616 -0.1444  0.8442
16850TIP3    H272042   0.322   5.652  13.060 -1.2713 -0.3588 -0.4011
16851TIP3   OH272043   4.587   4.079   5.234  0.9627  0.0117  0.2354
16851TIP3    H172044   4.638   4.040   5.306  1.8767  1.7337  0.5347
16851TIP3    H272045   4.590   4.173   5.251  0.9718  0.4156 -1.9325
16852TIP3   OH272046   3.443   6.451   5.369 -0.5306  0.1913  0.7106
16852TIP3    H172047   3.535   6.452   5.341  0.1858 -1.9275  2.8510
16852TIP3    H272048   3.401   6.387   5.311 -0.8478  1.5972 -0.6712
16853TIP3   OH272049   4.577   1.874  15.628 -0.1019  0.3908 -0.2960
16853TIP3    H172050   4.573   1.857  15.534  0.2472 -2.0399  0.1000
16853TIP3    H272051   4.647   1.818  15.660 -0.0260  1.4009  1.3980
16854TIP3   OH272052   5.619   0.596  13.501 -0.7186  0.4838 -0.6057
16854TIP3    H172053   5.576   0.664  13.449 -0.6093 -0.1089 -1.4673
16854TIP3    H272054   5.711   0.623  13.503 -0.9720  1.3143  0.5570
16855TIP3   OH272055   6.195   2.775  16.693  0.0141 -0.3925  0.4250
16855TIP3    H172056   6.170   2.703  16.635 -0.7362 -0.5068  0.8962
16855TIP3    H272057   6.121   2.835  16.690  0.6479  0.3726  0.0226
16856TIP3   OH272058   2.504   2.689  14.274  0.4978 -0.0401 -0.1792
16856TIP3    H172059   2.572   2.638  14.232  0.5491 -0.2447  0.1495
16856TIP3    H272060   2.534   2.779  14.268  0.2747 -0.0183 -1.0088
16857TIP3   OH272061   5.562   4.701  10.948 -0.2358 -0.1871  0.5888
16857TIP3    H172062   5.523   4.614  10.945  2.1203 -1.3454  1.7508
16857TIP3    H272063   5.620   4.699  11.024 -0.1225  2.4110  0.6394
16858TIP3   OH272064   1.227   2.187   5.127  0.6777 -0.6543 -0.3864
16858TIP3    H172065   1.249   2.095   5.116  1.7347 -0.4399 -0.1133
16858TIP3    H272066   1.264   2.230   5.049 -0.2552 -0.5297 -0.7701
16859TIP3   OH272067   1.063   5.105   4.117 -0.7072  0.2940 -0.2781
16859TIP3    H172068   0.987   5.159   4.136 -0.6478  0.3613 -0.2349
16859TIP3    H272069   1.042   5.064   4.033 -0.6581  0.5524 -0.4171
16860TIP3   OH272070   5.563   1.470   5.742  0.5009  0.0250 -0.0796
16860TIP3    H172071   5.562   1.377   5.718  0.5532  0.1018 -0.3779
16860TIP3    H272072   5.612   1.512   5.671 -0.7975  0.4905 -0.7065
16861TIP3   OH272073   4.946   5.602   1.093  0.7782 -0.1003 -0.2961
16861TIP3    H172074   5.019   5.632   1.147  1.4601  0.4808 -1.5173
16861TIP3    H272075   4.972   5.624   1.003 -1.0805  0.4770 -0.6986
16862TIP3   OH272076   3.631   0.585  14.953  0.3432  0.1290  0.2041
16862TIP3    H172077   3.638   0.533  15.033  0.7780  0.0379  0.1072
16862TIP3    H272078   3.714   0.571  14.908  0.1912  0.3674 -0.1507
16863TIP3   OH272079   1.227   4.501  17.018  0.2200 -0.1679  0.0557
16863TIP3    H172080   1.221   4.406  17.018  1.5837 -0.2669  0.8218
16863TIP3    H272081   1.137   4.531  17.009 -0.3631 -1.5364  1.2082
16864TIP3   OH272082   4.473   4.931  14.772 -0.2070 -0.1193  0.0092
16864TIP3    H172083   4.411   4.973  14.832  0.0788  1.5661 -0.8512
16864TIP3    H272084   4.437   4.843  14.758 -0.6810 -0.2833  2.0222
16865TIP3   OH272085   3.971   6.101  12.008 -0.0527 -0.2430  0.7803
16865TIP3    H172086   3.901   6.085  12.071 -0.5858 -1.7600 -0.1579
16865TIP3    H272087   3.956   6.190  11.976 -0.4931  0.0792  1.8971
16866TIP3   OH272088   6.241   1.605   3.092 -0.5640 -0.4851 -1.1435
16866TIP3    H172089   6.265   1.686   3.046 -2.9089  0.8920 -0.0260
16866TIP3    H272090   6.179   1.633   3.159 -1.2196 -3.2008 -0.5643
16867TIP3   OH272091   3.390   2.577   1.350 -0.3368 -0.3810 -0.0943
16867TIP3    H172092   3.441   2.515   1.402 -2.2425 -1.5721  0.4398
16867TIP3    H272093   3.322   2.523   1.309 -1.2587  1.1688 -0.6553
16868TIP3   OH272094   0.537   0.146  15.234  0.1570  0.2844  0.5009
16868TIP3    H172095   0.622   0.123  15.270 -0.0846 -0.3427  0.6792
16868TIP3    H272096   0.534   0.103  15.148  0.0189  0.3003  0.4971
16869TIP3   OH272097   1.895   3.874   5.724 -0.1218  0.9956 -0.6178
16869TIP3    H172098   1.817   3.825   5.697  0.0245 -1.3477  2.9320
16869TIP3    H272099   1.863   3.934   5.792  1.2326 -0.4515  1.3442
16870TIP3   OH272100   0.847   1.111   3.859  0.1309  0.4654  0.4465
16870TIP3    H172101   0.855   1.079   3.949  2.0497 -2.2344 -0.6172
16870TIP3    H272102   0.930   1.156   3.842 -0.0231  0.5334 -0.1373
16871TIP3   OH272103   6.649   6.005  15.186  0.4102  0.8284 -0.0752
16871TIP3    H172104   6.578   6.067  15.201 -0.4086 -0.2145  0.4505
16871TIP3    H272105   6.647   5.988  15.091  0.9355  1.9326 -0.2948
16872TIP3   OH272106   0.813   3.417   2.257 -0.4294 -0.0613 -0.1157
16872TIP3    H172107   0.907   3.416   2.239 -0.6498  0.0032 -1.2848
16872TIP3    H272108   0.776   3.474   2.189 -1.5313 -1.4991 -0.7496
16873TIP3   OH272109   6.807   4.707  11.254  0.3462  0.0190  0.1180
16873TIP3    H172110   6.749   4.755  11.194 -0.3512 -0.4663  0.3997
16873TIP3    H272111   6.777   4.616  11.249 -0.4624  0.1645  2.0559
16874TIP3   OH272112   1.155   5.808  15.450 -0.1703 -0.1889  0.0314
16874TIP3    H172113   1.122   5.865  15.520 -1.4854  0.0643 -0.7739
16874TIP3    H272114   1.146   5.719  15.485 -0.5098 -0.0454  0.3164
16875TIP3   OH272115   0.432   3.954  12.241 -0.1504 -0.4764 -0.3348
16875TIP3    H172116   0.405   3.950  12.150 -1.9636  0.1010  0.1583
16875TIP3    H272117   0.504   4.017  12.242 -0.7792  0.2680 -1.2125
16876TIP3   OH272118   3.618   5.330   3.670  0.6570 -0.1066  0.7073
16876TIP3    H172119   3.596   5.337   3.577  1.8532  1.9123  0.5449
16876TIP3    H272120   3.556   5.266   3.705  1.6335 -2.5655 -1.9254
16877TIP3   OH272121   2.605   3.867  13.268  0.4829 -0.0103 -0.3859
16877TIP3    H172122   2.622   3.839  13.358  1.2359  0.5599 -0.3478
16877TIP3    H272123   2.585   3.786  13.222 -1.8903 -0.0997  0.7071
16878TIP3   OH272124   5.525   6.503   1.130 -0.2530  0.0354  0.1985
16878TIP3    H172125   5.514   6.438   1.199  3.9818 -0.9034  0.1295
16878TIP3    H272126   5.547   6.584   1.177 -0.2558  0.1112  0.0681
16879TIP3   OH272127   0.721   5.833   4.519  0.1260  0.1220 -0.0153
16879TIP3    H172128   0.803   5.789   4.500 -0.2780 -0.3769 -0.6416
16879TIP3    H272129   0.744   5.904   4.579  1.1073  0.4217 -0.7552
16880TIP3   OH272130   1.283   1.188   1.507 -0.4509 -0.3267  0.0662
16880TIP3    H172131   1.349   1.165   1.573 -0.7293  1.0585  0.8356
16880TIP3    H272132   1.306   1.277   1.481 -0.5083 -0.7601 -1.5300
16881TIP3   OH272133   1.739   2.435   5.884  0.5581 -0.1001 -0.0561
16881TIP3    H172134   1.692   2.514   5.856  0.4374 -0.2098 -0.1585
16881TIP3    H272135   1.762   2.452   5.975  1.5299  0.5410 -0.4015
16882TIP3   OH272136   6.806   0.005  15.924 -0.2039  0.2271 -0.0926
16882TIP3    H172137   6.821  -0.082  15.962  2.2368  0.1066 -1.2329
16882TIP3    H272138   6.755  -0.012  15.845  0.3840 -0.1935 -0.3858
16883TIP3   OH272139   1.078   3.726   1.813  0.2530  0.0952 -0.7681
16883TIP3    H172140   1.015   3.672   1.764  0.5672 -2.1348  1.1945
16883TIP3    H272141   1.162   3.709   1.770  0.4913 -1.6780  0.3709
16884TIP3   OH272142   2.241   0.288  16.248  0.0746  0.0023 -0.2917
16884TIP3    H172143   2.324   0.248  16.276 -1.4188 -1.2279  2.4629
16884TIP3    H272144   2.259   0.316  16.158  3.5476 -0.0709  0.2750
16885TIP3   OH272145   2.595   2.206  11.903 -0.1125  0.2527  0.7209
16885TIP3    H172146   2.540   2.153  11.960 -0.0858  1.4212  1.8488
16885TIP3    H272147   2.537   2.233  11.832 -0.2909 -0.7239  0.4891
16886TIP3   OH272148   1.226   3.047  16.092  1.1879 -0.0996 -0.1455
16886TIP3    H172149   1.314   3.029  16.125  1.5830  0.2298 -1.0072
16886TIP3    H272150   1.173   2.973  16.123  2.2365 -1.4437 -1.5052
16887TIP3   OH272151   5.367   0.736   0.724 -0.2770 -0.2067  0.5868
16887TIP3    H172152   5.449   0.709   0.766 -0.7381 -1.7430  0.5138
16887TIP3    H272153   5.316   0.776   0.795 -0.0386 -0.5452  0.9539
16888TIP3   OH272154   5.770   3.022   0.673 -0.3065 -0.1169  0.3389
16888TIP3    H172155   5.837   2.953   0.674  0.1163  0.2786 -0.4931
16888TIP3    H272156   5.687   2.975   0.674 -0.0221 -0.6642 -1.0422
16889TIP3   OH272157   0.434   0.945   5.388  0.3503  0.3130  0.2760
16889TIP3    H172158   0.388   0.866   5.418 -0.8431  0.6861 -0.5295
16889TIP3    H272159   0.397   1.015   5.442  0.5021  0.5036  0.1323
16890TIP3   OH272160   2.539   6.039  12.485  0.0236 -0.1851  0.3222
16890TIP3    H172161   2.508   6.018  12.397 -0.0382 -0.3120  0.3740
16890TIP3    H272162   2.571   5.955  12.520  0.6657 -0.0034  0.1726
16891TIP3   OH272163   0.783   4.832   4.954 -0.3458  0.1586  0.2806
16891TIP3    H172164   0.813   4.784   4.876  0.5343 -0.5812  1.0641
16891TIP3    H272165   0.789   4.924   4.929  0.6162 -0.0526 -0.2781
16892TIP3   OH272166   2.732   6.549   1.971 -0.1405 -0.0745  0.1511
16892TIP3    H172167   2.672   6.482   2.003 -0.6366  0.8163  1.1221
16892TIP3    H272168   2.678   6.603   1.913 -0.4355  1.0601  1.4650
16893TIP3   OH272169   0.771   5.957  11.825 -0.0555  0.1597 -0.2456
16893TIP3    H172170   0.852   5.948  11.775 -0.3970  0.3782 -0.8447
16893TIP3    H272171   0.800   5.969  11.916  0.6749  2.5400 -0.7502
16894TIP3   OH272172   4.990   2.159   5.619  0.7307 -0.0899  0.1768
16894TIP3    H172173   5.013   2.250   5.638  2.8806 -0.6612  0.3733
16894TIP3    H272174   4.930   2.165   5.544  0.7889  1.4797  0.2373
16895TIP3   OH272175   3.663   5.386  17.285 -0.2057 -0.4422 -0.2154
16895TIP3    H172176   3.674   5.321  17.354  0.4171 -0.5294 -0.3904
16895TIP3    H272177   3.718   5.354  17.213  0.2117  0.3468 -0.2560
16896TIP3   OH272178   5.969   5.606   3.809  0.2199 -0.6960 -0.4525
16896TIP3    H172179   5.902   5.675   3.803  0.0731 -0.6971  1.0501
16896TIP3    H272180   5.920   5.528   3.837  0.3355 -1.5058 -2.4267
16897TIP3   OH272181   1.988   4.132  15.212 -0.2409  0.5700  0.6776
16897TIP3    H172182   1.941   4.210  15.241  0.2621  0.2246  2.4815
16897TIP3    H272183   2.069   4.131  15.264 -0.7188 -1.6924  1.4787
16898TIP3   OH272184   3.147   4.653  16.932  0.2131 -0.1707  0.6694
16898TIP3    H172185   3.193   4.709  16.870  0.8589 -1.3595  0.0778
16898TIP3    H272186   3.211   4.635  17.001 -0.3126  0.6424  1.3920
16899TIP3   OH272187   0.842   4.629  11.780  0.0235 -0.2595  0.1372
16899TIP3    H172188   0.828   4.723  11.771  0.6844 -0.0527  1.2493
16899TIP3    H272189   0.785   4.603  11.853  2.4805 -0.0824  2.1710
16900TIP3   OH272190   0.469   3.772   4.201 -0.0268  0.3297  0.7964
16900TIP3    H172191   0.385   3.799   4.238  0.0928  0.2045  1.1671
16900TIP3    H272192   0.526   3.762   4.277  0.3250  0.4181  0.5451
16901TIP3   OH272193   3.705   6.283   4.828 -0.2683  0.1515  0.2258
16901TIP3    H172194   3.720   6.339   4.905  1.2158  0.6187 -0.3799
16901TIP3    H272195   3.612   6.263   4.831 -0.5947  1.6781  1.1352
16902TIP3   OH272196   1.448   5.586  14.256 -0.1550 -0.1628 -0.0464
16902TIP3    H172197   1.491   5.575  14.171  1.6586  1.7632  0.5689
16902TIP3    H272198   1.412   5.500  14.276  3.8732 -2.0759 -0.4225
16903TIP3   OH272199   0.053   1.363   4.562  0.2265  0.0076 -0.1996
16903TIP3    H172200  -0.027   1.323   4.596  0.8595 -1.0259  0.0801
16903TIP3    H272201   0.042   1.457   4.580 -0.0563 -0.3501  1.6001
16904TIP3   OH272202   0.299   3.466  13.296 -0.5402  0.0606  0.3911
16904TIP3    H172203   0.261   3.446  13.211  0.6014 -1.7393  0.2661
16904TIP3    H272204   0.322   3.559  13.292 -2.2748  0.4639 -0.5367
16905TIP3   OH272205   5.816   6.017   1.555 -0.1595  0.7009  0.3173
16905TIP3    H172206   5.790   5.943   1.609 -0.2753 -0.3653 -1.1801
16905TIP3    H272207   5.900   6.045   1.592  1.2421 -1.9061 -0.7838
16906TIP3   OH272208   1.684   6.242   1.918 -0.1055 -0.3926 -0.4918
16906TIP3    H172209   1.727   6.207   1.840  1.4455 -2.2203  1.1156
16906TIP3    H272210   1.618   6.176   1.940 -0.7748  0.2898 -0.4613
16907TIP3   OH272211   2.544   5.189   3.352  0.5455 -0.2931  0.0235
16907TIP3    H172212   2.514   5.161   3.266  1.3716 -0.3500 -0.2553
16907TIP3    H272213   2.516   5.119   3.411  1.5247 -1.1386 -0.4822
16908TIP3   OH272214   6.170   5.858  16.901 -0.0003  0.0975  0.2153
16908TIP3    H172215   6.235   5.905  16.848 -1.1369 -0.5907 -1.8309
16908TIP3    H272216   6.189   5.765  16.884 -1.5453 -0.1035 -0.4272
16909TIP3   OH272217   3.041   4.704  12.681  0.0286  0.2768  0.6049
16909TIP3    H172218   3.048   4.660  12.766 -1.8368 -1.8162 -0.2673
16909TIP3    H272219   3.112   4.666  12.629  0.9538  1.3059  1.0876
16910TIP3   OH272220   1.131   4.823   1.880 -0.0180  0.2504  0.0147
16910TIP3    H172221   1.187   4.759   1.837 -0.1822  0.6280 -0.7865
16910TIP3    H272222   1.189   4.871   1.939  0.0818 -0.6929  0.6896
16911TIP3   OH272223   0.109   4.705  14.032 -0.0971 -0.4016 -0.4036
16911TIP3    H172224   0.032   4.744  14.072  0.6585  1.2477 -0.4990
16911TIP3    H272225   0.183   4.751  14.072  0.9644 -3.3314  1.2023
16912TIP3   OH272226   5.148   6.124  13.952  0.6212  0.0998 -0.3283
16912TIP3    H172227   5.101   6.157  14.029  3.7225 -0.4120  1.8994
16912TIP3    H272228   5.105   6.040  13.933 -1.3398  1.0663 -0.2933
16913TIP3   OH272229   0.427   2.678   1.988 -0.2783 -0.2579 -0.6383
16913TIP3    H172230   0.417   2.763   1.944 -2.5478  1.0862  2.3254
16913TIP3    H272231   0.481   2.696   2.064 -0.1535 -1.6188 -0.3920
16914TIP3   OH272232   1.643   6.067  13.177 -0.0332  0.9988 -0.3190
16914TIP3    H172233   1.565   6.037  13.130 -0.5380  1.1215  0.4163
16914TIP3    H272234   1.638   6.163  13.171  1.1160  0.9628 -1.9371
16915TIP3   OH272235   0.942   0.729  11.931 -0.2762 -0.2790  0.5678
16915TIP3    H172236   1.024   0.771  11.906  0.0349 -1.0777  0.2322
16915TIP3    H272237   0.968   0.657  11.988 -0.8568  0.4394  1.7707
16916TIP3   OH272238   3.322   5.160   5.531 -0.1395  0.8188 -0.2773
16916TIP3    H172239   3.244   5.214   5.542 -0.2629  0.6669 -0.4155
16916TIP3    H272240   3.290   5.076   5.498 -0.0819  0.2331  1.1225
16917TIP3   OH272241   3.005   5.972  17.007 -0.1362 -0.3845  0.2589
16917TIP3    H172242   2.975   6.052  17.050 -0.3003  0.1796 -0.8872
16917TIP3    H272243   3.100   5.974  17.018 -0.1481 -0.0709  0.3193
16918TIP3   OH272244   4.594   3.558   3.594 -0.4383 -0.1075 -0.6899
16918TIP3    H172245   4.598   3.476   3.544 -3.9865 -0.7638 -0.0315
16918TIP3    H272246   4.540   3.617   3.541 -2.0034  0.0927  1.0384
16919TIP3   OH272247   4.644   6.141  12.208 -0.1413 -0.5754 -0.2770
16919TIP3    H172248   4.583   6.179  12.144  1.9410 -0.1981 -2.1160
16919TIP3    H272249   4.623   6.048  12.209 -1.3947 -0.3001 -0.1383
16920TIP3   OH272250   3.985   1.463   1.374  0.2255 -0.4386 -0.1542
16920TIP3    H172251   3.978   1.373   1.343  1.2132 -0.3951 -0.5263
16920TIP3    H272252   3.896   1.486   1.401 -0.3718 -0.9563 -1.6266
16921TIP3   OH272253   2.052   3.904   6.524 -0.7408 -0.0451  0.3521
16921TIP3    H172254   2.112   3.844   6.479 -0.4205  0.0563  0.6366
16921TIP3    H272255   2.073   3.892   6.617  0.8248  2.0732  0.3204
16922TIP3   OH272256   6.759   0.906  14.457  0.5508 -0.2226 -0.0844
16922TIP3    H172257   6.734   0.987  14.502  0.4298  0.4170 -1.2687
16922TIP3    H272258   6.763   0.931  14.365 -0.2060 -1.7453 -0.5506
16923TIP3   OH272259   3.352   5.459  15.968  0.1141 -0.2297 -0.0610
16923TIP3    H172260   3.350   5.529  15.902  1.8238  0.8960  1.0439
16923TIP3    H272261   3.387   5.384  15.921 -1.8373 -0.4235 -1.2946
16924TIP3   OH272262   3.744   3.781   6.265 -0.4512 -0.0606 -0.2914
16924TIP3    H172263   3.720   3.859   6.316 -2.2730 -0.4015 -0.5894
16924TIP3    H272264   3.816   3.811   6.209  1.0567  0.5242  1.8914
16925TIP3   OH272265   5.098   5.719   1.307 -0.3750 -0.0528  0.0104
16925TIP3    H172266   5.133   5.722   1.396 -0.7431 -0.8383  0.1875
16925TIP3    H272267   5.058   5.805   1.294 -0.7395 -0.0958  0.7837
16926TIP3   OH272268   5.027   6.228   4.680  0.2926  0.6757 -0.4139
16926TIP3    H172269   5.027   6.137   4.649  0.5537  0.9752 -1.3163
16926TIP3    H272270   5.028   6.280   4.600 -1.0757  1.4863  0.0862
16927TIP3   OH272271   3.071   2.323   0.848  0.0057  0.2180  0.1402
16927TIP3    H172272   3.014   2.373   0.789  1.4942  0.9221 -0.7293
16927TIP3    H272273   3.144   2.295   0.792 -1.2006 -3.7368  0.3694
16928TIP3   OH272274   4.751   4.598   2.684  0.4128  0.1948 -0.4756
16928TIP3    H172275   4.745   4.684   2.725  1.3578  0.6789 -1.3351
16928TIP3    H272276   4.814   4.550   2.738 -2.4104 -1.0644  1.8702
16929TIP3   OH272277   2.390   5.495   2.771  0.1190 -0.3172  0.5724
16929TIP3    H172278   2.336   5.450   2.836  0.7118 -2.3352 -0.2898
16929TIP3    H272279   2.454   5.544   2.822 -1.6291  0.9983  1.5716
16930TIP3   OH272280   5.431   2.274   1.477 -0.0094 -0.1516 -0.4269
16930TIP3    H172281   5.339   2.263   1.453 -0.2377  0.4097  0.1656
16930TIP3    H272282   5.480   2.252   1.397 -0.7332  1.0540 -1.2200
16931TIP3   OH272283   5.947   3.230  11.185 -0.5020  0.6828 -0.3933
16931TIP3    H172284   5.894   3.282  11.245 -1.4798 -1.5271  0.7079
16931TIP3    H272285   5.892   3.219  11.107 -0.7933  0.2203 -0.1207
16932TIP3   OH272286   5.419   2.022  17.200  0.2138  0.4639  0.1381
16932TIP3    H172287   5.446   2.093  17.257  0.6113  0.0001  0.5334
16932TIP3    H272288   5.495   2.004  17.145  0.3038 -0.0329  0.4230
16933TIP3   OH272289   2.495   0.264   4.652  0.5493 -0.3830 -0.0191
16933TIP3    H172290   2.466   0.333   4.593  1.0246 -0.7439 -0.6760
16933TIP3    H272291   2.429   0.263   4.721  0.2111  0.3130 -0.3285
16934TIP3   OH272292   0.331   0.369   5.964  0.2758  0.1777 -0.0829
16934TIP3    H172293   0.333   0.274   5.974 -0.7975  0.3893  2.5234
16934TIP3    H272294   0.349   0.403   6.051  0.2758  2.3704 -0.9120
16935TIP3   OH272295   6.505   1.566  13.854  0.4083 -0.2336  0.5564
16935TIP3    H172296   6.482   1.629  13.785  0.9158  0.6718  1.1984
16935TIP3    H272297   6.466   1.602  13.934  0.2457 -1.0228  0.8411
16936TIP3   OH272298   3.934   2.042  15.899 -0.3442 -0.1107 -0.3375
16936TIP3    H172299   3.850   1.997  15.887 -0.9712  1.1153 -0.5949
16936TIP3    H272300   3.970   2.049  15.810  1.0239 -2.4587 -0.0315
16937TIP3   OH272301   6.212   4.975  10.605  0.0849  0.6870 -0.0498
16937TIP3    H172302   6.132   4.949  10.560 -0.2041  1.6946 -0.1159
16937TIP3    H272303   6.282   4.957  10.541 -0.2101  0.9869 -0.4589
16938TIP3   OH272304   1.209   5.640   0.843 -0.1924  0.1784 -0.0811
16938TIP3    H172305   1.263   5.562   0.843  1.1451  1.0850  0.0546
16938TIP3    H272306   1.154   5.632   0.921 -1.9776 -1.8882 -1.4773
16939TIP3   OH272307   2.810   5.637   5.207  0.7176 -0.1495 -0.1623
16939TIP3    H172308   2.717   5.619   5.197  0.8140 -1.2650  0.9718
16939TIP3    H272309   2.819   5.676   5.294  1.2984  0.0948 -0.3224
16940TIP3   OH272310   4.525   2.701  10.431 -0.7074  0.0214  0.5142
16940TIP3    H172311   4.450   2.735  10.382 -0.1434  1.1579  0.4236
16940TIP3    H272312   4.514   2.736  10.520  0.8361  1.9398 -0.0382
16941TIP3   OH272313   4.924   1.835   2.546  0.6969  0.2552  0.8603
16941TIP3    H172314   4.952   1.913   2.499 -0.0099  0.8630  1.4161
16941TIP3    H272315   4.918   1.863   2.638  0.7495 -0.5378  1.1152
16942TIP3   OH272316   0.912   6.302  10.853  0.1088 -0.3349 -0.6936
16942TIP3    H172317   0.869   6.341  10.929 -0.0112  1.8558 -1.8576
16942TIP3    H272318   0.841   6.288  10.790  0.4538 -0.6646 -1.0115
16943TIP3   OH272319   2.748   4.488   3.345 -0.1119 -0.6357  0.0585
16943TIP3    H172320   2.679   4.423   3.361 -0.8522 -0.1531 -1.1053
16943TIP3    H272321   2.725   4.562   3.400 -0.5138 -0.4857 -0.3091
16944TIP3   OH272322   5.890   1.926   3.401  0.4298  0.3693 -0.1467
16944TIP3    H172323   5.948   1.960   3.469 -0.4304  0.9876  0.2757
16944TIP3    H272324   5.825   1.874   3.449 -1.0485  2.0093 -0.3595
16945TIP3   OH272325   6.654   0.131  14.365 -0.1695 -0.4140  0.1963
16945TIP3    H172326   6.745   0.149  14.389  0.2239 -0.0561 -1.5644
16945TIP3    H272327   6.657   0.100  14.275 -1.5761 -2.6235  0.8563
16946TIP3   OH272328   3.775   3.982  14.163 -0.1232  0.4874 -0.1116
16946TIP3    H172329   3.837   4.036  14.113  0.6888 -1.5636 -1.3847
16946TIP3    H272330   3.823   3.901  14.180 -0.8267  0.6586  2.9795
16947TIP3   OH272331   0.382   2.298  16.229  0.5571  0.0706  0.5035
16947TIP3    H172332   0.328   2.297  16.150 -0.5264 -1.1879  1.2420
16947TIP3    H272333   0.357   2.219  16.276  4.7854 -1.8410 -0.2939
16948TIP3   OH272334   2.215   5.045  11.427 -0.0929 -0.0720  1.1486
16948TIP3    H172335   2.170   5.050  11.511 -0.1563  0.0628  1.1066
16948TIP3    H272336   2.288   5.106  11.435 -1.9823  2.4411 -0.0521
16949TIP3   OH272337   3.015   5.649  14.441  0.2383  0.1333  0.0487
16949TIP3    H172338   3.092   5.596  14.462 -0.5669 -1.7161 -1.5191
16949TIP3    H272339   3.051   5.733  14.412  1.6575 -0.4905 -0.0400
16950TIP3   OH272340   5.987   3.220   2.575  0.0047 -0.0885  0.7248
16950TIP3    H172341   6.052   3.257   2.515 -0.1346 -3.1779 -1.4533
16950TIP3    H272342   6.039   3.176   2.642  0.1499  0.8695  1.2506
16951TIP3   OH272343   5.819   4.042  10.703 -0.0428 -0.2377  0.0142
16951TIP3    H172344   5.901   4.065  10.658  0.9888 -1.0073  1.4436
16951TIP3    H272345   5.824   3.947  10.714  0.0027  0.0109  2.2568
16952TIP3   OH272346   3.534   1.474   5.988 -0.1513  0.4840 -0.3601
16952TIP3    H172347   3.622   1.449   6.018  0.8254  2.5168 -1.4637
16952TIP3    H272348   3.493   1.391   5.962  1.4267 -0.4871  0.1760
16953TIP3   OH272349   0.939   1.593  10.583 -0.1035  0.0057  0.3826
16953TIP3    H172350   0.871   1.548  10.633  0.0792  0.3478  0.9415
16953TIP3    H272351   1.012   1.531  10.582  0.2733  0.4287  1.4528
16954TIP3   OH272352   5.594   4.147  13.302  0.2634 -0.4626 -0.6060
16954TIP3    H172353   5.564   4.060  13.273  2.1648 -1.6670  0.9277
16954TIP3    H272354   5.689   4.141  13.302  0.3922  0.8031  1.9451
16955TIP3   OH272355   0.692   4.641   0.348  0.4451  0.2873 -0.2508
16955TIP3    H172356   0.738   4.722   0.368  0.9588  0.8078 -3.2628
16955TIP3    H272357   0.746   4.599   0.281 -0.4124 -2.0032  0.4358
16956TIP3   OH272358   5.210   6.297  13.093  0.2703  0.9855  0.2656
16956TIP3    H172359   5.125   6.287  13.050  0.3328 -0.2174  0.3920
16956TIP3    H272360   5.197   6.258  13.179  1.6848 -1.6517 -0.6691
16957TIP3   OH272361   1.336   6.214  16.791  0.5472  0.4424  0.6772
16957TIP3    H172362   1.250   6.178  16.769  1.1691  1.2343 -3.2925
16957TIP3    H272363   1.384   6.139  16.829 -1.1284 -0.5716  0.8476
16958TIP3   OH272364   0.604   1.075  16.270 -0.4383 -0.1113  0.1446
16958TIP3    H172365   0.666   1.006  16.292 -0.8984 -1.0895 -1.5951
16958TIP3    H272366   0.530   1.030  16.230 -1.7751  1.1640  1.1039
16959TIP3   OH272367   3.919   0.558   1.390  0.6141  0.3824  0.6635
16959TIP3    H172368   3.880   0.524   1.310  1.4024  1.1180 -0.0492
16959TIP3    H272369   4.003   0.511   1.397  0.7457  0.6416  0.8171
16960TIP3   OH272370   5.898   3.950  12.829 -0.5917 -0.1927 -0.0893
16960TIP3    H172371   5.918   3.998  12.749  0.8982  1.7514  1.4130
16960TIP3    H272372   5.921   3.859  12.809  3.3390  0.8850 -0.6717
16961TIP3   OH272373   4.315   6.283   4.200 -0.1088  0.4303  0.4034
16961TIP3    H172374   4.390   6.318   4.153  1.8156 -0.8914  2.3633
16961TIP3    H272375   4.324   6.320   4.288  0.7944 -3.1954  1.9050
16962TIP3   OH272376   6.180   6.063  14.926  0.4913 -0.2723  0.0853
16962TIP3    H172377   6.107   6.002  14.918 -0.5748  1.0074 -0.0807
16962TIP3    H272378   6.214   6.050  15.015 -2.1398  1.5500  1.4115
16963TIP3   OH272379   6.654   2.583   4.661 -0.3218  0.3263 -0.7144
16963TIP3    H172380   6.653   2.592   4.756  0.2954 -0.7998 -0.5815
16963TIP3    H272381   6.613   2.498   4.645 -2.1515  1.3635 -1.5854
16964TIP3   OH272382   3.261   4.329   3.301  0.2896 -0.1294 -0.5604
16964TIP3    H172383   3.174   4.300   3.273  0.9911 -1.6104 -1.2773
16964TIP3    H272384   3.295   4.256   3.354  2.3987 -1.0027 -3.0172
16965TIP3   OH272385   6.259   0.265  12.945 -0.1294 -0.2707 -0.6025
16965TIP3    H172386   6.338   0.298  12.903 -0.3478  1.3662  0.2575
16965TIP3    H272387   6.187   0.299  12.891 -0.2849 -1.5906 -1.2683
16966TIP3   OH272388   1.066   4.763  13.370  0.0592 -0.1622  0.0361
16966TIP3    H172389   1.098   4.728  13.287  0.6859  1.3542 -0.3762
16966TIP3    H272390   0.971   4.768  13.359  0.0241 -1.1322 -0.1252
16967TIP3   OH272391   0.290   0.924   0.913  0.3125 -0.4286  0.8026
16967TIP3    H172392   0.276   1.007   0.958  1.6123  1.2452 -1.7873
16967TIP3    H272393   0.211   0.911   0.860  0.9781  0.1953 -0.3548
16968TIP3   OH272394   6.228   4.411   3.893 -0.3112  0.2203  0.5045
16968TIP3    H172395   6.251   4.485   3.838  0.0708 -0.1877  0.1183
16968TIP3    H272396   6.195   4.345   3.832  1.0083 -0.5930  0.6498
16969TIP3   OH272397   5.086   6.440   5.392 -0.0882  0.4411 -0.0953
16969TIP3    H172398   5.076   6.368   5.454 -0.8293  0.6982  0.0948
16969TIP3    H272399   5.004   6.490   5.400  0.8007  1.8504  0.4934
16970TIP3   OH272400   2.218   0.102   2.854 -0.1427 -0.3453 -0.0730
16970TIP3    H172401   2.240   0.058   2.936 -1.6794  1.4772  1.3617
16970TIP3    H272402   2.182   0.033   2.798  0.3473 -1.4742  0.9946
16971TIP3   OH272403   1.570   4.899  16.051 -0.6245 -0.3643  0.9972
16971TIP3    H172404   1.605   4.866  16.133  1.6867  0.5566  0.4158
16971TIP3    H272405   1.582   4.994  16.056 -0.1990 -0.3145 -0.5030
16972TIP3   OH272406   0.250   6.204   2.838  0.2555 -0.6324  0.6075
16972TIP3    H172407   0.159   6.199   2.867  0.5618 -2.5928  1.2926
16972TIP3    H272408   0.295   6.253   2.906 -0.5188  1.4426 -0.3484
16973TIP3   OH272409   5.521   5.929   2.195 -0.6411 -0.4859  0.4620
16973TIP3    H172410   5.577   5.907   2.121 -0.9935  0.6341 -0.1485
16973TIP3    H272411   5.517   6.025   2.195  0.1239 -0.4314  2.5200
16974TIP3   OH272412   6.505   2.008   4.897 -0.3069 -0.7614  0.1236
16974TIP3    H172413   6.482   1.932   4.951  0.2264 -1.8600 -1.1702
16974TIP3    H272414   6.429   2.066   4.903 -0.5977 -1.2571  1.3570
16975TIP3   OH272415   6.559   2.175  14.608 -0.1506  0.8201  0.5784
16975TIP3    H172416   6.649   2.206  14.607  0.0937  0.0938 -0.0179
16975TIP3    H272417   6.559   2.103  14.671 -0.4744  1.2880  1.1176
16976TIP3   OH272418   3.197   2.227   5.798 -0.1180  0.6993 -0.5173
16976TIP3    H172419   3.131   2.157   5.789 -1.8343  2.2394 -0.1636
16976TIP3    H272420   3.252   2.219   5.720 -1.9582  0.6549 -1.8420
16977TIP3   OH272421   1.645   0.503   2.578  0.7505 -0.3932  0.5223
16977TIP3    H172422   1.657   0.564   2.651 -1.5476  1.0805 -0.2589
16977TIP3    H272423   1.689   0.545   2.504  1.5415 -1.0272  0.6291
16978TIP3   OH272424   3.008   3.775   3.593 -0.8490  0.1308  0.7615
16978TIP3    H172425   3.082   3.714   3.583 -1.2026 -0.0754 -0.7535
16978TIP3    H272426   2.965   3.747   3.674  1.2734  0.8533  2.2015
16979TIP3   OH272427   6.434   3.205  15.387  0.2261  0.1223 -0.0300
16979TIP3    H172428   6.352   3.159  15.369  0.2683 -0.1302  0.4180
16979TIP3    H272429   6.451   3.255  15.307 -0.1094 -0.2023 -0.3059
16980TIP3   OH272430   1.544   2.654   3.102  0.3014 -1.0465  0.5551
16980TIP3    H172431   1.517   2.562   3.101 -1.1543 -0.6667  1.9505
16980TIP3    H272432   1.619   2.657   3.162 -0.0877 -1.2172  1.0538
16981TIP3   OH272433   4.785   5.219   0.837  0.5815  0.0064 -0.7694
16981TIP3    H172434   4.720   5.151   0.824  0.1973  0.3899 -0.8432
16981TIP3    H272435   4.866   5.181   0.802  0.3219 -0.3224 -1.0195
16982TIP3   OH272436   0.280   5.176   5.667 -0.1971  0.2242  0.0067
16982TIP3    H172437   0.225   5.232   5.722  0.8306 -0.0711  1.3598
16982TIP3    H272438   0.346   5.236   5.630 -0.8614  0.4147 -0.8873
16983TIP3   OH272439   4.763   6.326   6.446 -0.3822  0.0702 -0.0509
16983TIP3    H172440   4.857   6.319   6.463 -0.6254  0.1079  1.3831
16983TIP3    H272441   4.722   6.283   6.521 -1.4790 -1.7149 -1.6518
16984TIP3   OH272442   4.322   5.778   6.497  0.2440  0.3919 -0.3159
16984TIP3    H172443   4.281   5.728   6.426 -1.3054  3.3060 -1.5689
16984TIP3    H272444   4.248   5.808   6.551  1.2573  0.0548  1.3018
16985TIP3   OH272445   3.478   6.007   0.461 -0.2397  0.4268 -0.4297
16985TIP3    H172446   3.537   5.987   0.533 -1.4148 -1.2935  0.0858
16985TIP3    H272447   3.510   5.954   0.388  0.9687  2.1878 -1.2046
16986TIP3   OH272448   4.879   3.182   3.350  0.6459  0.0693 -0.4835
16986TIP3    H172449   4.957   3.189   3.295  0.2819 -0.6580 -1.1066
16986TIP3    H272450   4.813   3.233   3.304  0.5645  0.1160 -0.3131
16987TIP3   OH272451   1.444   0.616   3.421  0.0685 -0.2760 -0.1211
16987TIP3    H172452   1.480   0.562   3.350  1.0314  0.8745 -0.5298
16987TIP3    H272453   1.385   0.677   3.376  0.3908  0.2085  0.1174
16988TIP3   OH272454   3.724   0.278   0.776 -0.3298  0.8139  0.1104
16988TIP3    H172455   3.791   0.292   0.844 -0.7384  2.2565  0.2446
16988TIP3    H272456   3.663   0.216   0.815 -1.8614  3.4328  2.0378
16989TIP3   OH272457   6.268   2.995  13.344 -0.2722 -0.6793  0.0612
16989TIP3    H172458   6.246   3.037  13.427  1.5505 -1.3503  0.9230
16989TIP3    H272459   6.291   2.905  13.369  0.2504 -0.8899 -1.1643
16990TIP3   OH272460   1.645   3.565   3.252  0.7057 -0.3723 -0.1595
16990TIP3    H172461   1.623   3.476   3.279  0.6066 -0.8737 -1.8279
16990TIP3    H272462   1.720   3.555   3.194  1.9695  0.8305  1.2460
16991TIP3   OH272463   3.470   0.855   0.986  0.7731 -0.3520  0.0802
16991TIP3    H172464   3.539   0.830   0.925  0.0259 -1.6555 -0.2601
16991TIP3    H272465   3.398   0.795   0.966 -0.5230  1.1078  0.2949
16992TIP3   OH272466   1.833   6.014  14.506 -0.3513  0.0278 -0.0336
16992TIP3    H172467   1.769   6.036  14.438 -0.1176  0.7441 -0.0232
16992TIP3    H272468   1.860   5.925  14.485  1.2890  0.9879 -2.1464
16993TIP3   OH272469   6.086   4.104   3.992  0.0221  0.4521 -0.0040
16993TIP3    H172470   6.144   4.131   4.063  1.2009 -0.6124 -0.5360
16993TIP3    H272471   6.007   4.156   4.004  0.1619  0.2210  2.1523
16994TIP3   OH272472   3.161   5.534   1.596 -0.7417 -0.2699 -0.2830
16994TIP3    H172473   3.098   5.591   1.551  0.0914 -0.5431 -1.8273
16994TIP3    H272474   3.213   5.594   1.650 -0.0436  0.4471 -1.7058
16995TIP3   OH272475   1.802   5.358  12.168 -0.2727  0.7458 -0.0726
16995TIP3    H172476   1.720   5.406  12.160 -1.0183 -0.6847 -1.3150
16995TIP3    H272477   1.836   5.354  12.078  0.6186  0.4295  0.2777
16996TIP3   OH272478   3.727   2.194  12.712 -0.7666 -0.3522  0.0601
16996TIP3    H172479   3.707   2.197  12.619 -1.7803 -0.5750  0.2614
16996TIP3    H272480   3.761   2.106  12.727 -1.5273 -0.6458  0.0784
16997TIP3   OH272481   1.663   5.041  16.550 -0.5584 -0.5278  0.0331
16997TIP3    H172482   1.758   5.030  16.556 -0.7342 -1.5977  1.3157
16997TIP3    H272483   1.648   5.133  16.571  0.2310 -0.2270 -0.7037
16998TIP3   OH272484   6.345   0.696  14.534 -0.2405 -0.1780  0.2706
16998TIP3    H172485   6.423   0.740  14.569 -0.0275  0.0509 -0.4735
16998TIP3    H272486   6.379   0.630  14.474 -0.6380  1.0616 -1.3758
16999TIP3   OH272487   3.478   0.078   6.629  0.2507  0.2671  0.3524
16999TIP3    H172488   3.479   0.170   6.656 -0.4439  0.3089  0.2375
16999TIP3    H272489   3.473   0.030   6.712 -2.8104  0.4150  0.3329
17000TIP3   OH272490   3.132   3.746  12.725  0.6387  0.0300 -0.1399
17000TIP3    H172491   3.084   3.710  12.650 -0.5163 -0.4219  0.7962
17000TIP3    H272492   3.222   3.717  12.712  0.2491 -0.8778 -0.8427
17001TIP3   OH272493   1.951   2.707   6.296  0.1671  0.1786 -0.3366
17001TIP3    H172494   2.041   2.733   6.313  0.5597  0.1797 -2.2217
17001TIP3    H272495   1.910   2.701   6.382  1.7062  1.1056  0.4748
17002TIP3   OH272496   3.739   3.594  13.625  0.0322  0.0498  0.5177
17002TIP3    H172497   3.700   3.600  13.712 -4.6392  0.8051 -1.4371
17002TIP3    H272498   3.762   3.684  13.603  0.9590 -0.1021  0.8629
17003TIP3   OH272499   2.172   4.145  16.293 -0.1707  0.8210 -0.3768
17003TIP3    H172500   2.142   4.216  16.350 -0.1253 -0.2199  0.9464
17003TIP3    H272501   2.095   4.122  16.241 -0.4805  1.0849 -0.0338
17004TIP3   OH272502   0.569   5.062  16.687 -0.2568 -0.1606  0.0674
17004TIP3    H172503   0.608   5.135  16.638 -0.9983  0.0611 -0.1980
17004TIP3    H272504   0.579   4.987  16.629 -2.2256  0.3422 -0.9552
17005TIP3   OH272505   5.812   6.664   1.478  0.5915 -0.1147 -0.2947
17005TIP3    H172506   5.872   6.639   1.548 -2.0003  0.7209  2.3662
17005TIP3    H272507   5.725   6.641   1.512 -0.9302  2.4800 -2.2416
17006TIP3   OH272508   1.077   5.523  16.932 -0.2526 -0.0018 -0.5900
17006TIP3    H172509   1.078   5.458  16.861  1.2414 -0.5547 -0.0540
17006TIP3    H272510   1.012   5.490  16.993 -2.3166  0.9916 -2.1525
17007TIP3   OH272511   2.414   3.117  12.945  0.4134 -0.5335  0.0730
17007TIP3    H172512   2.489   3.112  13.004  1.2598  0.6749 -0.8756
17007TIP3    H272513   2.422   3.204  12.904 -1.1484 -0.6533 -0.4934
17008TIP3   OH272514   0.605   2.714   5.465 -0.4306 -0.0536  0.5569
17008TIP3    H172515   0.540   2.684   5.402 -0.5188  1.0625  0.0934
17008TIP3    H272516   0.552   2.747   5.538 -0.3706  0.1730  0.4986
17009TIP3   OH272517   3.074   0.966   1.787  0.5110 -0.1825  0.0470
17009TIP3    H172518   3.097   0.892   1.732  2.1900  1.7703 -1.9464
17009TIP3    H272519   2.981   0.952   1.809  0.6587 -2.5508 -0.7111
17010TIP3   OH272520   1.604   6.403   2.398  0.1498 -0.5607 -0.0167
17010TIP3    H172521   1.576   6.311   2.388 -1.9377 -0.2306  2.1160
17010TIP3    H272522   1.667   6.401   2.470  0.2746 -0.3759 -0.1226
17011TIP3   OH272523   6.467   3.344   5.528 -0.3919  0.2180  0.0440
17011TIP3    H172524   6.488   3.436   5.510  2.5992 -0.1803  1.1221
17011TIP3    H272525   6.459   3.304   5.442 -2.2211  1.5814 -0.4371
17012TIP3   OH272526   2.566   2.896  15.608 -0.0635  0.5304  0.1706
17012TIP3    H172527   2.477   2.931  15.611 -0.6269 -0.9344  1.0191
17012TIP3    H272528   2.564   2.830  15.538  0.8919  1.8884 -1.1697
17013TIP3   OH272529   4.096   1.182   5.703  0.2706 -0.2639  0.1807
17013TIP3    H172530   4.050   1.240   5.641  0.4222 -0.8256 -0.4678
17013TIP3    H272531   4.041   1.183   5.781 -0.2020  0.0491 -0.1470
17014TIP3   OH272532   5.252   4.001   3.117 -0.1473  0.3350 -0.1267
17014TIP3    H172533   5.229   3.922   3.069 -0.6277  0.7442 -0.5863
17014TIP3    H272534   5.331   4.034   3.074  1.4139 -1.1437  1.5350
17015TIP3   OH272535   1.837   2.592  14.781 -0.2506 -0.5291  0.7173
17015TIP3    H172536   1.875   2.512  14.817  0.8258  0.1483  1.1107
17015TIP3    H272537   1.882   2.604  14.697  1.2891  0.8822  1.6890
17016TIP3   OH272538   1.120   3.472  16.629 -0.1076  0.4545 -0.2925
17016TIP3    H172539   1.083   3.515  16.706 -1.0851 -1.3910  0.3038
17016TIP3    H272540   1.055   3.406  16.605  1.4117 -0.7935 -1.0799
17017TIP3   OH272541   5.405   5.947  12.591  0.1987  0.2017  0.2881
17017TIP3    H172542   5.387   6.031  12.547 -0.8648  0.4224  1.1186
17017TIP3    H272543   5.486   5.962  12.639 -0.7733  1.2351  1.6356
17018TIP3   OH272544   1.213   0.149   3.807 -0.2960 -0.5985  0.5096
17018TIP3    H172545   1.263   0.183   3.881  0.1316 -1.3367  0.5565
17018TIP3    H272546   1.161   0.077   3.843 -0.7942 -0.3551  0.2914
17019TIP3   OH272547   0.772   3.830  16.291 -0.1099 -0.2192  0.4212
17019TIP3    H172548   0.809   3.748  16.259  0.0019 -0.5805  1.4725
17019TIP3    H272549   0.790   3.830  16.385 -0.7292  0.6846  0.5499
17020TIP3   OH272550   1.147   1.864  11.604  0.4028 -0.2309  0.7897
17020TIP3    H172551   1.100   1.868  11.688  0.4527 -1.7759  0.9167
17020TIP3    H272552   1.113   1.938  11.554  0.9761  1.2085  2.4788
17021TIP3   OH272553   6.635   5.137   4.441 -0.5933  0.2903 -0.0322
17021TIP3    H172554   6.717   5.171   4.477 -0.7922 -1.2444  1.9034
17021TIP3    H272555   6.606   5.071   4.504 -2.2820 -0.6229 -1.7217
17022TIP3   OH272556   4.830   5.087   4.209  0.0700 -0.1290  0.0451
17022TIP3    H172557   4.916   5.048   4.223  0.2473  0.4820  0.7024
17022TIP3    H272558   4.821   5.093   4.114  1.3512  1.0873 -0.0232
17023TIP3   OH272559   2.024   6.569   4.814  0.3158 -0.0303  0.3101
17023TIP3    H172560   2.045   6.629   4.743 -0.8642  0.1356  0.0783
17023TIP3    H272561   1.963   6.619   4.869  0.5598 -0.4586  0.9618
17024TIP3   OH272562   5.427   5.146   0.741  0.1293  0.2358 -0.0843
17024TIP3    H172563   5.468   5.155   0.827 -1.5474  0.5703  0.6932
17024TIP3    H272564   5.357   5.211   0.741  0.0569  0.1726 -1.6740
17025TIP3   OH272565   1.722   1.346  14.894  0.0851 -0.0837 -1.2826
17025TIP3    H172566   1.655   1.310  14.836  0.9057  0.1662 -2.3960
17025TIP3    H272567   1.725   1.439  14.872 -1.4403  0.5321  1.0005
17026TIP3   OH272568   0.486   5.245   0.055  0.4139 -0.4345 -0.1768
17026TIP3    H172569   0.449   5.202  -0.022 -0.2409  1.3859 -0.9077
17026TIP3    H272570   0.550   5.307   0.020  1.2346 -0.6799  0.8451
17027TIP3   OH272571   5.966   4.880  11.990 -0.2183  0.1554 -0.3607
17027TIP3    H172572   5.885   4.830  11.992  0.8956 -1.7514 -1.3533
17027TIP3    H272573   5.993   4.879  11.898  0.5841  1.3379 -0.1483
17028TIP3   OH272574   6.743   6.366  13.694  0.2441 -0.3310  0.3230
17028TIP3    H172575   6.829   6.400  13.718  0.8130 -2.3472  1.2915
17028TIP3    H272576   6.689   6.444  13.679  1.8343  0.9613  1.1599
17029TIP3   OH272577   5.360   0.846  10.771  0.4748 -0.8466 -0.1595
17029TIP3    H172578   5.454   0.853  10.757  0.4131 -1.8339 -1.1506
17029TIP3    H272579   5.351   0.783  10.842  0.5498 -1.0822 -0.3588
17030TIP3   OH272580   1.907   6.737  15.304  0.2269  0.2466 -0.0163
17030TIP3    H172581   1.932   6.670  15.368 -1.0739  0.6002  0.8849
17030TIP3    H272582   1.857   6.689  15.238  0.9641  0.0067 -0.4136
17031TIP3   OH272583   0.041   4.681  14.731 -0.0608  0.1838 -0.1589
17031TIP3    H172584  -0.045   4.714  14.705 -0.0763 -1.8272 -2.7967
17031TIP3    H272585   0.081   4.755  14.776 -2.1835  2.0011 -1.1285
17032TIP3   OH272586   1.156   6.155  14.744  0.5131  0.6036 -0.1211
17032TIP3    H172587   1.172   6.118  14.831 -0.7238 -1.1729 -0.6242
17032TIP3    H272588   1.217   6.110  14.687 -3.1270 -3.1519 -1.3011
17033TIP3   OH272589   0.411   0.524   1.728 -0.3894  0.0951  0.2680
17033TIP3    H172590   0.475   0.563   1.788 -1.2931 -0.0973  1.3613
17033TIP3    H272591   0.335   0.582   1.733  0.2027  1.1424 -2.1336
17034TIP3   OH272592   0.447   2.203   2.649  0.0282 -0.6020  0.2689
17034TIP3    H172593   0.497   2.273   2.608 -0.4055 -1.0567 -1.0422
17034TIP3    H272594   0.509   2.161   2.708  0.8954 -0.4908 -0.5474
17035TIP3   OH272595   6.673   4.084   3.764  0.0603 -0.1385 -0.5126
17035TIP3    H172596   6.736   4.117   3.828 -0.7730 -0.9782  0.7658
17035TIP3    H272597   6.624   4.162   3.736 -0.3966  0.0700  0.8159
17036TIP3   OH272598   1.432   5.416   0.809 -0.3502 -0.0528 -0.7577
17036TIP3    H172599   1.485   5.373   0.742  0.8974 -1.9741  1.3954
17036TIP3    H272600   1.363   5.354   0.829  0.4025 -0.3290  1.0814
17037TIP3   OH272601   3.633   3.269  16.772  0.0853 -0.1857 -0.0232
17037TIP3    H172602   3.702   3.255  16.707 -1.2268  1.5564 -1.8815
17037TIP3    H272603   3.679   3.299  16.850  1.6018 -1.1449 -0.5230
17038TIP3   OH272604   5.708   2.202   3.566  0.3383 -0.3727  0.1251
17038TIP3    H172605   5.729   2.113   3.595  0.7733 -0.3171 -0.0146
17038TIP3    H272606   5.752   2.259   3.629  1.0192 -0.2534 -0.4563
17039TIP3   OH272607   1.610   5.996  14.667 -0.1989  0.1042 -0.0330
17039TIP3    H172608   1.621   5.934  14.595  1.4765  1.9832 -1.4559
17039TIP3    H272609   1.692   5.993  14.716 -0.7545 -0.0471  0.9164
17040TIP3   OH272610   0.035   1.668  12.820  0.5292 -0.5426  0.1953
17040TIP3    H172611   0.098   1.695  12.753 -1.1305 -0.7649 -1.5001
17040TIP3    H272612   0.022   1.746  12.874  2.3289 -0.5354  0.6523
17041TIP3   OH272613   4.213   5.422  15.230  0.1443  0.2509 -0.3070
17041TIP3    H172614   4.135   5.384  15.190  0.8735 -0.7182 -0.8292
17041TIP3    H272615   4.285   5.365  15.202  0.8719  0.3934  1.2002
17042TIP3   OH272616   5.312   0.244   5.959 -0.2094 -0.1216 -0.3506
17042TIP3    H172617   5.304   0.184   6.034 -0.4997  0.4552  0.0857
17042TIP3    H272618   5.244   0.215   5.898  0.3812 -0.9341 -0.6340
17043TIP3   OH272619   0.242   6.526  13.485  0.0179 -0.6517 -0.4309
17043TIP3    H172620   0.183   6.501  13.414 -0.7117 -0.5278  0.1298
17043TIP3    H272621   0.329   6.503  13.453 -0.3544 -1.0452 -1.1669
17044TIP3   OH272622   6.098   5.921  16.084  0.2164  0.3957  0.3442
17044TIP3    H172623   6.141   6.005  16.100 -0.4334  0.5033  1.6009
17044TIP3    H272624   6.148   5.882  16.012  2.4301  0.4989  1.7979
17045TIP3   OH272625   2.232   1.238  16.572  0.8713  0.0551  0.2083
17045TIP3    H172626   2.205   1.190  16.493  0.1627  0.2330  0.3396
17045TIP3    H272627   2.153   1.246  16.624  1.3736 -0.1948  1.0213
17046TIP3   OH272628   1.111   0.501  11.446  0.2228 -0.4206 -0.3187
17046TIP3    H172629   1.076   0.564  11.381 -0.4453 -0.9748 -0.5060
17046TIP3    H272630   1.033   0.459  11.482  0.5825  0.0542  1.0283
17047TIP3   OH272631   3.264   5.938   0.092 -0.6295  0.1370  0.5958
17047TIP3    H172632   3.341   5.976   0.051 -0.8885 -0.8958 -0.8804
17047TIP3    H272633   3.292   5.851   0.120 -1.2653 -0.2591  0.0175
17048TIP3   OH272634   0.551   5.292   1.859 -0.2860 -0.0232  0.7967
17048TIP3    H172635   0.551   5.199   1.880  0.3504 -0.1577  0.2206
17048TIP3    H272636   0.469   5.307   1.812  0.1779 -0.5465 -0.1939
17049TIP3   OH272637   2.874   3.134   4.090 -0.2668  0.2964 -0.3988
17049TIP3    H172638   2.854   3.148   4.182  2.9548  1.1492  0.2451
17049TIP3    H272639   2.816   3.194   4.043  1.6410  3.7690  1.4226
17050TIP3   OH272640   4.665   0.631   2.690  0.1241 -0.1968  0.1271
17050TIP3    H172641   4.608   0.585   2.751 -0.1373  2.4807  2.0270
17050TIP3    H272642   4.735   0.666   2.745  0.2951  1.6486 -1.1876
17051TIP3   OH272643   4.859   6.359  11.929 -0.1074 -0.1063  0.4499
17051TIP3    H172644   4.938   6.307  11.913  1.6042  2.4351  0.4623
17051TIP3    H272645   4.811   6.355  11.846  1.5209  0.8306 -0.5566
17052TIP3   OH272646   6.450   2.781  13.154 -0.1257  0.7594 -0.5443
17052TIP3    H172647   6.396   2.731  13.216  0.2931  1.5611  0.4893
17052TIP3    H272648   6.485   2.853  13.206  1.3367  0.6862 -1.3965
17053TIP3   OH272649   2.974   4.310  12.160  0.4900 -0.2281  0.6056
17053TIP3    H172650   2.922   4.269  12.229 -0.3013 -1.9449 -0.9672
17053TIP3    H272651   2.940   4.273  12.079  2.2307  0.8262 -0.6470
17054TIP3   OH272652   5.275   6.703  16.503  0.8609 -0.0227  0.0743
17054TIP3    H172653   5.265   6.758  16.581 -0.2209 -0.7174  0.4410
17054TIP3    H272654   5.317   6.760  16.439  0.4694  0.9956  0.7011
17055TIP3   OH272655   1.897   0.473   0.438 -0.6317 -0.2481  0.4909
17055TIP3    H172656   1.897   0.499   0.530 -2.0310  0.2708  0.3695
17055TIP3    H272657   1.832   0.531   0.398  1.8618  1.3835 -1.3622
17056TIP3   OH272658   2.400   5.495  14.948  0.6785 -0.0458  0.5427
17056TIP3    H172659   2.353   5.418  14.978  1.6091 -0.3273  1.3017
17056TIP3    H272660   2.390   5.495  14.853  0.8183 -1.1866  0.5326
17057TIP3   OH272661   2.640   1.283  11.213 -0.3613 -0.4236  0.4031
17057TIP3    H172662   2.640   1.208  11.155  0.1739 -1.4602  1.7088
17057TIP3    H272663   2.562   1.272  11.267 -0.4538  0.1282  0.3825
17058TIP3   OH272664   6.245   3.598   2.787  0.1844 -0.3383  0.1929
17058TIP3    H172665   6.312   3.532   2.803  0.2404 -0.3518 -0.0958
17058TIP3    H272666   6.286   3.660   2.728  0.0167 -0.2252  0.1954
17059TIP3   OH272667   2.775   0.694   1.753  0.0112  0.6814  0.4116
17059TIP3    H172668   2.828   0.638   1.810 -0.0334  0.8229  0.5949
17059TIP3    H272669   2.797   0.783   1.781  0.3488  0.7655 -0.1158
17060TIP3   OH272670   6.277   1.610  15.051  0.2367 -0.3473  0.4583
17060TIP3    H172671   6.233   1.534  15.012 -0.3704 -0.3418  1.1108
17060TIP3    H272672   6.205   1.663  15.087  0.5569  1.2097 -1.1595
17061TIP3   OH272673   3.230   1.345   1.879 -0.0092  0.2153  0.5027
17061TIP3    H172674   3.240   1.250   1.878  3.7961  0.5270  1.8132
17061TIP3    H272675   3.240   1.371   1.787 -2.1243 -0.6924 -0.0111
17062TIP3   OH272676   4.076   0.582   2.318  0.3356 -0.5034  0.0696
17062TIP3    H172677   4.157   0.610   2.361  0.8023  0.4796 -1.4225
17062TIP3    H272678   4.012   0.651   2.341  0.5782  0.0083 -0.7586
17063TIP3   OH272679   4.710   1.822  15.085  1.0483  0.3295  0.9939
17063TIP3    H172680   4.669   1.890  15.032  0.7738  0.2456  1.0992
17063TIP3    H272681   4.664   1.741  15.062  0.4843  0.4012  1.8421
17064TIP3   OH272682   5.554   5.653   1.463 -0.0176 -0.0118 -0.0838
17064TIP3    H172683   5.642   5.634   1.431  0.0720  2.1756 -1.2419
17064TIP3    H272684   5.507   5.685   1.386 -2.0873 -1.9413  0.3430
17065TIP3   OH272685   2.329   6.479   3.497  0.1446 -0.3877  0.0312
17065TIP3    H172686   2.274   6.447   3.569  1.0937  1.5289  1.6484
17065TIP3    H272687   2.275   6.466   3.419 -1.5312 -1.0580  1.2662
17066TIP3   OH272688   0.701   3.569   5.648  0.2978  0.2358  0.6326
17066TIP3    H172689   0.661   3.484   5.665  1.8965 -0.4971  0.8641
17066TIP3    H272690   0.794   3.549   5.632  0.3796  1.7476 -0.9881
17067TIP3   OH272691   6.461   0.572   2.887 -0.6778 -0.7326  0.7938
17067TIP3    H172692   6.480   0.649   2.940 -0.9483 -0.1712  0.0656
17067TIP3    H272693   6.371   0.583   2.858 -0.2332 -0.5913 -0.5523
17068TIP3   OH272694   6.585   0.844   0.210  0.3138 -0.5831  0.0682
17068TIP3    H172695   6.539   0.821   0.129 -0.0939  0.1997  0.0823
17068TIP3    H272696   6.532   0.913   0.249  0.8587 -0.5150  0.6845
17069TIP3   OH272697   2.920   1.429   0.952  0.1038 -0.6036 -0.1444
17069TIP3    H172698   2.994   1.486   0.973 -0.1836 -0.3803  0.2565
17069TIP3    H272699   2.918   1.365   1.023 -0.5781 -0.1303  0.2662
17070TIP3   OH272700   0.608   0.342  10.677  0.1448  0.0677 -0.1807
17070TIP3    H172701   0.549   0.314  10.747 -0.1739 -1.0325 -0.8738
17070TIP3    H272702   0.693   0.352  10.719  0.0572 -1.0482  0.2720
17071TIP3   OH272703   4.987   0.470   0.393 -0.5195  0.4312 -0.2093
17071TIP3    H172704   5.069   0.429   0.368 -0.6569  0.5477 -0.8454
17071TIP3    H272705   4.995   0.483   0.488 -0.5264 -1.1712  0.0159
17072TIP3   OH272706   2.754   4.393   4.700 -0.0547  0.5314 -0.3450
17072TIP3    H172707   2.734   4.338   4.775  1.9528 -1.7255 -1.4182
17072TIP3    H272708   2.816   4.458   4.734  1.2250 -0.7792 -0.1391
17073TIP3   OH272709   5.492   4.895   3.754 -0.1336  0.0297 -0.2794
17073TIP3    H172710   5.399   4.884   3.734  0.6066 -0.5410 -3.6651
17073TIP3    H272711   5.493   4.931   3.843 -3.4988 -1.7071  0.5286
17074TIP3   OH272712   2.064   2.897   1.585 -0.3715  0.2436 -0.5272
17074TIP3    H172713   2.074   2.802   1.588 -1.1802 -0.0074 -3.8211
17074TIP3    H272714   1.983   2.911   1.536 -0.5393  2.6393  0.3734
17075TIP3   OH272715   6.224   6.459   4.380  0.3862  0.3637  0.5000
17075TIP3    H172716   6.270   6.387   4.337 -1.4373 -0.6291  0.1208
17075TIP3    H272717   6.217   6.526   4.312 -0.4853 -0.2963 -0.0839
17076TIP3   OH272718   0.524   6.586  10.669 -0.1865  0.3280 -0.1145
17076TIP3    H172719   0.511   6.641  10.592 -2.8418 -0.3083 -0.1738
17076TIP3    H272720   0.546   6.647  10.739 -1.9565  1.3770 -0.4417
17077TIP3   OH272721   1.213   0.953   5.852 -0.1076  0.1227  0.3129
17077TIP3    H172722   1.124   0.919   5.858 -0.5573  1.0378 -1.0348
17077TIP3    H272723   1.225   0.975   5.760  0.8652  1.7419  0.8006
17078TIP3   OH272724   1.926   1.221  11.640 -0.0305  0.0609 -0.6522
17078TIP3    H172725   2.016   1.189  11.626 -0.6300 -1.2893 -1.5797
17078TIP3    H272726   1.872   1.160  11.589 -1.2597  2.3144 -2.0963
17079TIP3   OH272727   6.585   5.682  15.931 -0.3316 -0.1568 -0.0863
17079TIP3    H172728   6.622   5.728  16.007 -3.6081 -1.0871  2.1428
17079TIP3    H272729   6.600   5.589  15.949 -1.4768 -0.4045 -0.3853
17080TIP3   OH272730   4.882   5.456  15.017  0.3487 -0.0683 -0.3556
17080TIP3    H172731   4.935   5.527  14.981  0.2242 -0.7712 -2.0174
17080TIP3    H272732   4.898   5.382  14.958 -0.6144 -0.9919  0.5126
17081TIP3   OH272733   6.574   0.780  13.971  0.1244  0.3036 -0.1829
17081TIP3    H172734   6.628   0.737  13.905  0.3050 -0.3402  0.3773
17081TIP3    H272735   6.522   0.844  13.922  0.5921  0.1538 -0.8785
17082TIP3   OH272736   6.674   2.702  16.258 -0.2130  0.4467 -0.1451
17082TIP3    H172737   6.722   2.640  16.312  1.0564  1.1721 -0.4181
17082TIP3    H272738   6.582   2.687  16.280  0.2826  0.7635  2.2195
17083TIP3   OH272739   1.171   4.134  15.036  0.2579  0.4225  0.1187
17083TIP3    H172740   1.078   4.112  15.034  0.0270  1.3489  0.7325
17083TIP3    H272741   1.213   4.062  14.988 -0.8432  0.3905 -0.8224
17084TIP3   OH272742   3.881   1.147  13.046  0.0333 -0.3236  0.4707
17084TIP3    H172743   3.884   1.171  13.138 -0.1219  0.3251  0.3095
17084TIP3    H272744   3.803   1.191  13.012 -0.0693 -0.7902  0.0973
17085TIP3   OH272745   1.663   2.721  14.500 -0.2150  0.2788 -0.3166
17085TIP3    H172746   1.589   2.767  14.462 -1.3265 -0.2276  1.2020
17085TIP3    H272747   1.632   2.631  14.513  0.3588  0.2744  1.1281
17086TIP3   OH272748   4.175   6.095   4.002 -0.0901 -0.4771  0.1922
17086TIP3    H172749   4.203   6.008   4.028  1.1203 -0.8204 -2.1698
17086TIP3    H272750   4.236   6.154   4.045  0.7947 -0.9516 -0.4036
17087TIP3   OH272751   0.348   6.574  16.934 -0.1471 -0.0799  0.0430
17087TIP3    H172752   0.301   6.521  16.870 -1.0158 -0.9274  1.3448
17087TIP3    H272753   0.401   6.634  16.882 -1.5724 -0.0879 -1.4559
17088TIP3   OH272754   5.963   6.098  11.774  0.7800 -0.0092  0.7977
17088TIP3    H172755   5.946   6.011  11.738 -1.2345  0.7269 -0.1421
17088TIP3    H272756   6.010   6.144  11.704  0.9289 -0.0100  0.8946
17089TIP3   OH272757   0.173   6.223   4.092 -0.4341 -0.0829  0.4498
17089TIP3    H172758   0.193   6.310   4.125  2.1790  0.1527 -1.5829
17089TIP3    H272759   0.196   6.164   4.164  0.2281  0.7339  0.9117
17090TIP3   OH272760   6.684   2.095   3.630 -0.0968  0.6574 -0.1317
17090TIP3    H172761   6.625   2.082   3.705  0.4544  0.2385  0.2390
17090TIP3    H272762   6.703   2.007   3.599  1.3820  0.6890  0.5898
17091TIP3   OH272763   1.665   2.416   2.547 -0.3192  1.0036 -0.2995
17091TIP3    H172764   1.725   2.359   2.596 -0.4136 -0.2108 -1.5519
17091TIP3    H272765   1.582   2.407   2.592 -0.5274 -0.4970 -0.9296
17092TIP3   OH272766   3.641   3.649   4.159 -0.0412  0.6295  0.1899
17092TIP3    H172767   3.584   3.720   4.187 -3.4704 -1.5642 -0.9497
17092TIP3    H272768   3.655   3.596   4.238 -0.6643  0.4437  0.1723
17093TIP3   OH272769   6.012   6.257   1.940  0.2146 -0.0727 -0.0917
17093TIP3    H172770   5.929   6.300   1.921  0.0950 -0.2714 -0.0128
17093TIP3    H272771   6.017   6.184   1.878 -0.2155 -0.7686  0.6851
17094TIP3   OH272772   1.712   2.450   4.048 -0.1333 -0.4890  0.4424
17094TIP3    H172773   1.660   2.386   4.095 -1.0290  0.9109  1.3936
17094TIP3    H272774   1.803   2.425   4.066 -0.4693 -1.8210  0.3160
17095TIP3   OH272775   5.251   2.660  12.282 -0.4914  0.3798  0.2163
17095TIP3    H172776   5.282   2.656  12.192  1.0642  0.2094  0.7507
17095TIP3    H272777   5.309   2.723  12.325 -1.1527  0.3860  1.1264
17096TIP3   OH272778   1.498   3.032   1.572 -0.4171 -0.5590  0.1080
17096TIP3    H172779   1.404   3.035   1.554 -0.4771 -1.9278  0.1719
17096TIP3    H272780   1.520   3.122   1.597 -1.6832 -0.2004 -0.0273
17097TIP3   OH272781   1.256   3.672  12.750  0.7810  0.0496  1.0840
17097TIP3    H172782   1.274   3.623  12.830  2.2937 -3.9716 -1.5392
17097TIP3    H272783   1.196   3.616  12.701 -0.6755  2.7686 -0.3468
17098TIP3   OH272784   4.225   0.580  14.087  0.1409  0.5151 -0.4933
17098TIP3    H172785   4.248   0.636  14.162  0.9274  0.8701 -0.9858
17098TIP3    H272786   4.240   0.491  14.119 -1.9805  0.5088  0.5905
17099TIP3   OH272787   4.389   3.400  17.088 -0.1688 -0.5556  0.1065
17099TIP3    H172788   4.410   3.481  17.041  0.9198 -1.5914 -1.2172
17099TIP3    H272789   4.462   3.341  17.069 -1.9298 -2.5683 -0.6660
17100TIP3   OH272790   0.554   5.351   4.078  0.5908  0.3410 -0.6421
17100TIP3    H172791   0.522   5.434   4.043 -0.0458  0.1840 -0.4361
17100TIP3    H272792   0.557   5.293   4.002 -0.7897 -0.0004 -0.4418
17101TIP3   OH272793   5.968   2.650   1.755  0.4246  0.0110  0.4126
17101TIP3    H172794   5.896   2.711   1.771  1.3146  1.2452 -0.2064
17101TIP3    H272795   5.976   2.647   1.659  1.3409  0.0596  0.4877
17102TIP3   OH272796   3.563   0.768   3.720 -0.6688  1.0512 -0.5722
17102TIP3    H172797   3.513   0.807   3.648  0.1336  1.7100 -0.7791
17102TIP3    H272798   3.605   0.843   3.763  0.4523  0.4674 -0.6446
17103TIP3   OH272799   5.916   5.657  15.879  0.2322 -0.0059  0.1856
17103TIP3    H172800   5.967   5.582  15.912  1.3683  0.3964 -0.6296
17103TIP3    H272801   5.981   5.724  15.861 -0.5295  0.3312 -1.4063
17104TIP3   OH272802   6.019   0.134   0.384 -0.2337 -0.1586  0.1120
17104TIP3    H172803   6.094   0.189   0.406  1.3864 -2.9760  1.8821
17104TIP3    H272804   6.027   0.117   0.290 -0.5291  2.2069 -0.3741
17105TIP3   OH272805   1.201   1.299  14.956 -0.3634  0.1784  0.3842
17105TIP3    H172806   1.196   1.227  15.018 -1.3388 -1.4726 -1.5516
17105TIP3    H272807   1.112   1.309  14.923  0.1460  0.9765 -0.8070
17106TIP3   OH272808   3.020   6.138   6.064 -0.1004  0.4640  0.0560
17106TIP3    H172809   3.067   6.101   5.990  0.9809  1.6609  0.1201
17106TIP3    H272810   3.037   6.232   6.059  0.3775  0.5120  2.0932
17107TIP3   OH272811   2.676   4.907  16.206  0.4767 -0.5562  0.0472
17107TIP3    H172812   2.670   4.826  16.155 -1.9059  0.5154 -1.4725
17107TIP3    H272813   2.639   4.975  16.148  4.3018  2.0425  0.4561
17108TIP3   OH272814   4.651   1.840  10.540  0.1574 -0.1160 -0.1912
17108TIP3    H172815   4.734   1.802  10.512 -0.6073 -1.1282 -1.1387
17108TIP3    H272816   4.650   1.927  10.502 -0.8710 -1.4780 -3.4138
17109TIP3   OH272817   5.371   4.596   1.964  0.6838 -0.1552  0.4216
17109TIP3    H172818   5.299   4.583   2.026  0.1684  2.4825  0.4394
17109TIP3    H272819   5.356   4.531   1.896 -0.7129 -0.8004  1.3067
17110TIP3   OH272820   3.657   0.419  15.161 -0.4014  0.3245 -0.1808
17110TIP3    H172821   3.724   0.455  15.220 -0.0042  0.7288 -0.8653
17110TIP3    H272822   3.678   0.326  15.155  0.3132  0.5072 -0.6499
17111TIP3   OH272823   5.986   4.808   0.259 -0.2086 -0.0249 -0.3212
17111TIP3    H172824   5.892   4.824   0.262 -0.4933 -1.7426  0.5626
17111TIP3    H272825   6.006   4.770   0.344  0.7631 -2.3652 -1.5438
17112TIP3   OH272826   4.027   3.570  16.205  0.5967  0.2646 -0.3406
17112TIP3    H172827   3.937   3.571  16.237  0.2356  0.5229 -1.3579
17112TIP3    H272828   4.054   3.662  16.206 -0.5715  0.7158 -3.9704
17113TIP3   OH272829   1.487   5.636   0.016 -0.0896 -0.3132  0.2295
17113TIP3    H172830   1.481   5.719  -0.032 -1.1360  0.9004  2.3968
17113TIP3    H272831   1.578   5.633   0.047 -0.2361  0.3794  0.7450
17114TIP3   OH272832   4.509   5.736  16.212  0.2526 -0.0789  0.3258
17114TIP3    H172833   4.542   5.696  16.131 -0.2679  2.2236 -1.0503
17114TIP3    H272834   4.562   5.814  16.224 -0.0116 -0.1306  1.9501
17115TIP3   OH272835   2.500   4.145   0.595 -0.2237 -0.4994 -0.5167
17115TIP3    H172836   2.430   4.190   0.549  0.9386  2.4831  0.5153
17115TIP3    H272837   2.569   4.133   0.530 -0.7901 -1.4259 -0.9587
17116TIP3   OH272838   0.936   4.736   5.198 -0.3393 -0.0791 -0.3227
17116TIP3    H172839   0.902   4.761   5.113 -1.3202  0.0793  0.1160
17116TIP3    H272840   0.875   4.669   5.230 -0.0303 -0.0699  0.3001
17117TIP3   OH272841   5.377   1.012  16.172 -0.3303 -0.0982  0.5342
17117TIP3    H172842   5.393   1.034  16.264  0.7701 -2.4506  0.9623
17117TIP3    H272843   5.321   1.082  16.140  0.9308  1.8616  2.4310
17118TIP3   OH272844   6.155   2.795   1.368  0.5689 -0.0344 -0.2293
17118TIP3    H172845   6.116   2.845   1.296  0.3050 -0.3592 -0.3143
17118TIP3    H272846   6.114   2.830   1.447  0.2677 -0.2256 -0.3012
17119TIP3   OH272847   6.041   4.764   2.894  0.0395 -0.2025  0.0987
17119TIP3    H172848   6.082   4.683   2.864  1.9015  0.5939  0.4345
17119TIP3    H272849   6.103   4.832   2.871 -0.6695  0.9422  1.4775
17120TIP3   OH272850   6.036   1.080   4.595  0.0053 -0.5845 -0.2598
17120TIP3    H172851   6.073   0.993   4.580  0.8688 -0.1861 -0.4981
17120TIP3    H272852   5.950   1.064   4.633  0.0024 -1.5474 -0.6620
17121TIP3   OH272853   5.925   2.689  12.928  0.6698 -0.2650  0.3714
17121TIP3    H172854   5.847   2.716  12.976  1.0875 -1.0647  1.5199
17121TIP3    H272855   5.993   2.683  12.995  1.7321  0.4563 -0.6188
17122TIP3   OH272856   2.506   4.356   0.013  0.3136 -0.5224 -0.4921
17122TIP3    H172857   2.411   4.353   0.024  0.4114  1.6066  1.3843
17122TIP3    H272858   2.520   4.352  -0.082 -1.6620 -0.7159 -0.7854
17123TIP3   OH272859   5.776   5.509   5.143  0.1614  0.6813 -0.1569
17123TIP3    H172860   5.811   5.446   5.205 -0.7383  0.3115 -0.0229
17123TIP3    H272861   5.800   5.595   5.179 -1.0539  0.4928  1.1228
17124TIP3   OH272862   4.957   5.157  11.515  0.0367 -0.2910 -0.0400
17124TIP3    H172863   4.861   5.160  11.510  0.0226 -2.3844 -1.5425
17124TIP3    H272864   4.974   5.119  11.601 -0.5309 -1.3753 -0.3922
17125TIP3   OH272865   4.804   4.688   0.027  0.2392  0.2141  0.0777
17125TIP3    H172866   4.807   4.713  -0.065  0.0439  2.3629  0.6324
17125TIP3    H272867   4.807   4.592   0.026 -0.4915  0.1911 -2.1868
17126TIP3   OH272868   1.233   0.459   1.331 -0.1886  0.0431  0.4068
17126TIP3    H172869   1.295   0.429   1.398 -0.0591  2.1584  1.2860
17126TIP3    H272870   1.200   0.543   1.365  0.1944  1.3645 -2.3913
17127TIP3   OH272871   4.627   6.741  16.073 -0.0081 -0.2832  0.4500
17127TIP3    H172872   4.656   6.654  16.102 -0.4051 -0.6663 -0.2622
17127TIP3    H272873   4.673   6.755  15.990 -3.1094 -1.6789 -1.6074
17128TIP3   OH272874   2.785   2.103  16.287  0.0956  0.5607  0.2611
17128TIP3    H172875   2.768   2.014  16.257 -0.0574 -0.1670  2.4168
17128TIP3    H272876   2.869   2.098  16.332  0.7370  1.7991 -0.7863
17129TIP3   OH272877   1.472   3.529  11.534  0.2312  0.1245 -0.2112
17129TIP3    H172878   1.463   3.614  11.578 -0.3429 -0.6814  1.2908
17129TIP3    H272879   1.537   3.543  11.466  0.5557  1.6288  0.3944
17130TIP3   OH272880   0.872   2.510  13.873 -0.6520  0.5311 -0.3450
17130TIP3    H172881   0.966   2.519  13.861 -1.0940  3.1823 -2.2007
17130TIP3    H272882   0.850   2.577  13.938 -1.2302 -0.3147  0.3444
17131TIP3   OH272883   1.117   0.956   1.416  0.0407  0.3046 -0.0178
17131TIP3    H172884   1.176   0.918   1.351  0.3211 -0.2969  0.5799
17131TIP3    H272885   1.160   1.038   1.442  1.6931 -1.1119  1.9208
17132TIP3   OH272886   3.003   1.496   2.826  0.5905 -0.0051  0.4026
17132TIP3    H172887   2.987   1.443   2.904 -0.0506 -0.7168 -0.1960
17132TIP3    H272888   3.020   1.584   2.859  1.4304 -0.5402  1.3986
17133TIP3   OH272889   4.255   1.712   2.657 -0.1632 -0.3262  0.2681
17133TIP3    H172890   4.291   1.625   2.644 -0.4193 -0.1046 -2.1933
17133TIP3    H272891   4.186   1.720   2.591 -0.1508  1.7118  0.4612
17134TIP3   OH272892   6.206   4.901  13.910 -0.3997  0.0594 -0.1644
17134TIP3    H172893   6.117   4.935  13.912 -0.3063  0.2543  0.5822
17134TIP3    H272894   6.243   4.937  13.829 -0.5540  1.1029  0.2263
17135TIP3   OH272895   5.015   3.924   5.870  0.0009 -0.1525  0.2031
17135TIP3    H172896   4.926   3.903   5.897  0.3281 -0.0310  1.4102
17135TIP3    H272897   5.025   4.017   5.889 -0.5907  0.5446 -2.7221
17136TIP3   OH272898   1.652   6.326   0.898 -0.3596  0.0053  0.2104
17136TIP3    H172899   1.617   6.386   0.832  0.4760 -1.0106 -1.1870
17136TIP3    H272900   1.575   6.286   0.937 -0.8731  0.7431 -0.0413
17137TIP3   OH272901   2.646   6.767  13.698 -0.4192 -0.0962 -0.2608
17137TIP3    H172902   2.736   6.799  13.697  0.1665 -1.5310  2.7408
17137TIP3    H272903   2.641   6.708  13.623  1.0076  0.3033 -0.6963
17138TIP3   OH272904   2.937   3.970  11.491 -0.0916  0.0463 -0.2238
17138TIP3    H172905   3.010   4.006  11.441  1.3660 -0.0563  1.7616
17138TIP3    H272906   2.871   4.039  11.490  0.2391  0.3605 -1.5610
17139TIP3   OH272907   0.345   0.035  15.816 -0.0248  0.2132  0.0500
17139TIP3    H172908   0.326  -0.058  15.830  0.8133  0.0620  0.2218
17139TIP3    H272909   0.265   0.070  15.775 -0.6626 -0.3932  0.7574
17140TIP3   OH272910   0.974   5.239   1.928  0.0472 -0.2630 -0.4903
17140TIP3    H172911   1.065   5.237   1.898  0.8093 -0.8479  1.7296
17140TIP3    H272912   0.958   5.332   1.947  1.0003 -0.4677  1.4206
17141TIP3   OH272913   4.182   1.603  12.144 -0.4426 -0.2689  0.2664
17141TIP3    H172914   4.173   1.692  12.177 -0.0495 -0.6423  1.4169
17141TIP3    H272915   4.112   1.593  12.080 -0.1820  1.0282 -0.2310
17142TIP3   OH272916   5.205   6.161   3.752 -0.5267  0.0964 -0.2064
17142TIP3    H172917   5.156   6.087   3.714 -0.2862 -0.3055  0.2616
17142TIP3    H272918   5.247   6.202   3.677  0.7805 -1.3124 -0.2727
17143TIP3   OH272919   0.908   0.289  13.419  0.1404 -0.0165  0.1320
17143TIP3    H172920   0.962   0.230  13.473 -0.8879 -2.1175 -1.0741
17143TIP3    H272921   0.819   0.276  13.451 -0.5625 -1.7221 -2.4161
17144TIP3   OH272922   1.873   1.206  16.140 -0.0073 -0.2069  0.5157
17144TIP3    H172923   1.912   1.265  16.075 -0.7012 -0.5351 -0.2044
17144TIP3    H272924   1.835   1.264  16.206 -0.3641  0.1522 -0.0027
17145TIP3   OH272925   2.828   3.306   3.429 -0.0581  0.0705  0.0401
17145TIP3    H172926   2.848   3.398   3.443 -0.3707  0.6284 -2.8054
17145TIP3    H272927   2.884   3.259   3.492 -0.2876  2.1941  1.8708
17146TIP3   OH272928   2.421   1.256   1.496 -0.3775 -0.4643 -0.2714
17146TIP3    H172929   2.438   1.281   1.586 -1.1939 -0.2007 -0.1853
17146TIP3    H272930   2.392   1.165   1.501 -0.1648 -0.5346 -0.2989
17147TIP3   OH272931   2.811   2.891   2.207  0.0312  0.0291  0.0288
17147TIP3    H172932   2.791   2.866   2.298 -0.0854 -0.5329 -0.1480
17147TIP3    H272933   2.847   2.811   2.168 -1.3508 -0.1671 -0.8550
17148TIP3   OH272934   2.676   1.499  13.364  0.8514  0.0920 -0.2453
17148TIP3    H172935   2.711   1.413  13.389 -1.8092 -0.8625  0.3573
17148TIP3    H272936   2.608   1.517  13.430  0.2704  1.9059 -1.3237
17149TIP3   OH272937   2.546   2.564  12.066  0.4259  0.0221 -0.4875
17149TIP3    H172938   2.532   2.635  12.128  2.4498 -0.5865  0.7014
17149TIP3    H272939   2.486   2.583  11.994 -3.0695 -0.0351  2.2672
17150TIP3   OH272940   5.951   3.067  15.562  0.8112  0.0073  0.1848
17150TIP3    H172941   6.004   3.020  15.627 -0.7347 -2.2193 -0.0902
17150TIP3    H272942   5.979   3.030  15.478  1.4036  1.4612 -0.2669
17151TIP3   OH272943   0.481   1.255   4.305 -0.1977 -0.0825  0.0140
17151TIP3    H172944   0.529   1.242   4.388  0.3580  0.9606 -0.1357
17151TIP3    H272945   0.389   1.259   4.331  0.0816  1.7404  0.7762
17152TIP3   OH272946   6.216   6.712   2.017 -0.7226 -0.1373 -0.0790
17152TIP3    H172947   6.216   6.625   1.977  2.3498  0.1749 -0.8620
17152TIP3    H272948   6.148   6.708   2.084 -0.5232 -3.1924 -0.0245
17153TIP3   OH272949   1.536   3.452  12.849 -0.7649  0.0369 -0.1143
17153TIP3    H172950   1.538   3.362  12.882  1.0246  0.0623 -0.1034
17153TIP3    H272951   1.488   3.446  12.766  0.2563 -1.1118 -0.6367
17154TIP3   OH272952   6.118   3.568  14.836 -0.0441  0.3345 -0.1050
17154TIP3    H172953   6.061   3.569  14.759  1.0663  0.9523 -0.9431
17154TIP3    H272954   6.095   3.487  14.882  0.7423 -1.1401 -2.2320
17155TIP3   OH272955   0.428   5.283  14.048  0.6340 -0.0612 -0.1572
17155TIP3    H172956   0.375   5.354  14.013 -0.0036 -1.1079 -1.3467
17155TIP3    H272957   0.456   5.314  14.135 -1.6909  0.5943  0.3801
17156TIP3   OH272958   1.407   2.556  15.644  0.5630 -0.6565  0.6082
17156TIP3    H172959   1.367   2.630  15.690 -0.4978 -2.1651  2.2163
17156TIP3    H272960   1.426   2.493  15.714  0.0697 -2.5137 -0.8981
17157TIP3   OH272961   1.589   2.440  16.751  0.2780 -0.4754 -0.1580
17157TIP3    H172962   1.638   2.359  16.763 -1.0226 -1.4942 -1.4918
17157TIP3    H272963   1.498   2.411  16.740 -0.2795  1.2084 -0.1104
17158TIP3   OH272964   5.123   4.809   1.672 -0.0400 -0.0831 -0.0614
17158TIP3    H172965   5.047   4.784   1.725  0.4842 -0.7511  0.3754
17158TIP3    H272966   5.085   4.844   1.591 -0.8251  0.2463  0.4460
17159TIP3   OH272967   1.459   1.487   2.210  0.2153  0.0382 -0.1618
17159TIP3    H172968   1.486   1.502   2.120  1.0216  0.8683  0.2051
17159TIP3    H272969   1.394   1.417   2.205  0.0772  0.2494 -1.4054
17160TIP3   OH272970   1.883   5.721  12.240 -0.2557 -0.3312  0.0933
17160TIP3    H172971   1.795   5.736  12.206 -0.1746 -1.5283 -0.6555
17160TIP3    H272972   1.942   5.760  12.175 -0.2370  0.5646  0.6483
17161TIP3   OH272973   1.736   4.457  16.672  0.3956 -0.1035  0.1236
17161TIP3    H172974   1.704   4.367  16.669 -2.4194  0.8706 -1.9196
17161TIP3    H272975   1.748   4.475  16.766  0.5414 -2.4236  0.5771
17162TIP3   OH272976   0.589   2.714  13.872  0.8788 -0.4068  0.0788
17162TIP3    H172977   0.579   2.752  13.959  0.4059 -0.8608  0.2323
17162TIP3    H272978   0.582   2.619  13.887 -0.0627 -0.4478 -0.5554
17163TIP3   OH272979   4.876   5.452   2.645 -0.1958 -0.6234 -0.4232
17163TIP3    H172980   4.786   5.436   2.673 -0.4157  0.0024 -0.7424
17163TIP3    H272981   4.916   5.499   2.718  0.1197 -1.6261  0.0563
17164TIP3   OH272982   6.484   2.210  15.501  0.9223  0.1301 -0.1157
17164TIP3    H172983   6.540   2.134  15.483  0.3243 -0.5811  0.9882
17164TIP3    H272984   6.545   2.284  15.507  1.8447 -0.7659  1.8571
17165TIP3   OH272985   3.396   2.276  14.571  0.0755 -0.4567  0.1829
17165TIP3    H172986   3.394   2.226  14.489 -0.1555 -0.2088  0.0363
17165TIP3    H272987   3.394   2.367  14.544  0.5633 -0.3652  0.4534
17166TIP3   OH272988   6.749   2.988   2.709  0.1904  0.3721  0.4820
17166TIP3    H172989   6.754   2.985   2.614  3.5545  0.6870  0.6101
17166TIP3    H272990   6.714   3.076   2.728 -0.6899  0.2351 -0.4345
17167TIP3   OH272991   1.815   3.665  15.451  0.1034  0.6892 -0.4239
17167TIP3    H172992   1.907   3.637  15.451  0.3942  1.6242 -0.2556
17167TIP3    H272993   1.818   3.758  15.432 -0.7170  1.0105  0.9207
17168TIP3   OH272994   1.795   6.222  12.082  0.3656  0.2198 -0.1288
17168TIP3    H172995   1.769   6.133  12.055 -0.5003  0.3248  0.3520
17168TIP3    H272996   1.728   6.248  12.145  1.4009  0.6736  0.7917
17169TIP3   OH272997   3.665   2.823   5.746 -0.0535 -0.7807 -0.5408
17169TIP3    H172998   3.688   2.750   5.687 -2.1172 -0.3788 -1.8823
17169TIP3    H272999   3.664   2.783   5.833  2.3409 -1.5504 -0.8289
17170TIP3   OH273000   3.747   2.696   2.703  0.5279  0.3742  0.4192
17170TIP3    H173001   3.776   2.746   2.779  0.6079  0.7401  0.1494
17170TIP3    H273002   3.736   2.607   2.736  0.8654  0.4659  0.7854
17171TIP3   OH273003   2.672   6.746  16.025 -0.5089  0.2159  0.5885
17171TIP3    H173004   2.640   6.790  15.946  0.2551  1.4968  0.9885
17171TIP3    H273005   2.658   6.653  16.008 -1.2251  0.5489 -0.6683
17172TIP3   OH273006   0.840   4.017  11.504  0.2596  0.4472 -0.2957
17172TIP3    H173007   0.917   4.020  11.448  0.3329 -1.0621 -0.2971
17172TIP3    H273008   0.768   4.042  11.447  0.8070  2.4027 -0.1583
17173TIP3   OH273009   6.670   1.363   1.498  0.2365  0.5226  0.3763
17173TIP3    H173010   6.611   1.421   1.450 -1.2490 -0.1425  1.3413
17173TIP3    H273011   6.669   1.281   1.449  0.0718  0.4006  0.5786
17174TIP3   OH273012   6.383   0.496  16.745 -0.1922 -0.3044 -0.5497
17174TIP3    H173013   6.457   0.557  16.743 -0.0794 -0.4586 -0.9748
17174TIP3    H273014   6.322   0.530  16.680 -1.1424  0.6423  0.8214
17175TIP3   OH273015   1.351   0.054   2.864  0.1544  0.3048  0.2353
17175TIP3    H173016   1.348  -0.011   2.933  3.1947 -0.1899 -0.0612
17175TIP3    H273017   1.321   0.135   2.905  1.0928 -0.1835  1.8900
17176TIP3   OH273018   5.376   1.590  10.616  0.2525  0.2980  0.0322
17176TIP3    H173019   5.281   1.588  10.602  0.4292  0.4487 -1.3163
17176TIP3    H273020   5.407   1.508  10.578  0.8881  1.2170 -1.4941
17177TIP3   OH273021   2.569   6.144  14.777  0.7026 -1.2931 -0.6977
17177TIP3    H173022   2.498   6.200  14.808  1.2098 -1.5219  0.9031
17177TIP3    H273023   2.529   6.089  14.710 -0.2542 -0.3515 -0.9079
17178TIP3   OH273024   0.759   0.595  16.845  0.0964  0.5536 -0.0904
17178TIP3    H173025   0.833   0.548  16.884  0.1587  1.0762  0.4299
17178TIP3    H273026   0.772   0.686  16.871 -0.3598  0.7575 -0.5702
17179TIP3   OH273027   5.026   5.625   4.957  0.2381 -0.3306 -0.3239
17179TIP3    H173028   4.989   5.621   5.045 -1.1903  1.2600 -0.8118
17179TIP3    H273029   5.099   5.686   4.964 -0.4048  0.4650 -0.3877
17180TIP3   OH273030   3.295   5.971  17.050 -0.0380 -0.1839  0.4120
17180TIP3    H173031   3.314   5.969  17.144  0.1718  2.9006  0.5125
17180TIP3    H273032   3.381   5.981  17.008 -0.2294 -0.3135 -0.0144
17181TIP3   OH273033   4.371   0.632  13.851  0.1877  0.6551 -0.5890
17181TIP3    H173034   4.402   0.721  13.836  0.9677  0.6788  0.9619
17181TIP3    H273035   4.362   0.626  13.946 -0.5376 -0.6987 -0.7286
17182TIP3   OH273036   5.416   1.566   3.882 -0.2973 -0.1790  0.4016
17182TIP3    H173037   5.331   1.526   3.861 -0.2037 -0.5526  0.7353
17182TIP3    H273038   5.393   1.651   3.920 -0.5487 -0.5472  1.0879
17183TIP3   OH273039   3.179   2.907   3.996 -0.1824 -0.1608 -0.0540
17183TIP3    H173040   3.183   2.815   3.972 -0.8426 -0.8373  2.2684
17183TIP3    H273041   3.111   2.944   3.940  0.1659 -1.0537 -1.0717
17184TIP3   OH273042   3.576   0.290   3.239 -0.3050  0.4595  0.8496
17184TIP3    H173043   3.515   0.238   3.292 -0.7080 -0.0306 -0.0594
17184TIP3    H273044   3.649   0.231   3.222  0.0002  0.7422  1.1782
17185TIP3   OH273045   1.130   5.285   3.656  0.0291  0.6206 -0.6920
17185TIP3    H173046   1.183   5.240   3.590 -0.2122 -1.1943  0.3213
17185TIP3    H273047   1.173   5.267   3.739  0.5564  3.2197 -0.3467
17186TIP3   OH273048   6.440   0.932   4.356  0.0443  0.6695 -0.2597
17186TIP3    H173049   6.436   0.984   4.436 -1.4594  2.0878 -1.2247
17186TIP3    H273050   6.409   0.845   4.381 -2.1029  1.5920  0.3251
17187TIP3   OH273051   3.053   4.338  14.262 -0.6143  1.1012  0.0674
17187TIP3    H173052   3.125   4.307  14.206 -0.8229  1.7377 -0.5683
17187TIP3    H273053   2.978   4.284  14.238  0.4815 -2.0534  3.2770
17188TIP3   OH273054   3.902   0.084   2.631  0.4054  0.4229 -0.4771
17188TIP3    H173055   3.834   0.098   2.697  0.6701  0.7432 -0.2698
17188TIP3    H273056   3.980   0.125   2.668  0.5847  0.5001 -0.9343
17189TIP3   OH273057   2.058   3.098  15.332 -0.0058  0.1062 -0.3307
17189TIP3    H173058   1.991   3.047  15.287  0.8344 -0.9308 -0.4166
17189TIP3    H273059   2.017   3.184  15.346 -0.7339  0.0333 -1.9055
17190TIP3   OH273060   0.614   6.552  11.482  0.2781  0.1195 -0.0406
17190TIP3    H173061   0.546   6.536  11.416  1.1970 -0.4170 -0.8550
17190TIP3    H273062   0.564   6.569  11.562 -0.8651  1.6541 -1.0485
17191TIP3   OH273063   2.216   2.243   5.441 -0.5067  0.1194 -0.1752
17191TIP3    H173064   2.125   2.268   5.428 -0.6002  0.0482  0.3259
17191TIP3    H273065   2.218   2.203   5.528  0.3431  1.8502  0.6393
17192TIP3   OH273066   3.666   0.251  13.271  0.3683  0.4568 -0.0044
17192TIP3    H173067   3.675   0.335  13.315 -1.4754  1.2242 -1.0492
17192TIP3    H273068   3.685   0.186  13.338  0.4995  1.6696  1.1494
17193TIP3   OH273069   2.736   3.124   0.724  0.3152  0.0808  0.0211
17193TIP3    H173070   2.684   3.194   0.763 -0.3457  0.3520 -1.3158
17193TIP3    H273071   2.823   3.134   0.763 -0.1082  0.8395  0.7989
17194TIP3   OH273072   6.741   0.032   4.548  0.1928  0.2752  0.1167
17194TIP3    H173073   6.787  -0.013   4.478  0.7905  0.7693  0.1889
17194TIP3    H273074   6.783   0.003   4.628  0.0483  0.3446  0.2195
17195TIP3   OH273075   3.701   6.371  16.319 -0.1203 -0.0590 -0.2454
17195TIP3    H173076   3.660   6.388  16.403  0.5173 -1.5466  0.3878
17195TIP3    H273077   3.697   6.276  16.308  0.2289  0.0691 -1.6675
17196TIP3   OH273078   2.578   2.453   1.608 -0.1741 -1.0599  0.3411
17196TIP3    H173079   2.551   2.481   1.521  0.6928  1.1468  0.7308
17196TIP3    H273080   2.674   2.451   1.604 -0.0885 -0.1264  1.4520
17197TIP3   OH273081   0.704   0.606   3.696  0.5821  1.1339  0.9028
17197TIP3    H173082   0.765   0.622   3.768 -0.4528  2.3685  1.5283
17197TIP3    H273083   0.665   0.692   3.678  0.5092  0.7521 -0.8427
17198TIP3   OH273084   0.223   0.419  12.000 -0.2633 -0.0391  0.4574
17198TIP3    H173085   0.212   0.413  11.905 -2.2335 -0.8856  0.7142
17198TIP3    H273086   0.301   0.474  12.011  0.7984 -1.0474 -1.6547
17199TIP3   OH273087   0.205   6.497   2.892 -0.4418  0.1305  0.9907
17199TIP3    H173088   0.163   6.511   2.977  1.7491  1.7633  1.8601
17199TIP3    H273089   0.159   6.555   2.832 -1.0842  0.0269  1.3790
17200TIP3   OH273090   5.311   3.806   2.041 -0.1572  0.8299 -0.3210
17200TIP3    H173091   5.250   3.806   2.115  0.5803  0.0222  0.2859
17200TIP3    H273092   5.294   3.890   1.997 -2.0632  0.3891 -0.4633
17201TIP3   OH273093   1.186   5.593   3.312 -0.2879  0.1393  0.5001
17201TIP3    H173094   1.154   5.631   3.230 -0.1141 -0.9256 -0.0716
17201TIP3    H273095   1.224   5.667   3.359 -0.7883  0.8430 -0.1800
17202TIP3   OH273096   3.463   6.563  16.215  0.1589 -0.1803 -0.1820
17202TIP3    H173097   3.454   6.470  16.233 -0.6083  0.4396  3.0349
17202TIP3    H273098   3.376   6.591  16.185  0.1579 -0.3674 -0.3471
17203TIP3   OH273099   2.676   1.559   2.833 -0.1586 -0.2034 -0.3879
17203TIP3    H173100   2.728   1.569   2.753 -0.2310 -2.7291 -0.7955
17203TIP3    H273101   2.733   1.513   2.894 -0.3986  0.9606  0.7304
17204TIP3   OH273102   6.527   1.452  11.426 -0.0063  0.0449 -0.4051
17204TIP3    H173103   6.474   1.407  11.492  1.8979  2.2075  2.7416
17204TIP3    H273104   6.472   1.525  11.397 -0.4391 -0.2944 -0.4418
17205TIP3   OH273105   2.763   5.308  11.537 -0.2325 -0.0693  0.6022
17205TIP3    H173106   2.840   5.259  11.509  0.6096  1.1069  0.8105
17205TIP3    H273107   2.750   5.374  11.469  1.4567  2.4052  2.5774
17206TIP3   OH273108   5.037   5.621   1.722 -0.6460  0.0787  0.1074
17206TIP3    H173109   4.959   5.642   1.775 -1.4592 -2.3420 -0.0490
17206TIP3    H273110   5.001   5.584   1.641  0.6633 -0.1000 -0.3930
17207TIP3   OH273111   3.553   0.979   4.420  0.0069  0.2060  0.2219
17207TIP3    H173112   3.510   0.922   4.484 -1.1961  0.1784 -0.5991
17207TIP3    H273113   3.506   1.062   4.425  0.6050  0.5508  0.1415
17208TIP3   OH273114   3.253   1.978   2.423 -0.3630 -0.1204 -0.3696
17208TIP3    H173115   3.191   2.042   2.459 -0.6506 -0.7106  0.1944
17208TIP3    H273116   3.303   2.027   2.358 -0.7115  0.6307 -0.0772
17209TIP3   OH273117   4.943   0.671   1.248  0.3770  0.0670 -0.3097
17209TIP3    H173118   5.035   0.683   1.269  0.3320  0.2280 -0.2082
17209TIP3    H273119   4.934   0.703   1.158  0.7751 -1.5318 -0.9435
17210TIP3   OH273120   6.097   2.656  15.727  0.4004  0.0966 -0.0119
17210TIP3    H173121   6.006   2.627  15.724  0.7200 -0.8968 -0.0275
17210TIP3    H273122   6.134   2.610  15.802  1.4792 -1.1759 -1.3201
17211TIP3   OH273123   3.508   5.129   1.145  0.3926 -0.0844 -0.0499
17211TIP3    H173124   3.504   5.174   1.061 -0.5991 -2.5146 -1.3620
17211TIP3    H273125   3.560   5.051   1.128  0.2220 -0.5823  1.6037
17212TIP3   OH273126   2.336   4.109   2.426 -0.0850 -0.2174  0.2709
17212TIP3    H173127   2.329   4.018   2.454  0.9073 -0.2064  0.5799
17212TIP3    H273128   2.259   4.123   2.371  0.7254 -1.7999 -1.3381
17213TIP3   OH273129   3.366   3.882   5.260  0.0676  0.4269 -0.1994
17213TIP3    H173130   3.317   3.897   5.179 -1.0094  2.0225  0.7177
17213TIP3    H273131   3.327   3.804   5.298 -2.9285  2.6011  1.3425
17214TIP3   OH273132   3.697   6.335  12.745 -0.1394  0.0071 -0.9528
17214TIP3    H173133   3.774   6.388  12.763 -0.2080 -0.2805  0.2690
17214TIP3    H273134   3.628   6.398  12.724 -0.2129  0.4196  0.4636
17215TIP3   OH273135   6.741   5.363  16.836  0.5852  0.7636 -0.2027
17215TIP3    H173136   6.801   5.361  16.910  1.9899  2.5955 -1.2518
17215TIP3    H273137   6.735   5.455  16.812 -2.6121  0.6221 -0.1701
17216TIP3   OH273138   5.569   6.016   0.158  0.0739 -0.6491  0.5823
17216TIP3    H173139   5.637   6.032   0.224  1.0825 -1.9901 -0.1176
17216TIP3    H273140   5.566   5.921   0.149 -1.9988 -0.6161  0.6982
17217TIP3   OH273141   4.536   4.220   3.630 -0.5135  0.3960  0.2336
17217TIP3    H173142   4.544   4.258   3.717 -1.1247  1.9953 -0.3834
17217TIP3    H273143   4.509   4.130   3.645  0.5535  0.3157  1.7265
17218TIP3   OH273144   2.908   3.916  11.741 -0.0511  0.4787  0.0440
17218TIP3    H173145   2.847   3.843  11.734 -0.2254  0.7742 -1.7114
17218TIP3    H273146   2.942   3.928  11.653  1.7548  1.0153  0.7833
17219TIP3   OH273147   1.832   1.227   5.515 -0.3018 -0.3769 -0.0139
17219TIP3    H173148   1.817   1.314   5.478  1.4189 -0.6247 -1.3497
17219TIP3    H273149   1.832   1.241   5.610 -0.7774  0.9446 -0.1916
17220TIP3   OH273150   2.668   0.695  17.247  0.7233 -0.0199  0.2864
17220TIP3    H173151   2.655   0.788  17.264  0.5585  0.1562 -0.8057
17220TIP3    H273152   2.605   0.674  17.178  0.2142 -1.1124  1.0645
17221TIP3   OH273153   4.238   5.046   3.585  0.0288  0.3296  0.3531
17221TIP3    H173154   4.333   5.047   3.578  0.1543 -1.0610  1.6532
17221TIP3    H273155   4.208   5.107   3.517  1.7820 -0.1198 -0.8422
17222TIP3   OH273156   3.173   0.141   3.861 -0.1363 -0.7569 -0.2041
17222TIP3    H173157   3.242   0.206   3.849 -2.3514  1.6130 -0.5278
17222TIP3    H273158   3.185   0.080   3.788  0.2747  0.8900 -1.5612
17223TIP3   OH273159   6.564   0.072   3.914  0.0333 -0.2697 -0.6920
17223TIP3    H173160   6.599   0.075   4.003 -0.1362  0.3839 -0.6475
17223TIP3    H273161   6.551  -0.021   3.897 -0.0143 -0.3922 -0.0039
17224TIP3   OH273162   6.032   4.351   5.059 -0.5280  0.0664  0.1745
17224TIP3    H173163   6.097   4.296   5.016  0.2013 -0.0609  1.4003
17224TIP3    H273164   6.046   4.335   5.153 -1.2543  1.2492  0.4951
17225TIP3   OH273165   0.153   4.397   5.808 -0.2364  0.1929 -0.0391
17225TIP3    H173166   0.210   4.411   5.883  2.0993 -2.1046 -1.2871
17225TIP3    H273167   0.087   4.335   5.839  0.0622  0.1012  0.4127
17226TIP3   OH273168   5.597   0.633   6.416 -0.5814 -0.3722 -0.8020
17226TIP3    H173169   5.622   0.541   6.424  0.5014 -0.0498 -0.4427
17226TIP3    H273170   5.679   0.682   6.422 -1.3007  0.7150  0.5992
17227TIP3   OH273171   5.761   0.867  16.274 -0.0564 -0.3650  0.2571
17227TIP3    H173172   5.737   0.929  16.206  2.8800  0.2326 -0.2807
17227TIP3    H273173   5.738   0.781  16.237 -0.8604  0.1356 -0.4189
17228TIP3   OH273174   4.291   2.588  13.782  0.4612 -0.6141 -0.7998
17228TIP3    H173175   4.342   2.538  13.718  1.6295  0.3574 -0.6429
17228TIP3    H273176   4.328   2.562  13.867 -0.3332 -1.0563 -0.5868
17229TIP3   OH273177   0.702   5.629   2.505  0.0201 -0.0798 -0.2052
17229TIP3    H173178   0.722   5.614   2.413 -1.4258  1.1521 -0.7320
17229TIP3    H273179   0.621   5.680   2.505  1.0306  1.6416  1.6825
17230TIP3   OH273180   6.640   3.730  12.616  0.0898  0.2773 -0.1519
17230TIP3    H173181   6.706   3.777  12.666 -0.6156  1.0193  0.0912
17230TIP3    H273182   6.561   3.734  12.670  0.0073 -1.1601 -0.1454
17231TIP3   OH273183   4.795   5.648   5.606 -0.1498 -0.3660  0.8431
17231TIP3    H173184   4.800   5.556   5.632 -1.7054 -0.9476 -0.8075
17231TIP3    H273185   4.873   5.663   5.554  0.6505 -0.4483  2.0018
17232TIP3   OH273186   4.945   4.721  11.045 -0.1180 -0.2656 -0.0882
17232TIP3    H173187   5.021   4.772  11.014 -0.2120  0.9149  1.5917
17232TIP3    H273188   4.906   4.686  10.965  1.9677 -0.5606 -1.0169
17233TIP3   OH273189   0.691   6.236  12.051 -0.0161  0.2672 -0.5200
17233TIP3    H173190   0.748   6.164  12.078  1.8131  2.2642  1.1056
17233TIP3    H273191   0.616   6.193  12.010  1.2458 -2.5360 -0.0069
17234TIP3   OH273192   6.587   5.394   0.276 -0.6767  0.5512 -0.4576
17234TIP3    H173193   6.630   5.467   0.232  0.2697  0.3612  0.1243
17234TIP3    H273194   6.510   5.376   0.223 -0.4880  1.4508 -1.0537
17235TIP3   OH273195   5.087   4.684  17.227  0.0682 -0.3486 -0.2792
17235TIP3    H173196   5.100   4.589  17.234 -1.1223 -0.6317 -1.5178
17235TIP3    H273197   5.058   4.711  17.314  0.6971 -1.0728  0.1561
17236TIP3   OH273198   2.679   0.748  14.649  0.1448  0.8181 -0.4487
17236TIP3    H173199   2.637   0.819  14.601 -1.3198  0.2059 -0.0975
17236TIP3    H273200   2.725   0.698  14.582 -0.1836  1.1499 -0.9272
17237TIP3   OH273201   3.540   1.473   1.758  0.0267 -0.2815 -0.6887
17237TIP3    H173202   3.507   1.444   1.673  1.8289 -0.5251 -1.3286
17237TIP3    H273203   3.463   1.506   1.804 -0.4843  2.9852 -3.6570
17238TIP3   OH273204   1.313   6.334  15.922 -0.2751 -0.3130 -0.3910
17238TIP3    H173205   1.243   6.284  15.880  1.2924 -2.4958 -0.5057
17238TIP3    H273206   1.342   6.278  15.995  1.7459  0.2631 -0.7224
17239TIP3   OH273207   5.229   0.648  15.167 -0.1213  0.0954 -0.1439
17239TIP3    H173208   5.321   0.644  15.140 -0.2834  0.0032 -0.6918
17239TIP3    H273209   5.212   0.562  15.206  0.4409  0.6482  1.3424
17240TIP3   OH273210   5.262   3.688   2.321 -0.0840 -0.2336  0.5725
17240TIP3    H173211   5.182   3.685   2.269  0.1767  0.4682  0.1168
17240TIP3    H273212   5.234   3.665   2.410 -1.0354  1.2195  0.6797
17241TIP3   OH273213   2.926   3.544  13.781  0.3677  0.2824 -0.2357
17241TIP3    H173214   2.946   3.495  13.861  0.8624  1.3250  0.2879
17241TIP3    H273215   2.864   3.611  13.809  0.0818  0.2728 -0.8481
17242TIP3   OH273216   3.687   1.105  11.219  0.1489  0.2402 -0.4866
17242TIP3    H173217   3.673   1.082  11.311  1.1687 -0.1931 -0.4273
17242TIP3    H273218   3.758   1.047  11.191 -0.2242  0.3052 -1.5741
17243TIP3   OH273219   6.261   2.895   3.010 -0.2311  0.5222 -0.2075
17243TIP3    H173220   6.259   2.891   2.915  3.4908  0.0093 -0.3235
17243TIP3    H273221   6.206   2.822   3.039  0.6296 -0.8514 -1.9887
17244TIP3   OH273222   4.441   6.658   0.732 -0.5604 -0.0324 -0.0358
17244TIP3    H173223   4.347   6.667   0.715 -0.1199  0.2355 -2.5561
17244TIP3    H273224   4.451   6.566   0.757 -1.5714  0.0892  0.8697
17245TIP3   OH273225   3.388   6.408   5.918  0.3303 -0.3606  0.1141
17245TIP3    H173226   3.398   6.431   6.010  0.9063  0.4254 -0.1499
17245TIP3    H273227   3.465   6.356   5.897 -0.6169 -1.9838  0.5165
17246TIP3   OH273228   1.319   3.373  15.444  0.1797 -0.1337  0.1377
17246TIP3    H173229   1.362   3.332  15.519  0.5507  1.6771  0.9276
17246TIP3    H273230   1.382   3.436  15.410 -0.6413  0.2963 -0.6284
17247TIP3   OH273231   5.413   0.422  12.391 -0.0332 -0.1704 -0.1513
17247TIP3    H173232   5.425   0.501  12.338 -1.5897  0.6388  0.6359
17247TIP3    H273233   5.323   0.429  12.423  0.6530 -0.9758  2.0283
17248TIP3   OH273234   6.068   4.451  12.314  0.3174  0.6176  0.1326
17248TIP3    H173235   5.985   4.489  12.342  0.4077  0.2244  0.9465
17248TIP3    H273236   6.102   4.513  12.249 -1.7243 -0.3920 -1.9480
17249TIP3   OH273237   2.006   2.013  10.879  0.0995 -0.3792 -0.1204
17249TIP3    H173238   1.999   2.053  10.965  1.8675  1.8526 -0.9754
17249TIP3    H273239   1.962   2.075  10.820 -1.0897 -1.8716 -0.8402
17250TIP3   OH273240   1.278   5.175   3.430  0.0502  0.2538  0.5294
17250TIP3    H173241   1.318   5.093   3.399  1.6667  1.8605 -1.8095
17250TIP3    H273242   1.226   5.206   3.356 -0.5582  1.3628  1.4070
17251TIP3   OH273243   2.299   5.250   1.524  0.3681  0.4532  0.3227
17251TIP3    H173244   2.289   5.159   1.552 -1.8592  0.4599 -0.4006
17251TIP3    H273245   2.249   5.256   1.443  2.5215  1.7350 -0.9718
17252TIP3   OH273246   4.333   5.812  11.967  0.0927 -0.4336 -0.1520
17252TIP3    H173247   4.307   5.747  12.033  0.4335 -1.6802 -1.2442
17252TIP3    H273248   4.322   5.896  12.012 -2.2020 -1.1279  0.6587
17253TIP3   OH273249   6.130   0.882  12.389  0.1852 -0.0592 -0.5658
17253TIP3    H173250   6.169   0.966  12.365  0.5041 -0.0300  0.0432
17253TIP3    H273251   6.089   0.899  12.474  0.9568 -0.7397 -0.0590
17254TIP3   OH273252   5.725   0.067  15.834 -0.0549  0.1740  0.6665
17254TIP3    H173253   5.664   0.099  15.768  0.3686 -4.1250 -1.9657
17254TIP3    H273254   5.676   0.001  15.883  1.9008 -2.1015 -0.3646
17255TIP3   OH273255   1.788   0.317   2.873  0.1628  0.3085 -0.2818
17255TIP3    H173256   1.869   0.318   2.823  0.6242 -2.2139  0.3655
17255TIP3    H273257   1.810   0.357   2.957  1.0847 -1.5688  0.3836
17256TIP3   OH273258   0.034   4.444  12.667 -0.4769 -0.6725  0.2355
17256TIP3    H173259  -0.049   4.416  12.706 -0.9607  2.0030  1.2238
17256TIP3    H273260   0.101   4.398  12.718 -1.1864  1.0739  2.8569
17257TIP3   OH273261   4.653   6.150   3.561  0.0253  0.8694 -0.3224
17257TIP3    H173262   4.710   6.227   3.556  0.5211  0.4000 -2.3794
17257TIP3    H273263   4.674   6.110   3.645  0.1724  2.6536  0.5238
17258TIP3   OH273264   6.044   5.214   5.692  0.4830 -0.3858 -0.5205
17258TIP3    H173265   6.041   5.171   5.607 -0.1450 -0.6299 -0.3731
17258TIP3    H273266   6.058   5.143   5.754  1.7860 -0.1196 -0.4900
17259TIP3   OH273267   3.405   5.097  11.032 -0.3910 -0.1287 -0.2746
17259TIP3    H173268   3.452   5.180  11.032 -2.1647  0.9254  0.7304
17259TIP3    H273269   3.472   5.031  11.052  0.6731  1.3098  1.0582
17260TIP3   OH273270   1.958   0.296   3.867 -0.0708 -0.3467  0.3471
17260TIP3    H173271   1.867   0.306   3.895  0.2423  1.0761  0.8779
17260TIP3    H273272   2.006   0.364   3.914  1.3244 -1.2633  0.2875
17261TIP3   OH273273   3.386   4.045  14.380 -0.0834 -0.0795 -0.1866
17261TIP3    H173274   3.344   4.131  14.384 -2.5844 -1.1901 -1.7051
17261TIP3    H273275   3.423   4.040  14.292  0.2076 -0.5134 -0.0422
17262TIP3   OH273276   5.803   5.178   1.014  0.0088 -0.4225  0.4889
17262TIP3    H173277   5.784   5.094   1.055 -0.2396  0.1848  1.6478
17262TIP3    H273278   5.764   5.243   1.073 -1.1500  0.4285 -1.1831
17263TIP3   OH273279   4.044   2.602  14.173  0.2559  0.7881 -0.0235
17263TIP3    H173280   3.979   2.666  14.145  1.0867  1.1173 -1.2376
17263TIP3    H273281   4.088   2.642  14.248 -1.3501  0.2969  1.2227
17264TIP3   OH273282   4.808   3.608  15.930 -0.0607 -0.5682  0.3648
17264TIP3    H173283   4.785   3.654  15.849  1.0088 -2.0096 -0.7768
17264TIP3    H273284   4.727   3.567  15.958 -0.2890 -0.6152 -0.3454
17265TIP3   OH273285   2.927   6.528  12.326 -0.4507  0.0509 -0.6369
17265TIP3    H173286   2.842   6.527  12.371 -0.1390 -1.5923 -0.0612
17265TIP3    H273287   2.906   6.558  12.238 -1.4509  0.7945 -0.1680
17266TIP3   OH273288   2.035   3.430   1.725  0.3453 -0.1535  0.4547
17266TIP3    H173289   1.973   3.364   1.695  0.4009  1.1503 -2.7159
17266TIP3    H273290   1.980   3.503   1.753  0.3921  0.2284 -0.4432
17267TIP3   OH273291   5.335   4.294  11.779  0.0624 -0.8538 -0.2702
17267TIP3    H173292   5.334   4.305  11.683 -2.3047 -0.0834 -0.1860
17267TIP3    H273293   5.380   4.372  11.811  1.1386 -1.2590 -0.7525
17268TIP3   OH273294   0.389   1.934   3.079  0.0687 -0.3952  0.2374
17268TIP3    H173295   0.344   1.850   3.084 -2.3415  0.6795 -2.4701
17268TIP3    H273296   0.324   1.998   3.107  0.5200  0.9829 -1.7871
17269TIP3   OH273297   3.016   5.057   2.867 -0.2838  0.2167 -0.4400
17269TIP3    H173298   3.065   4.997   2.924  0.3665  0.7236 -0.4527
17269TIP3    H273299   2.924   5.036   2.883 -0.0832 -0.2761  0.1075
17270TIP3   OH273300   4.464   1.873   0.267  0.3026 -0.4879 -0.3626
17270TIP3    H173301   4.384   1.878   0.214  1.1509 -0.9935 -1.7175
17270TIP3    H273302   4.462   1.953   0.320 -1.3457 -0.7365 -0.0186
17271TIP3   OH273303   3.691   4.549   2.398  0.5038  0.2287 -0.1113
17271TIP3    H173304   3.756   4.592   2.342  0.2026 -0.4853 -1.0086
17271TIP3    H273305   3.717   4.574   2.487  0.7090  1.7499 -0.5742
17272TIP3   OH273306   3.786   3.904  11.942 -0.2540 -0.1380  0.7901
17272TIP3    H173307   3.702   3.949  11.927 -0.4192 -0.5406  0.5084
17272TIP3    H273308   3.831   3.908  11.858  0.7747  1.6338  1.3891
17273TIP3   OH273309   0.164   5.394   5.818  0.0191 -0.7126  0.1185
17273TIP3    H173310   0.241   5.375   5.872  0.7176 -2.4088 -1.4155
17273TIP3    H273311   0.131   5.477   5.852  3.7754  1.1834 -0.5456
17274TIP3   OH273312   1.483   3.595   4.030  0.2882 -0.7306 -0.8281
17274TIP3    H173313   1.411   3.534   4.044 -0.9055  0.5773 -1.1755
17274TIP3    H273314   1.528   3.598   4.115 -1.5139  0.2755  0.1219
17275TIP3   OH273315   3.469   3.266  14.755 -0.3297  0.3564  0.1267
17275TIP3    H173316   3.479   3.276  14.849  1.2440 -0.9473  0.1290
17275TIP3    H273317   3.496   3.350  14.718 -0.0345  0.5523  0.7903
17276TIP3   OH273318   4.653   1.043   2.406  0.2940  0.5370 -0.8906
17276TIP3    H173319   4.646   0.971   2.344 -1.8268  1.0600 -1.2914
17276TIP3    H273320   4.615   1.010   2.487  0.3252  0.8474 -0.7463
17277TIP3   OH273321   1.991   1.318  16.662  0.1549 -1.0867 -0.1979
17277TIP3    H173322   1.959   1.368  16.587  0.3225 -0.0381  0.4183
17277TIP3    H273323   2.035   1.383  16.717 -3.9123 -0.8734  3.0625
17278TIP3   OH273324   5.513   0.647   5.966  0.0141  0.1017 -0.5385
17278TIP3    H173325   5.435   0.594   5.948 -0.9008  1.1501  0.1818
17278TIP3    H273326   5.513   0.657   6.061  1.4447 -0.4860 -0.4764
17279TIP3   OH273327   0.423   1.892  14.639 -0.0680 -0.2486 -0.1933
17279TIP3    H173328   0.377   1.828  14.694 -0.0305  1.8513  2.3803
17279TIP3    H273329   0.506   1.908  14.685  1.2779 -0.6004 -2.4196
17280TIP3   OH273330   1.934   1.194  12.561 -0.3264  0.3017  0.8036
17280TIP3    H173331   1.948   1.114  12.611  0.5492 -0.0068  0.0824
17280TIP3    H273332   1.855   1.177  12.509 -0.2418 -0.0256  0.7842
17281TIP3   OH273333   4.202   3.193   1.104 -0.0836  0.3824  0.8246
17281TIP3    H173334   4.113   3.220   1.079 -0.3605  0.0662  1.4518
17281TIP3    H273335   4.206   3.100   1.080  0.4648  0.6810 -0.2478
17282TIP3   OH273336   6.697   3.352  13.717  0.1536 -0.3426 -0.0662
17282TIP3    H173337   6.699   3.274  13.661 -1.1607  0.1964 -0.9007
17282TIP3    H273338   6.603   3.371  13.727  0.4190  0.2791  1.3354
17283TIP3   OH273339   1.363   3.317  15.837  0.3388  0.3158  0.1075
17283TIP3    H173340   1.313   3.357  15.766 -0.4999 -1.0996 -0.1103
17283TIP3    H273341   1.297   3.277  15.893  0.9392  2.0280  2.0928
17284TIP3   OH273342   6.110   6.253   0.677 -0.1147  0.5594 -0.2843
17284TIP3    H173343   6.136   6.332   0.725  2.1124  0.5174 -1.3473
17284TIP3    H273344   6.180   6.239   0.614 -1.0311 -1.6585 -0.8761
17285TIP3   OH273345   4.907   0.157  16.633 -0.0149  0.7080  0.3889
17285TIP3    H173346   4.827   0.207  16.644  1.5198  2.4831  4.6803
17285TIP3    H273347   4.903   0.090  16.701  1.3117 -0.3594 -0.5445
17286TIP3   OH273348   0.808   2.257  17.206  0.3299 -0.4362  0.2441
17286TIP3    H173349   0.870   2.302  17.149  1.4728 -0.2070  1.6401
17286TIP3    H273350   0.744   2.218  17.146 -0.5709  2.8141 -1.0157
17287TIP3   OH273351   3.031   2.001  12.797  0.0234 -0.8231  0.0137
17287TIP3    H173352   2.995   2.055  12.727  0.7792 -0.0459  0.2229
17287TIP3    H273353   3.027   2.057  12.875 -1.7572 -2.0240  0.8303
17288TIP3   OH273354   2.466   0.360   2.366 -0.4112 -0.4091 -0.4652
17288TIP3    H173355   2.492   0.270   2.384  3.6095  0.6596 -0.3807
17288TIP3    H273356   2.492   0.409   2.444 -1.8465  0.9402 -0.8171
17289TIP3   OH273357   2.366   6.295  12.037  0.3821  0.0905 -0.5079
17289TIP3    H173358   2.393   6.225  11.978  0.7269 -1.0479  0.9661
17289TIP3    H273359   2.299   6.255  12.092 -1.0053  1.5713 -1.1155
17290TIP3   OH273360   0.855   4.377  16.664 -0.0273  1.0370 -0.1581
17290TIP3    H173361   0.902   4.323  16.727 -0.3315 -0.3204 -1.0733
17290TIP3    H273362   0.920   4.441  16.634  0.9940 -0.2432 -0.7322
17291TIP3   OH273363   4.043   2.369   3.118 -1.0456 -0.0235 -0.0331
17291TIP3    H173364   4.091   2.379   3.201  0.3354 -0.6646 -0.7560
17291TIP3    H273365   4.036   2.275   3.105 -1.4571  0.0749 -0.5477
17292TIP3   OH273366   6.046   2.827  14.822  0.2501  0.4309  0.5671
17292TIP3    H173367   5.987   2.754  14.802  0.5086 -0.1343  1.8689
17292TIP3    H273368   5.993   2.905  14.805 -0.1448 -0.0486 -0.4820
17293TIP3   OH273369   6.716   4.362   0.269 -0.1650  0.3467 -0.1159
17293TIP3    H173370   6.677   4.443   0.238 -2.4838 -1.5121 -2.2959
17293TIP3    H273371   6.811   4.375   0.259 -0.5747  2.3487 -1.5493
17294TIP3   OH273372   0.331   2.261  14.244 -0.5317  0.2895 -0.2281
17294TIP3    H173373   0.277   2.283  14.168 -2.2708  0.0975  0.9366
17294TIP3    H273374   0.283   2.191  14.288 -1.3752  2.8533  3.0572
17295TIP3   OH273375   5.893   4.592  15.075 -0.9108  0.3986 -0.0469
17295TIP3    H173376   5.905   4.676  15.029 -1.1122  1.4313  1.7395
17295TIP3    H273377   5.975   4.578  15.121 -1.3499  0.2602  0.6933
17296TIP3   OH273378   4.795   2.156  16.212 -0.5216 -0.0524  0.0009
17296TIP3    H173379   4.824   2.066  16.198  0.5519  0.4418 -1.0534
17296TIP3    H273380   4.840   2.184  16.292  0.5009  0.0885 -0.6025
17297TIP3   OH273381   5.443   3.152  13.656 -0.0612  0.1125 -0.0385
17297TIP3    H173382   5.421   3.099  13.580  0.5648 -0.3276  0.0794
17297TIP3    H273383   5.369   3.141  13.716  0.7222 -1.8609  0.6204
17298TIP3   OH273384   1.486   0.959  13.297  0.4999  0.4743  0.7641
17298TIP3    H173385   1.556   0.970  13.361 -0.1006  0.2603  1.4501
17298TIP3    H273386   1.437   1.041  13.300 -0.1046  0.0910  1.2607
17299TIP3   OH273387   6.140   5.552  12.017  0.2071 -0.3473  0.6021
17299TIP3    H173388   6.153   5.640  12.052 -1.7815  0.2514 -0.0999
17299TIP3    H273389   6.183   5.494  12.080 -0.2872  0.9597  2.1757
17300TIP3   OH273390   3.607   1.650  17.060  0.0238  0.2726  0.1243
17300TIP3    H173391   3.578   1.707  16.988  2.0258  0.3702 -0.6321
17300TIP3    H273392   3.538   1.658  17.126 -1.0537  1.4487 -1.1118
17301TIP3   OH273393   3.889   4.665   2.208  0.6640  0.0527 -0.8211
17301TIP3    H173394   3.948   4.593   2.229 -1.0855 -0.6232  2.0388
17301TIP3    H273395   3.850   4.641   2.124 -0.7641 -2.9938  0.6212
17302TIP3   OH273396   3.796   0.121   4.318 -0.0843  0.0028 -0.1498
17302TIP3    H173397   3.790   0.059   4.391 -1.8491 -1.0229 -1.1079
17302TIP3    H273398   3.872   0.092   4.267 -0.0569 -0.5137  0.1876
17303TIP3   OH273399   1.765   5.900   5.785 -0.0812 -0.2684 -0.8500
17303TIP3    H173400   1.670   5.909   5.775  0.0844  0.2570 -2.0137
17303TIP3    H273401   1.801   5.969   5.729  0.9819 -0.2481 -0.1502
17304TIP3   OH273402   1.989   4.419   0.210 -0.2455  0.0790 -0.2413
17304TIP3    H173403   1.958   4.332   0.186 -0.6253 -0.2169  1.3084
17304TIP3    H273404   2.002   4.463   0.126  1.0874 -1.8403 -1.0822
17305TIP3   OH273405   2.930   3.949  15.107 -0.5758  0.0873  0.3481
17305TIP3    H173406   2.955   3.881  15.170  0.5341  0.9568  0.8643
17305TIP3    H273407   2.904   3.900  15.029  1.4788 -0.9128  0.2452
17306TIP3   OH273408   5.361   2.962   1.620  0.6398 -0.0889  0.2730
17306TIP3    H173409   5.414   3.010   1.683  1.2540 -0.5016  0.0804
17306TIP3    H273410   5.422   2.899   1.580  0.4168  0.6094 -1.2046
17307TIP3   OH273411   5.601   0.122  14.799 -0.8044 -0.1413 -0.0852
17307TIP3    H173412   5.538   0.064  14.757  0.1241 -1.7224  0.6386
17307TIP3    H273413   5.685   0.100  14.758 -0.4168  0.5387  0.3355
17308TIP3   OH273414   4.117   6.180  14.446  0.2764 -0.0687  0.0544
17308TIP3    H173415   4.057   6.178  14.372  0.3196  0.9322 -0.0052
17308TIP3    H273416   4.063   6.206  14.521  0.3108 -0.7131  0.3123
17309TIP3   OH273417   5.350   3.141   3.745  0.3497  0.0418  0.3203
17309TIP3    H173418   5.394   3.088   3.812  1.1728  0.9001  0.4697
17309TIP3    H273419   5.260   3.107   3.743  0.9954 -1.7466  0.0112
17310TIP3   OH273420   1.574   4.811   3.378  0.4250  0.1088 -0.1018
17310TIP3    H173421   1.533   4.744   3.325  0.8639  0.0197 -0.3230
17310TIP3    H273422   1.584   4.771   3.465  1.4643 -0.4020 -0.4566
17311TIP3   OH273423   1.800   6.199   5.388 -0.1748  0.3044 -0.0949
17311TIP3    H173424   1.800   6.173   5.296 -0.0234  1.6529 -0.4946
17311TIP3    H273425   1.728   6.262   5.395 -1.2994 -1.0907  1.1113
17312TIP3   OH273426   0.292   4.804   4.089  0.5913  0.5625  0.3526
17312TIP3    H173427   0.340   4.779   4.010  0.8332  0.9481  0.3747
17312TIP3    H273428   0.277   4.898   4.079  1.2761  0.7612  1.1085
17313TIP3   OH273429   4.561   5.893   4.193  0.6119 -0.3853  0.3988
17313TIP3    H173430   4.591   5.940   4.271  1.5281  0.2431 -0.3253
17313TIP3    H273431   4.637   5.844   4.163 -0.2909 -2.2488  1.0477
17314TIP3   OH273432   4.235   6.671   1.630 -0.3519 -0.1990 -0.5159
17314TIP3    H173433   4.200   6.721   1.704 -0.4342 -0.7106 -0.2054
17314TIP3    H273434   4.161   6.662   1.570 -0.4294 -0.2417 -0.4145
17315TIP3   OH273435   6.018   6.218   5.516 -0.2646  0.0176  0.3878
17315TIP3    H173436   6.056   6.284   5.573  0.5968 -0.5457  0.4728
17315TIP3    H273437   6.087   6.153   5.504 -1.1468 -0.9537  0.4387
17316TIP3   OH273438   4.638   3.941   0.757 -0.6930 -0.1387 -0.4715
17316TIP3    H173439   4.699   3.935   0.683  0.4903  0.6396  0.4262
17316TIP3    H273440   4.636   4.034   0.779 -0.0229 -0.5223  1.3038
17317TIP3   OH273441   0.816   5.836  14.390 -0.2071 -0.0778  0.3028
17317TIP3    H173442   0.794   5.768  14.454  1.0390 -0.9020 -0.1330
17317TIP3    H273443   0.892   5.880  14.427  0.3371 -0.3615 -0.4646
17318TIP3   OH273444   0.193   0.254  11.535  0.2121  0.7098 -0.4251
17318TIP3    H173445   0.109   0.225  11.498  0.6082  0.7868 -1.3940
17318TIP3    H273446   0.250   0.178  11.529 -0.2282  0.1823  1.6663
17319TIP3   OH273447   2.719   6.425  15.369 -0.1023  0.4011 -0.3609
17319TIP3    H173448   2.742   6.400  15.458  0.4128  1.7120 -0.1140
17319TIP3    H273449   2.712   6.520  15.372  1.5784  0.5984 -2.1044
17320TIP3   OH273450   2.332   0.525  13.282 -0.1379 -0.4416 -0.1390
17320TIP3    H173451   2.383   0.547  13.204 -0.7447  0.6050 -0.2422
17320TIP3    H273452   2.346   0.598  13.341 -1.1548 -0.3698  0.0188
17321TIP3   OH273453   3.839   3.979   5.911 -0.4926  0.0203  0.0018
17321TIP3    H173454   3.914   3.950   5.860 -0.9540 -0.0076 -0.6597
17321TIP3    H273455   3.812   3.902   5.961  0.9295  0.4526  1.5052
17322TIP3   OH273456   3.649   1.334   3.979  0.3647  0.4472  0.3126
17322TIP3    H173457   3.705   1.394   3.929  0.1878 -0.7269 -1.3035
17322TIP3    H273458   3.616   1.272   3.915 -3.1459  1.3056  1.1643
17323TIP3   OH273459   6.372   4.687  16.566  0.1833  0.0082 -0.0162
17323TIP3    H173460   6.419   4.679  16.484  1.8539 -0.0574  0.9270
17323TIP3    H273461   6.349   4.597  16.590 -1.8586  0.1600 -1.2611
17324TIP3   OH273462   0.564   4.016  13.339  0.2572 -0.5371  0.0979
17324TIP3    H173463   0.474   4.027  13.370  0.4656 -0.0159  0.5354
17324TIP3    H273464   0.600   4.105  13.340 -0.4018 -0.1364 -3.7919
17325TIP3   OH273465   2.369   0.670  16.664  0.4434  0.0719 -0.0342
17325TIP3    H173466   2.298   0.609  16.644  0.9757 -0.6485  0.2477
17325TIP3    H273467   2.325   0.748  16.699 -0.2730  0.0687 -0.9096
17326TIP3   OH273468   1.675   1.149   5.764 -0.0957  0.2059 -0.0363
17326TIP3    H173469   1.707   1.223   5.817  0.8397 -0.0563 -0.2293
17326TIP3    H273470   1.647   1.084   5.828 -0.2169  0.4280  0.1371
17327TIP3   OH273471   4.224   4.248  13.480  0.3550  0.6723  0.1996
17327TIP3    H173472   4.286   4.267  13.410 -0.1336  1.7126  0.0428
17327TIP3    H273473   4.169   4.327  13.486  0.2450  0.5081  1.5788
17328TIP3   OH273474   3.938   6.381  15.195  0.5502 -0.1822  0.4295
17328TIP3    H173475   3.961   6.453  15.253  0.6667 -1.3824  1.9027
17328TIP3    H273476   3.971   6.408  15.109  0.8986  1.3465  1.0304
17329TIP3   OH273477   0.687   3.124   1.938  0.3177  0.1294  0.1038
17329TIP3    H173478   0.600   3.123   1.978  0.3637 -1.0814  0.1869
17329TIP3    H273479   0.716   3.215   1.945 -0.9067  0.5234  0.1510
17330TIP3   OH273480   2.503   5.031  15.212 -0.2879  0.1222 -0.2097
17330TIP3    H173481   2.534   5.121  15.198  0.7018 -0.3308 -0.9881
17330TIP3    H273482   2.562   4.995  15.278 -1.6551  0.5320  1.2731
17331TIP3   OH273483   5.041   1.134   2.254 -0.3244 -0.0221  0.1093
17331TIP3    H173484   5.020   1.226   2.266 -1.0149 -0.5690  3.6084
17331TIP3    H273485   5.134   1.128   2.277 -0.2411 -0.1503 -0.2693
17332TIP3   OH273486   5.715   2.543  11.050  0.2423 -0.4130  0.0766
17332TIP3    H173487   5.781   2.581  11.108  0.7992 -1.1032 -0.0904
17332TIP3    H273488   5.744   2.566  10.962  0.1401 -0.5283  0.0118
17333TIP3   OH273489   4.706   1.157   2.717 -1.1138 -0.0473  0.5240
17333TIP3    H173490   4.623   1.110   2.707 -1.2165  0.4695 -1.1266
17333TIP3    H273491   4.691   1.241   2.675  0.0385  0.3167  0.8408
17334TIP3   OH273492   2.666   5.969  15.727  0.3639  0.2996  0.2025
17334TIP3    H173493   2.699   5.911  15.658 -0.1034  1.2466 -0.8325
17334TIP3    H273494   2.631   6.045  15.680  0.5423  1.2100  1.5107
17335TIP3   OH273495   5.763   4.201  13.757  0.5859 -0.1470  0.0991
17335TIP3    H173496   5.775   4.295  13.770 -1.1837  0.3840 -1.8339
17335TIP3    H273497   5.681   4.180  13.802  0.3775 -0.5139 -0.4337
17336TIP3   OH273498   2.833   0.014  13.350  0.2021 -0.3710  0.6290
17336TIP3    H173499   2.917   0.053  13.328  0.3205 -1.2291 -0.4531
17336TIP3    H273500   2.848  -0.030  13.434  1.3013 -1.9705 -0.3822
17337TIP3   OH273501   0.516   4.525   3.681  0.0996 -0.7767 -0.0710
17337TIP3    H173502   0.603   4.497   3.707 -0.6822 -3.9809 -0.7155
17337TIP3    H273503   0.522   4.542   3.587  0.4234  0.8060  0.2092
17338TIP3   OH273504   4.543   4.995   1.363  0.5430  1.2708  0.4912
17338TIP3    H173505   4.574   5.007   1.453  0.6589  1.6827  0.3961
17338TIP3    H273506   4.623   4.994   1.310  0.4997  0.6706  0.4287
17339TIP3   OH273507   0.227   2.122   3.401  0.1279 -0.0319 -0.1785
17339TIP3    H173508   0.229   2.095   3.493 -0.2649  2.2038  0.5017
17339TIP3    H273509   0.172   2.200   3.400 -0.3883 -0.3987 -2.4221
17340TIP3   OH273510   5.216   0.213   1.673  0.0067  0.0551 -0.2555
17340TIP3    H173511   5.153   0.236   1.742  1.2383 -1.4021  1.4024
17340TIP3    H273512   5.163   0.171   1.606 -1.3027  1.9990 -0.4805
17341TIP3   OH273513   4.781   0.174  17.278  0.4910 -0.1450  0.2135
17341TIP3    H173514   4.826   0.115  17.218  0.3330  1.7190 -1.7929
17341TIP3    H273515   4.843   0.245  17.295  0.0985 -0.0492  1.3071
17342TIP3   OH273516   5.799   3.964  16.899 -0.0283 -0.2998  0.1991
17342TIP3    H173517   5.705   3.954  16.883 -0.7620  2.6568  2.2335
17342TIP3    H273518   5.813   4.059  16.898  2.9667 -0.7224 -0.1694
17343TIP3   OH273519   2.877   3.679   5.534  0.1758  0.0083  0.5160
17343TIP3    H173520   2.803   3.740   5.544  0.7172  0.4902  1.6307
17343TIP3    H273521   2.856   3.630   5.454 -1.0778  0.5197  0.5086
17344TIP3   OH273522   3.261   0.343  11.199 -0.0463 -0.2661  0.5938
17344TIP3    H173523   3.279   0.434  11.174  0.7136 -0.3831  0.6927
17344TIP3    H273524   3.200   0.312  11.133  0.5631 -0.0206 -0.0931
17345TIP3   OH273525   6.393   4.468   3.380 -0.1042  0.2399  0.8344
17345TIP3    H173526   6.482   4.474   3.414 -0.0218 -0.1449  0.6870
17345TIP3    H273527   6.367   4.559   3.368  0.4500  0.3502  0.4150
17346TIP3   OH273528   2.236   4.914   2.651 -0.6635  0.0272  0.6156
17346TIP3    H173529   2.212   4.979   2.585 -0.1503  0.0696  0.4687
17346TIP3    H273530   2.188   4.940   2.729 -0.7423  0.3746  0.4510
17347TIP3   OH273531   5.176   3.235   5.849  0.3461  0.1128  0.3346
17347TIP3    H173532   5.255   3.283   5.825 -0.0863  2.0480  2.5614
17347TIP3    H273533   5.208   3.155   5.891  1.2274  1.6787  2.7835
17348TIP3   OH273534   2.459   5.641   4.322 -0.2280 -0.0889  0.3326
17348TIP3    H173535   2.419   5.724   4.346  0.4872 -0.1642  1.8829
17348TIP3    H273536   2.544   5.664   4.285 -1.4049  0.0374 -2.3769
17349TIP3   OH273537   2.101   2.116  13.916 -0.6490 -0.1473  0.3702
17349TIP3    H173538   2.071   2.025  13.910 -1.8094  0.2792 -0.4257
17349TIP3    H273539   2.147   2.121  14.000 -1.1456 -1.2988  0.7164
17350TIP3   OH273540   6.717   2.058  15.192  0.1745 -0.4024 -0.0653
17350TIP3    H173541   6.671   2.124  15.138  0.8239 -1.5429 -2.0739
17350TIP3    H273542   6.809   2.085  15.190  0.2816 -0.7657  0.0233
17351TIP3   OH273543   2.459   1.018   3.932 -0.1662 -0.7567 -0.1449
17351TIP3    H173544   2.406   0.949   3.893  0.0879 -1.1088  0.1217
17351TIP3    H273545   2.527   1.037   3.867  1.7338 -3.0505  1.0699
17352TIP3   OH273546   5.361   5.668   4.688 -0.5331  0.2215 -0.1385
17352TIP3    H173547   5.398   5.596   4.636  1.2177  1.7324 -1.0355
17352TIP3    H273548   5.431   5.692   4.748 -1.1326  1.1252  0.2059
17353TIP3   OH273549   3.120   4.670  15.477  0.4187 -0.1305 -0.0604
17353TIP3    H173550   3.208   4.707  15.490  0.1151  1.6501 -2.6700
17353TIP3    H273551   3.098   4.630  15.561  3.3609  0.1950  0.9071
17354TIP3   OH273552   3.528   3.127   2.463  0.2497  0.1941  0.0952
17354TIP3    H173553   3.550   3.089   2.548  0.0110  0.5675  0.3232
17354TIP3    H273554   3.588   3.085   2.402 -0.4548 -1.0341  0.2402
17355TIP3   OH273555   0.741   4.602  15.862 -0.4603  0.0979  0.3625
17355TIP3    H173556   0.646   4.598  15.860 -0.6363  1.7391  3.1327
17355TIP3    H273557   0.768   4.533  15.922  0.0311  0.3229  0.4115
17356TIP3   OH273558   0.977   0.929   4.740 -0.0155 -0.0337 -0.3126
17356TIP3    H173559   0.919   0.854   4.756  0.5137  0.0449  2.2048
17356TIP3    H273560   1.038   0.898   4.673 -0.2256 -1.6300  0.2098
17357TIP3   OH273561   0.805   0.977  17.128 -0.7100 -0.4479  0.0501
17357TIP3    H173562   0.834   1.026  17.051  1.0173 -2.7305 -0.8209
17357TIP3    H273563   0.710   0.969  17.117 -0.6461  0.3704 -1.1791
17358TIP3   OH273564   3.000   3.076  12.206  1.0767  0.2499 -0.5002
17358TIP3    H173565   3.056   3.154  12.211  0.9529  0.2802  0.6210
17358TIP3    H273566   3.012   3.033  12.291  0.3891 -0.4379 -0.7459
17359TIP3   OH273567   1.614   6.699   0.981 -0.3572  0.4739  0.2690
17359TIP3    H173568   1.567   6.779   0.957  1.8645  1.9540  0.6531
17359TIP3    H273569   1.695   6.731   1.022  0.5037 -1.9790  0.5255
17360TIP3   OH273570   5.984   4.012  11.782  0.1495 -0.5036  0.3611
17360TIP3    H173571   5.920   4.083  11.787 -0.0854 -0.6857 -0.1132
17360TIP3    H273572   5.965   3.957  11.858  0.7686  0.3085  1.1156
17361TIP3   OH273573   3.455   6.586  17.163 -0.3583  0.5742 -0.0834
17361TIP3    H173574   3.492   6.661  17.210  0.8485 -0.2807  0.3866
17361TIP3    H273575   3.361   6.602  17.162 -0.2758  1.2956  1.4573
17362TIP3   OH273576   5.110   3.146   2.446 -0.2070 -0.2000  0.4965
17362TIP3    H173577   5.160   3.201   2.506  1.1711 -1.4141  0.4872
17362TIP3    H273578   5.084   3.070   2.498 -0.0249 -0.6921 -0.1271
17363TIP3   OH273579   6.615   3.978  13.956 -0.0078  0.5072 -0.0919
17363TIP3    H173580   6.569   3.957  13.875  0.2641 -1.3199  0.2049
17363TIP3    H273581   6.697   4.019  13.928 -0.8647  1.8561 -0.6704
17364TIP3   OH273582   3.938   4.085   3.534 -0.0380  0.8546  0.1710
17364TIP3    H173583   3.932   3.998   3.495  1.6669  2.0529 -2.9219
17364TIP3    H273584   3.847   4.114   3.542 -0.5282 -0.4393 -0.4758
17365TIP3   OH273585   5.478   5.632  12.409 -0.3578  0.0604  0.4460
17365TIP3    H173586   5.573   5.638  12.424  0.1768  1.7136 -3.0692
17365TIP3    H273587   5.440   5.701  12.463  0.6610  0.7571  0.2914
17366TIP3   OH273588   5.953   2.298  11.422  0.0278 -0.6466 -0.3782
17366TIP3    H173589   5.958   2.287  11.327  0.8289  1.6005 -0.6444
17366TIP3    H273590   6.043   2.320  11.448 -1.1439  4.4222  0.0339
17367TIP3   OH273591   3.563   1.005  13.959  0.9970 -0.5847  0.3700
17367TIP3    H173592   3.524   1.038  14.039  0.6424 -1.7356  0.6769
17367TIP3    H273593   3.634   1.068  13.939  0.2807  0.3959  0.8776
17368TIP3   OH273594   1.136   5.052  12.957 -0.2449 -0.1932 -0.2362
17368TIP3    H173595   1.128   5.065  12.863  1.2106  0.2913 -0.3104
17368TIP3    H273596   1.080   4.976  12.975 -0.9992  0.0684 -1.3841
17369TIP3   OH273597   1.939   1.483  12.312 -0.1478 -0.3138  0.3187
17369TIP3    H173598   1.962   1.443  12.228  2.1458 -1.1250  1.3056
17369TIP3    H273599   1.869   1.427  12.346  1.6755 -2.4168  0.7638
17370TIP3   OH273600   4.577   2.978  15.420 -0.2525  0.4001 -0.2143
17370TIP3    H173601   4.618   3.021  15.345 -0.0012 -1.2442 -1.0295
17370TIP3    H273602   4.644   2.920  15.455 -0.4370  0.9832  1.1655
17371TIP3   OH273603   0.531   6.790  12.240 -0.5676 -0.3050 -0.5092
17371TIP3    H173604   0.520   6.885  12.246 -0.4212 -0.3970  1.4437
17371TIP3    H273605   0.449   6.754  12.274  0.4078 -0.8821  1.2921
17372TIP3   OH273606   0.030   2.197  14.893 -0.3973  1.0759 -0.2049
17372TIP3    H173607   0.030   2.177  14.800 -0.2472  1.3046 -0.2518
17372TIP3    H273608  -0.004   2.286  14.899 -0.5765  0.9969 -0.0288
17373TIP3   OH273609   5.004   2.705  12.343  0.5174  0.0877 -0.2040
17373TIP3    H173610   5.091   2.685  12.308  1.3582 -0.8814  2.3169
17373TIP3    H273611   4.984   2.630  12.399 -1.7889  0.5067 -0.4458
17374TIP3   OH273612   5.272   1.440  16.913  0.1818 -0.4516  0.0999
17374TIP3    H173613   5.289   1.405  17.001 -1.8311  0.9892  1.0885
17374TIP3    H273614   5.273   1.535  16.924  1.7858 -0.2042 -1.8375
17375TIP3   OH273615   2.911   0.923  12.339  0.4782 -0.2489  0.0337
17375TIP3    H173616   2.882   1.004  12.381 -0.2778 -0.1514 -0.6421
17375TIP3    H273617   2.984   0.950  12.284  0.2377 -0.0180 -0.1778
17376TIP3   OH273618   5.969   5.506   4.125 -0.0976 -0.0576  0.1435
17376TIP3    H173619   6.054   5.482   4.163  1.2797  0.1473 -2.6761
17376TIP3    H273620   5.963   5.455   4.044 -0.9629  2.6961 -1.6156
17377TIP3   OH273621   1.938   4.160   0.201 -0.0258  0.4360  0.2101
17377TIP3    H173622   1.969   4.087   0.256  0.1973  1.3695  1.3455
17377TIP3    H273623   1.856   4.128   0.163 -0.3820 -0.0918  1.3948
17378TIP3   OH273624   0.634   1.587   5.529  0.0319  0.3003  0.1165
17378TIP3    H173625   0.545   1.610   5.558 -0.8829 -0.5887 -1.8512
17378TIP3    H273626   0.669   1.668   5.492 -1.2919 -0.1459 -2.2334
17379TIP3   OH273627   2.913   3.008  12.776 -0.0070 -0.5395  0.6042
17379TIP3    H173628   2.844   3.033  12.714  0.1963  0.2221  0.6811
17379TIP3    H273629   2.925   3.085  12.831  2.6100  0.2296 -0.9446
17380TIP3   OH273630   4.585   5.796  14.698  0.3699  0.2875  0.0492
17380TIP3    H173631   4.500   5.765  14.730  0.0322 -0.4033 -1.4595
17380TIP3    H273632   4.646   5.727  14.723 -0.0796 -0.7833 -1.7087
17381TIP3   OH273633   1.082   2.036  13.976  0.0052  0.0309 -0.2209
17381TIP3    H173634   1.127   2.114  13.944 -0.2573  0.7536  1.1364
17381TIP3    H273635   1.021   2.012  13.906 -0.0775  1.1812 -0.5480
17382TIP3   OH273636   6.121   5.846   5.836 -0.4927 -0.1573 -0.4953
17382TIP3    H173637   6.109   5.752   5.820  2.7769 -0.9639  1.4427
17382TIP3    H273638   6.059   5.867   5.906  0.2682 -1.3777  0.5595
17383TIP3   OH273639   2.942   4.381   4.197 -0.0868 -0.4989  0.0309
17383TIP3    H173640   2.932   4.395   4.103  0.2612  3.4582  0.5315
17383TIP3    H273641   3.031   4.346   4.207  0.5232  0.7613 -0.9623
17384TIP3   OH273642   6.763   4.310  10.782 -0.3506 -0.2386  0.2724
17384TIP3    H173643   6.756   4.241  10.717  0.4547 -0.8084  0.7761
17384TIP3    H273644   6.683   4.362  10.772  0.3504  0.4426 -2.0374
17385TIP3   OH273645   3.834   3.928  15.437 -0.5555  0.7932  0.5418
17385TIP3    H173646   3.827   3.834  15.449 -0.8613  0.5855 -1.1201
17385TIP3    H273647   3.896   3.956  15.505 -0.2985 -0.6277  0.9160
17386TIP3   OH273648   2.080   1.004   5.814  0.2301  0.0285  0.4421
17386TIP3    H173649   2.099   1.098   5.815 -0.8619  0.2964 -1.0825
17386TIP3    H273650   2.128   0.971   5.738 -0.8458 -0.3026 -0.1080
17387TIP3   OH273651   2.734   1.562  13.056  0.0223  0.4852 -0.0122
17387TIP3    H173652   2.823   1.593  13.039 -0.6724  1.3352 -2.2828
17387TIP3    H273653   2.732   1.472  13.023 -0.1866  0.7497 -0.7255
17388TIP3   OH273654   3.279   5.092  16.655 -0.6101  0.2737 -0.1917
17388TIP3    H173655   3.266   5.182  16.625 -1.3311  1.0951  2.4682
17388TIP3    H273656   3.359   5.095  16.707 -0.7667 -0.5709  0.1102
17389TIP3   OH273657   2.417   4.614   6.299  0.2207  0.1806  0.5720
17389TIP3    H173658   2.488   4.616   6.235 -0.4944  1.7436 -0.2201
17389TIP3    H273659   2.458   4.585   6.380  1.2257 -1.4664 -0.5035
17390TIP3   OH273660   2.100   2.499   4.560  0.3135 -0.4185 -0.4288
17390TIP3    H173661   2.105   2.467   4.470  1.3473  0.0828 -0.5599
17390TIP3    H273662   2.025   2.559   4.560 -0.4356 -1.3526 -0.6490
17391TIP3   OH273663   6.282   5.199  14.299  0.2930  0.1353 -0.2370
17391TIP3    H173664   6.265   5.276  14.354  0.3664 -0.0959  0.1115
17391TIP3    H273665   6.331   5.139  14.356  3.2024  1.1922 -1.5406
17392TIP3   OH273666   2.941   3.528  15.639 -0.3404 -0.2126  0.4559
17392TIP3    H173667   3.026   3.491  15.615 -0.2994  0.2776 -0.1867
17392TIP3    H273668   2.897   3.459  15.688 -0.5884 -1.4023 -1.3977
17393TIP3   OH273669   1.018   1.877   5.634 -0.0653 -0.1535  0.3145
17393TIP3    H173670   0.960   1.937   5.681 -1.7222 -2.4530  1.2763
17393TIP3    H273671   1.089   1.860   5.695 -0.4589 -0.4670  0.6891
17394TIP3   OH273672   3.654   4.828   1.348 -0.1564  0.0225 -0.0626
17394TIP3    H173673   3.575   4.866   1.386 -0.9982 -0.5832 -1.1708
17394TIP3    H273674   3.683   4.764   1.413 -2.8164 -2.5781 -1.3208
17395TIP3   OH273675   2.269   0.340   3.299  0.2252  0.0159  0.4956
17395TIP3    H173676   2.329   0.280   3.343 -0.1587 -0.1297  0.8309
17395TIP3    H273677   2.302   0.427   3.320  1.3030 -0.0884 -0.7318
17396TIP3   OH273678   5.962   6.070  13.623 -0.5131  0.1106  0.0345
17396TIP3    H173679   5.869   6.074  13.602 -0.9593 -2.0789  1.4298
17396TIP3    H273680   5.989   5.982  13.594  0.9244  0.4119  0.4080
17397TIP3   OH273681   1.776   0.092   4.665  0.0347  0.2293 -0.4515
17397TIP3    H173682   1.681   0.085   4.660  0.1860 -1.5536 -1.1538
17397TIP3    H273683   1.801   0.144   4.588 -0.1788 -1.4278 -1.6617
17398TIP3   OH273684   6.138   4.748  12.470  0.3554 -0.2230 -0.5705
17398TIP3    H173685   6.080   4.776  12.399 -0.6987  1.0898  0.7533
17398TIP3    H273686   6.078   4.710  12.535  0.8734  1.5369  1.0083
17399TIP3   OH273687   5.014   6.518   2.266  0.1183  0.6829  0.6751
17399TIP3    H173688   5.063   6.528   2.185  0.8731 -1.2167  0.8782
17399TIP3    H273689   4.929   6.481   2.238  0.1713  0.5497  0.6879
17400TIP3   OH273690   4.939   6.494   3.304  0.7831  0.5021 -0.3084
17400TIP3    H173691   4.909   6.470   3.217 -2.5227  0.5352  0.7304
17400TIP3    H273692   4.939   6.590   3.303 -1.2066  0.5391  0.2793
17401TIP3   OH273693   3.725   2.433  10.793 -0.0033 -0.8510 -0.2084
17401TIP3    H173694   3.638   2.401  10.817  0.7676 -1.8716  1.2993
17401TIP3    H273695   3.709   2.496  10.723 -2.0700  0.0650  1.0612
17402TIP3   OH273696   3.843   0.361   4.066 -0.2568  0.1354  0.3818
17402TIP3    H173697   3.923   0.348   4.015 -0.7234  0.1713 -0.3835
17402TIP3    H273698   3.873   0.383   4.154  0.5767  0.5540  0.0006
17403TIP3   OH273699   2.999   4.917   4.903 -0.0499 -0.3127  0.1120
17403TIP3    H173700   2.913   4.918   4.861  0.3643 -1.0084 -0.7761
17403TIP3    H273701   2.984   4.953   4.990 -1.2966 -0.7250  0.0718
17404TIP3   OH273702   6.308   3.038  11.793  0.2714  0.0530  0.2145
17404TIP3    H173703   6.237   3.041  11.858 -0.4483  1.1748 -0.5895
17404TIP3    H273704   6.344   2.950  11.800 -0.1865 -0.0251  1.7230
17405TIP3   OH273705   0.840   5.983   2.451  0.0724  0.7023  0.5606
17405TIP3    H173706   0.891   6.004   2.530 -0.1704  1.0884  0.6115
17405TIP3    H273707   0.886   5.908   2.413 -1.7684 -1.7733  2.9863
17406TIP3   OH273708   1.701   4.979  13.896  0.1037 -0.2212 -0.4779
17406TIP3    H173709   1.736   5.063  13.925 -1.0008 -0.2346  0.9501
17406TIP3    H273710   1.612   4.998  13.867  0.3411 -0.6566 -1.5315
17407TIP3   OH273711   2.065   4.692  12.202 -0.0583  0.5447  0.0694
17407TIP3    H173712   2.022   4.680  12.117 -1.4118  1.6502  0.5908
17407TIP3    H273713   2.006   4.649  12.264 -0.9056  2.8715  0.9105
17408TIP3   OH273714   6.627   3.595  12.128 -0.0826  0.2794  0.4355
17408TIP3    H173715   6.563   3.539  12.173  0.2078 -0.0185  0.4765
17408TIP3    H273716   6.695   3.611  12.193  0.2888 -0.0709  0.1342
17409TIP3   OH273717   1.301   4.408  12.252 -0.1676 -0.0093  0.0978
17409TIP3    H173718   1.265   4.496  12.246  0.7423  0.1539 -4.5479
17409TIP3    H273719   1.356   4.411  12.331  1.2752  4.1433 -0.9106
17410TIP3   OH273720   2.897   1.345  16.884 -0.4403  0.5476  0.0127
17410TIP3    H173721   2.904   1.436  16.914  0.6367  0.3139  0.4737
17410TIP3    H273722   2.899   1.293  16.965  0.3832  0.0337 -0.3353
17411TIP3   OH273723   4.792   3.293   1.462  0.2262 -0.0661 -0.5606
17411TIP3    H173724   4.862   3.266   1.521 -0.7071 -1.0065  0.1264
17411TIP3    H273725   4.784   3.388   1.475  0.8008 -0.0911 -0.0314
17412TIP3   OH273726   6.480   4.232   3.120  0.3689  0.5770 -0.1497
17412TIP3    H173727   6.418   4.159   3.110 -0.2280  0.9492  0.7833
17412TIP3    H273728   6.441   4.303   3.069  0.2087  0.6974  0.1385
17413TIP3   OH273729   5.685   2.945   5.009  0.3054  0.0254 -0.0859
17413TIP3    H173730   5.634   2.995   5.072  0.1244 -0.5477  0.2272
17413TIP3    H273731   5.758   2.910   5.060  0.9400  0.7241 -0.4991
17414TIP3   OH273732   1.342   5.636  12.344 -0.0045  0.3712  0.3296
17414TIP3    H173733   1.321   5.603  12.257  0.2371  0.8171  0.0991
17414TIP3    H273734   1.264   5.685  12.370 -0.5943 -0.8538  0.9144
17415TIP3   OH273735   2.532   3.350   2.285 -0.3880 -0.2341 -0.2478
17415TIP3    H173736   2.573   3.279   2.235 -1.2042 -0.3688 -0.7276
17415TIP3    H273737   2.488   3.403   2.219  0.3192  0.7957  0.0983
17416TIP3   OH273738   2.370   4.409  15.110  0.1836 -0.1559  0.1010
17416TIP3    H173739   2.461   4.399  15.082  0.4964  0.3210  0.9233
17416TIP3    H273740   2.376   4.449  15.197 -0.8388  1.4149 -0.5278
17417TIP3   OH273741   0.787   6.443   4.686  0.4890  0.1063 -0.0712
17417TIP3    H173742   0.865   6.398   4.653  0.1981  0.2314 -0.9488
17417TIP3    H273743   0.749   6.484   4.608  0.2380  1.0901  0.5627
17418TIP3   OH273744   5.404   4.807   4.746  0.0891  0.2754  0.5827
17418TIP3    H173745   5.323   4.846   4.778  0.0575  3.2420 -2.7658
17418TIP3    H273746   5.468   4.877   4.752  2.2170 -1.7502  2.2842
17419TIP3   OH273747   6.438   1.248  10.641  0.1521  0.1400 -0.3853
17419TIP3    H173748   6.438   1.344  10.648  0.3748  0.2105 -1.2458
17419TIP3    H273749   6.492   1.230  10.564 -0.4848 -0.6378 -0.6592
17420TIP3   OH273750   5.726   5.711   3.436 -0.3107  0.5413  0.5008
17420TIP3    H173751   5.780   5.668   3.370  0.2308  0.0461  1.2734
17420TIP3    H273752   5.687   5.785   3.389  1.8635  1.5362  0.2179
17421TIP3   OH273753   5.363   3.937   5.096 -0.5455 -0.2357  0.0107
17421TIP3    H173754   5.345   4.001   5.028  0.4223  1.6672  1.4837
17421TIP3    H273755   5.365   3.988   5.177 -3.5942 -2.6997  1.7700
17422TIP3   OH273756   0.782   5.802   2.732 -0.0516  0.3781  0.2872
17422TIP3    H173757   0.762   5.727   2.676  0.2184 -1.3389  2.4280
17422TIP3    H273758   0.857   5.844   2.691  1.0648 -1.7176  0.1456
17423TIP3   OH273759   2.391   6.445  11.107 -0.5545  0.0332  0.0006
17423TIP3    H173760   2.356   6.445  11.197 -1.8874 -0.0000 -0.5032
17423TIP3    H273761   2.329   6.391  11.058 -0.8693  1.5815 -1.3271
17424TIP3   OH273762   0.766   3.704   4.664 -0.0238 -0.6125  0.3165
17424TIP3    H173763   0.761   3.626   4.719  0.3813 -1.5463 -0.9280
17424TIP3    H273764   0.851   3.697   4.621 -1.4865 -1.4423 -2.6032
17425TIP3   OH273765   0.828   3.010  14.674  0.6200 -0.1437 -0.3237
17425TIP3    H173766   0.827   2.979  14.765 -0.0483 -1.1092 -0.6538
17425TIP3    H273767   0.915   3.047  14.663  0.4897  0.5814  0.9091
17426TIP3   OH273768   1.498   0.141  14.184 -0.2879 -0.2084  0.0965
17426TIP3    H173769   1.502   0.158  14.278 -1.3776 -0.4601  0.1955
17426TIP3    H273770   1.581   0.176  14.149  1.0474 -1.9370  1.4304
17427TIP3   OH273771   2.995   5.607  11.650 -0.1340  0.1958  0.3453
17427TIP3    H173772   3.070   5.667  11.651 -1.4419  1.8686 -0.2329
17427TIP3    H273773   2.995   5.569  11.562 -0.1618  0.4398  0.2418
17428TIP3   OH273774   2.640   1.452   0.153  0.0097  0.1589  0.0925
17428TIP3    H173775   2.545   1.464   0.159 -0.1137 -0.8703  0.2697
17428TIP3    H273776   2.677   1.524   0.204 -0.6756  0.5863 -0.0153
17429TIP3   OH273777   0.288   0.106  11.259 -0.3471  0.2847  0.1717
17429TIP3    H173778   0.371   0.060  11.249 -0.1387  0.7637 -0.3029
17429TIP3    H273779   0.233   0.046  11.311 -0.3249 -0.7923 -1.0199
17430TIP3   OH273780   5.339   0.815   6.695  0.2705 -0.2496  0.0205
17430TIP3    H173781   5.387   0.884   6.740  0.6453 -1.1384  0.9907
17430TIP3    H273782   5.265   0.861   6.653  1.2425  0.9242 -0.4371
17431TIP3   OH273783   1.571   0.824   6.191 -0.2064 -0.0897  0.1092
17431TIP3    H173784   1.533   0.840   6.278  0.4352 -0.7127  0.5099
17431TIP3    H273785   1.647   0.768   6.208 -0.4854 -0.7916 -0.9286
17432TIP3   OH273786   2.393   3.254   4.677  1.0144  0.7937 -0.1012
17432TIP3    H173787   2.369   3.162   4.677  1.2230  0.7323  0.6722
17432TIP3    H273788   2.365   3.286   4.763  1.7349  1.2324 -0.0191
17433TIP3   OH273789   6.020   0.910   3.151  0.4308 -0.3907  0.6640
17433TIP3    H173790   5.941   0.891   3.201 -0.1476 -1.6024 -0.6739
17433TIP3    H273791   6.058   0.823   3.134  0.4806 -0.0249 -1.1916
17434TIP3   OH273792   1.013   0.557   4.673 -0.2491 -0.3226  0.2636
17434TIP3    H173793   1.095   0.594   4.641 -0.5059  1.2002  1.3274
17434TIP3    H273794   0.989   0.492   4.608  0.8189  0.5750 -1.0434
17435TIP3   OH273795   0.375   6.122   4.688  0.2128  0.2063  0.3351
17435TIP3    H173796   0.313   6.182   4.647  1.3750  1.7052  0.7195
17435TIP3    H273797   0.378   6.149   4.779 -0.5924 -1.6122  0.9247
17436TIP3   OH273798   5.011   1.216   6.464  0.4606  0.0781  0.4246
17436TIP3    H173799   4.924   1.193   6.497 -0.0275  0.2460 -0.7299
17436TIP3    H273800   5.038   1.291   6.517 -0.2967  0.3262  0.4554
17437TIP3   OH273801   6.391   0.141  13.855  0.0506 -0.5107  0.2670
17437TIP3    H173802   6.379   0.211  13.791  0.8876  0.1221  0.7852
17437TIP3    H273803   6.429   0.185  13.931 -1.6755 -1.1002  1.5170
17438TIP3   OH273804   6.053   4.775   4.867 -0.1879  0.5478  0.4773
17438TIP3    H173805   6.117   4.721   4.913 -1.3963  0.2537  1.8322
17438TIP3    H273806   6.097   4.860   4.858  2.4122 -1.0665 -3.2385
17439TIP3   OH273807   1.082   2.023   1.201 -0.1768  0.3197  0.2755
17439TIP3    H173808   1.137   1.953   1.235  0.7280  0.9903  0.2244
17439TIP3    H273809   1.144   2.084   1.160 -1.1715 -0.1532 -2.0236
17440TIP3   OH273810   5.370   4.452  14.422  0.6435 -0.3787  0.4401
17440TIP3    H173811   5.430   4.504  14.475  0.3463 -0.3820  0.7803
17440TIP3    H273812   5.416   4.369  14.408  2.4355  1.0330 -2.6742
17441TIP3   OH273813   2.155   2.789  16.975 -0.5561 -0.5466 -0.1245
17441TIP3    H173814   2.112   2.734  16.910  0.3778  0.9639 -2.0799
17441TIP3    H273815   2.100   2.868  16.980  1.3834  0.9384 -1.8600
17442TIP3   OH273816   3.251   0.161   6.196 -0.5354  0.2198 -0.1954
17442TIP3    H173817   3.318   0.098   6.220 -0.8266  0.1648  0.4772
17442TIP3    H273818   3.282   0.245   6.231  0.4168  0.6936 -2.0806
17443TIP3   OH273819   6.380   1.310  16.778 -0.3897 -0.0627  0.3450
17443TIP3    H173820   6.422   1.396  16.770 -0.5501 -0.1270 -1.3707
17443TIP3    H273821   6.294   1.329  16.814 -0.6857  0.5901 -0.6654
17444TIP3   OH273822   0.138   6.780   5.391  0.3914 -0.5632 -0.0604
17444TIP3    H173823   0.222   6.751   5.426  0.5246 -0.1205 -0.0130
17444TIP3    H273824   0.084   6.795   5.469  1.2005  2.0066  0.0527
17445TIP3   OH273825   1.530   2.113  11.816 -0.1245 -0.5834  0.4874
17445TIP3    H173826   1.491   2.032  11.783 -1.7143  0.4915 -0.3966
17445TIP3    H273827   1.531   2.171  11.740  0.9728  0.2313  1.1151
17446TIP3   OH273828   0.788   2.056  15.447  0.4411  0.2436  0.4272
17446TIP3    H173829   0.789   2.070  15.541 -1.4947 -1.6128  0.7500
17446TIP3    H273830   0.827   1.970  15.435  1.7002  0.9400 -0.5743
17447TIP3   OH273831   4.632   1.205  11.580  0.1899 -0.1524  0.2366
17447TIP3    H173832   4.543   1.241  11.573 -0.1274 -1.2242 -1.5179
17447TIP3    H273833   4.689   1.281  11.568 -0.4857  0.0417 -1.9413
17448TIP3   OH273834   4.236   1.333   5.924  0.3942  0.7261 -0.4322
17448TIP3    H173835   4.315   1.385   5.938  0.4624  0.6129 -0.3960
17448TIP3    H273836   4.187   1.382   5.857  0.1542  1.1647  0.0650
17449TIP3   OH273837   3.195   2.286   3.771 -0.1444  0.4692  0.1330
17449TIP3    H173838   3.234   2.199   3.766 -0.6144  0.1772  1.3350
17449TIP3    H273839   3.171   2.307   3.681  1.2603 -0.0468 -0.3662
17450TIP3   OH273840   5.572   3.621   2.661 -0.4260 -0.4196  0.2160
17450TIP3    H173841   5.609   3.665   2.738 -0.1869 -0.1128 -0.0732
17450TIP3    H273842   5.561   3.691   2.596  1.7898 -1.0789 -0.9373
17451TIP3   OH273843   5.062   6.243  13.319 -0.0565 -0.4372  0.1370
17451TIP3    H173844   5.104   6.167  13.360 -0.2485 -0.0181  1.1099
17451TIP3    H273845   4.972   6.215  13.304 -0.1885 -0.3137  0.7131
17452TIP3   OH273846   0.905   4.058   4.566 -0.1029  0.1827  0.6423
17452TIP3    H173847   0.983   4.111   4.583 -0.0757  0.4997 -0.4499
17452TIP3    H273848   0.937   3.968   4.568  0.1136  0.2671  1.1220
17453TIP3   OH273849   3.873   5.072   0.618  0.5284  0.4611  0.2113
17453TIP3    H173850   3.801   5.017   0.588  0.0470  1.1473  0.0984
17453TIP3    H273851   3.883   5.051   0.711  0.4194  0.1070  0.1432
17454TIP3   OH273852   3.417   2.773   5.421  0.0480  0.7106  0.4689
17454TIP3    H173853   3.493   2.831   5.416  0.0688  0.5767 -0.8333
17454TIP3    H273854   3.452   2.692   5.459  0.6026  0.5652 -0.3439
17455TIP3   OH273855   4.135   1.460   0.871 -0.5706  0.1537  0.0054
17455TIP3    H173856   4.147   1.386   0.812 -0.4008  0.0771  0.1395
17455TIP3    H273857   4.041   1.460   0.890 -0.5196 -0.2012  0.2414
17456TIP3   OH273858   1.431   6.476  11.221  0.0541 -0.6316 -0.8297
17456TIP3    H173859   1.349   6.525  11.228 -0.7314 -1.7261 -2.1935
17456TIP3    H273860   1.408   6.396  11.174  1.7257 -1.3875 -0.4050
17457TIP3   OH273861   1.619   5.887  13.727  0.0551 -0.2385  0.2830
17457TIP3    H173862   1.672   5.807  13.730 -2.3576 -1.9178  0.3388
17457TIP3    H273863   1.571   5.887  13.811 -0.2178  1.0880  0.1358
17458TIP3   OH273864   3.031   4.993  16.569 -0.2227  0.2857  0.0210
17458TIP3    H173865   3.023   4.959  16.480 -1.8424  1.2908 -0.2454
17458TIP3    H273866   3.109   5.047  16.568 -0.5177  0.7000 -0.9402
17459TIP3   OH273867   6.141   2.339  10.871  0.0070 -0.0746 -0.6054
17459TIP3    H173868   6.217   2.294  10.837 -1.8640 -2.7475 -1.4090
17459TIP3    H273869   6.096   2.374  10.794 -0.9130 -0.7259 -0.3785
17460TIP3   OH273870   0.764   1.649   1.217 -0.2821  0.3178 -0.1661
17460TIP3    H173871   0.847   1.618   1.254  0.5972  0.7544 -1.7478
17460TIP3    H273872   0.734   1.577   1.161 -0.3837  0.6274 -0.5110
17461TIP3   OH273873   2.798   0.423  16.701  0.7835 -0.0308  0.2815
17461TIP3    H173874   2.792   0.368  16.623 -2.0597  1.4880 -0.6345
17461TIP3    H273875   2.786   0.363  16.774  2.3895 -1.2933 -0.4504
17462TIP3   OH273876   5.255   5.131   4.445  0.8098 -0.6469 -0.3096
17462TIP3    H173877   5.336   5.103   4.486  0.2891  0.4017  1.4774
17462TIP3    H273878   5.282   5.198   4.382  1.4298 -1.0234 -0.4457
17463TIP3   OH273879   1.834   5.872   2.282 -0.5830  0.0542 -0.1240
17463TIP3    H173880   1.878   5.866   2.197 -1.0859 -1.6528 -0.2851
17463TIP3    H273881   1.765   5.806   2.278 -1.9591  1.4120  0.8424
17464TIP3   OH273882   2.379   2.050  12.637 -0.0508  0.1492  0.2110
17464TIP3    H173883   2.310   2.010  12.690  1.2156  0.9178  2.5117
17464TIP3    H273884   2.332   2.087  12.562 -2.0849  0.2373  1.4617
17465TIP3   OH273885   0.377   3.029  13.436  0.3251  0.3979  0.3469
17465TIP3    H173886   0.349   2.971  13.365  0.1295  1.2523 -0.2876
17465TIP3    H273887   0.419   2.971  13.499 -0.5403 -0.5322  0.0791
17466TIP3   OH273888   6.178   3.666   4.732  0.2058 -0.3105 -0.3522
17466TIP3    H173889   6.146   3.711   4.810  0.2566  1.5775 -1.4095
17466TIP3    H273890   6.242   3.726   4.693  1.3019 -1.8832 -1.0227
17467TIP3   OH273891   2.078   1.129   0.384  0.2218 -0.0494 -0.1879
17467TIP3    H173892   2.074   1.216   0.344  0.3298 -0.5017 -1.2011
17467TIP3    H273893   2.172   1.109   0.387  0.2944  0.4359  1.3150
17468TIP3   OH273894   5.765   6.170   3.004  0.5283  0.1142 -0.4152
17468TIP3    H173895   5.701   6.241   2.998  0.2948 -0.0210  0.3529
17468TIP3    H273896   5.743   6.111   2.932 -0.3418 -0.0328 -0.0346
17469TIP3   OH273897   5.579   2.552  15.745  1.1482  0.0673 -0.6862
17469TIP3    H173898   5.537   2.622  15.695  0.3130 -0.4624 -0.7292
17469TIP3    H273899   5.512   2.522  15.806  1.9662  0.2826  0.3364
17470TIP3   OH273900   2.904   3.470   1.789 -0.3731  0.2941  0.0434
17470TIP3    H173901   2.967   3.444   1.856 -0.2075 -0.1531 -0.2835
17470TIP3    H273902   2.820   3.436   1.821  0.0717 -1.9460 -1.0858
17471TIP3   OH273903   3.152   6.559  14.927 -1.1231 -0.7262  0.0859
17471TIP3    H173904   3.190   6.528  15.009  1.0624  0.0206 -0.6146
17471TIP3    H273905   3.227   6.572  14.869 -2.4480  0.8545 -1.3313
17472TIP3   OH273906   0.446   1.331   1.282  0.0433 -0.4200 -0.2706
17472TIP3    H173907   0.428   1.414   1.238  0.3480 -0.0927  0.2071
17472TIP3    H273908   0.542   1.322   1.278  0.1584  0.0296  1.0375
17473TIP3   OH273909   5.867   6.711  14.351  0.0840 -0.5978 -0.3649
17473TIP3    H173910   5.843   6.766  14.277  2.1460 -1.3494 -1.6392
17473TIP3    H273911   5.821   6.629  14.336 -0.2516 -0.4211 -0.3040
17474TIP3   OH273912   5.520   3.642   2.017  0.6128 -0.2228  0.0550
17474TIP3    H173913   5.535   3.632   1.923  1.2413  3.2572 -0.3007
17474TIP3    H273914   5.439   3.693   2.023 -0.1370 -1.5178  1.4641
17475TIP3   OH273915   4.000   1.851  13.632 -0.1002  0.0450 -0.2250
17475TIP3    H173916   4.073   1.866  13.693 -0.0793  1.0750 -0.5041
17475TIP3    H273917   3.950   1.932  13.635  1.3920  1.1616 -3.6381
17476TIP3   OH273918   3.776   1.732  14.193 -0.5229 -0.0038  0.0296
17476TIP3    H173919   3.818   1.666  14.138  1.4921  0.0805  1.3821
17476TIP3    H273920   3.800   1.815  14.152  2.0894  0.1264  1.6668
17477TIP3   OH273921   6.623   1.131   2.789  0.1212 -0.0925  0.2201
17477TIP3    H173922   6.566   1.077   2.843  0.3608 -0.1908  0.3767
17477TIP3    H273923   6.691   1.071   2.758 -0.3930 -0.1896 -0.7496
17478TIP3   OH273924   0.620   0.619  16.205 -0.4103 -0.0844 -0.6143
17478TIP3    H173925   0.633   0.542  16.260 -1.9994 -0.8372 -1.2566
17478TIP3    H273926   0.692   0.616  16.142  0.7925  0.1828  0.7180
17479TIP3   OH273927   0.961   5.223   0.722 -0.4812 -0.1518 -0.5207
17479TIP3    H173928   0.952   5.317   0.740  0.9291  0.0511 -0.8639
17479TIP3    H273929   0.890   5.204   0.661 -0.1608  0.9070 -1.2303
17480TIP3   OH273930   6.631   4.633   5.417 -0.0025 -0.7748  0.2727
17480TIP3    H173931   6.621   4.554   5.364  1.6430  0.7497 -2.4165
17480TIP3    H273932   6.723   4.658   5.407 -0.0882  0.5845  2.4257
17481TIP3   OH273933   2.658   3.976   1.716 -0.2091  0.7886  0.2899
17481TIP3    H173934   2.590   3.987   1.782  0.5559 -1.3039  1.4720
17481TIP3    H273935   2.732   4.028   1.748 -0.7546  1.8975 -0.2588
17482TIP3   OH273936   6.322   0.547  11.971  0.7449  0.2569 -0.4196
17482TIP3    H173937   6.282   0.502  11.897  1.3212  1.0831 -1.2516
17482TIP3    H273938   6.302   0.639  11.957  1.7265  0.5275 -0.1003
17483TIP3   OH273939   5.646   0.810  14.643  0.1914  0.1648 -0.0304
17483TIP3    H173940   5.720   0.793  14.585 -0.7576  2.0245 -1.8479
17483TIP3    H273941   5.570   0.781  14.593 -0.3847 -1.1908  1.5952
17484TIP3   OH273942   6.023   1.797  16.436  0.2165  0.0887  0.2437
17484TIP3    H173943   6.048   1.725  16.378 -1.7146 -1.0178  0.7372
17484TIP3    H273944   5.965   1.851  16.382 -1.2405 -0.7139  0.9627
17485TIP3   OH273945   2.557   1.606  15.246  0.0718  0.0110  0.6938
17485TIP3    H173946   2.494   1.624  15.316  0.8712  0.8399  1.2124
17485TIP3    H273947   2.592   1.519  15.267 -0.4419 -0.1841  0.7501
17486TIP3   OH273948   0.469   5.373  15.252 -0.6302 -0.0031 -0.0329
17486TIP3    H173949   0.542   5.411  15.301 -1.2996 -1.9992  2.6601
17486TIP3    H273950   0.410   5.446  15.235  0.7547  1.1616  0.0615
17487TIP3   OH273951   3.996   1.030  15.190 -0.0577  0.4521 -0.0489
17487TIP3    H173952   4.029   0.949  15.228 -1.0490 -1.4768 -3.1452
17487TIP3    H273953   3.901   1.020  15.190 -0.1448  1.1464 -1.4537
17488TIP3   OH273954   0.824   0.755  15.678  0.1277  0.2334 -0.2470
17488TIP3    H173955   0.801   0.843  15.649 -1.3882  0.3884  1.3292
17488TIP3    H273956   0.740   0.714  15.698  0.7845 -1.7803 -1.5220
17489TIP3   OH273957   1.259   1.840   5.754  0.2869  0.1068  0.1489
17489TIP3    H173958   1.241   1.869   5.843  0.8136  1.9578 -0.3404
17489TIP3    H273959   1.347   1.873   5.735 -0.4844  1.2070 -1.6618
17490TIP3   OH273960   4.609   3.942  15.979  0.4745  0.1246  0.1572
17490TIP3    H173961   4.560   3.861  15.977 -0.3625  0.5932  1.0962
17490TIP3    H273962   4.700   3.915  15.993  0.6016 -0.7765 -2.1848
17491TIP3   OH273963   6.738   1.055   5.138 -0.3941 -0.2929  0.0524
17491TIP3    H173964   6.701   0.976   5.179  1.0915 -0.6316  0.8095
17491TIP3    H273965   6.776   1.104   5.211 -1.5639  1.2763 -0.3866
17492TIP3   OH273966   2.577   0.616   4.761 -0.4207 -0.2836  0.0296
17492TIP3    H173967   2.618   0.698   4.786 -1.5699 -0.0818  1.2602
17492TIP3    H273968   2.650   0.555   4.751  0.3041  0.4861  0.6162
17493TIP3   OH273969   6.416   6.381   5.027  0.2485  0.0405  0.1283
17493TIP3    H173970   6.448   6.444   5.092  0.5641  0.6593 -0.6244
17493TIP3    H273971   6.490   6.321   5.015 -0.5878 -1.4453  2.0153
17494TIP3   OH273972   2.428   2.635  14.818 -0.0465  0.2845 -0.1206
17494TIP3    H173973   2.484   2.669  14.887 -0.0696 -0.8347  0.4557
17494TIP3    H273974   2.423   2.706  14.754  2.4848  0.1897 -0.4653
17495TIP3   OH273975   6.696   0.393   1.818  0.1083 -0.1206 -0.5622
17495TIP3    H173976   6.749   0.466   1.785  1.2519 -1.4052 -1.6158
17495TIP3    H273977   6.667   0.347   1.740 -0.7584 -0.7014  0.0982
17496TIP3   OH273978   5.676   4.580   4.317  0.0686 -0.2783  0.1892
17496TIP3    H173979   5.709   4.670   4.315 -0.2598 -0.1468  0.5950
17496TIP3    H273980   5.754   4.525   4.305  0.6460 -0.0169  2.4866
17497TIP3   OH273981   3.199   6.059   5.430 -0.3233  0.1680 -0.7105
17497TIP3    H173982   3.238   6.099   5.508 -2.2301  2.8738 -1.0836
17497TIP3    H273983   3.155   5.981   5.463 -1.8097  1.7207  1.1139
17498TIP3   OH273984   6.234   1.437   4.040 -0.4475 -0.2311  0.1168
17498TIP3    H173985   6.142   1.462   4.032 -0.4263  0.3389  1.5482
17498TIP3    H273986   6.282   1.520   4.045  0.0676 -0.5265  0.1670
17499TIP3   OH273987   1.335   5.533   1.608 -0.1096 -0.5240  0.8005
17499TIP3    H173988   1.313   5.464   1.546  0.8405  0.2112 -0.3742
17499TIP3    H273989   1.395   5.590   1.560 -0.1707  0.6187  2.0580
17500TIP3   OH273990   4.406   4.267   5.526  0.3094  0.1521  0.0364
17500TIP3    H173991   4.468   4.228   5.465 -1.0500  0.5689 -1.6576
17500TIP3    H273992   4.443   4.250   5.612  0.5142 -3.5404 -0.7080
17501TIP3   OH273993   1.282   4.091  13.306 -0.4034 -0.6470  0.3685
17501TIP3    H173994   1.367   4.071  13.344 -0.2449 -1.1037 -0.2255
17501TIP3    H273995   1.295   4.085  13.211 -0.6997  0.8656  0.2160
17502TIP3   OH273996   5.618   5.051   4.267  0.4232  0.4749  0.0995
17502TIP3    H173997   5.666   4.969   4.260  0.0345  0.3478 -1.3486
17502TIP3    H273998   5.575   5.061   4.182 -0.5971  1.5223  0.7196
17503TIP3   OH273999   6.185   6.480  10.786 -0.1832 -0.2632 -0.2105
17503TIP3    H174000   6.115   6.439  10.835  0.7719  0.4797  1.8132
17503TIP3    H274001   6.142   6.515  10.708 -1.7180 -1.4181  0.0962
17504TIP3   OH274002   6.025   1.029  14.429  0.4382 -0.1921 -0.3126
17504TIP3    H174003   5.966   1.093  14.389  0.1360 -0.0369  0.3774
17504TIP3    H274004   5.976   0.947  14.429  0.7139 -0.3598 -0.9271
17505TIP3   OH274005   2.849   1.458   2.140 -0.1549  0.0416  0.3493
17505TIP3    H174006   2.933   1.424   2.170 -0.0147 -0.4717 -0.6233
17505TIP3    H274007   2.816   1.508   2.215  1.8426  1.7659  0.1209
17506TIP3   OH274008   1.843   2.558  13.365 -0.2077 -0.3559 -0.4291
17506TIP3    H174009   1.811   2.556  13.275 -0.2683 -0.7018 -0.4003
17506TIP3    H274010   1.868   2.650  13.380 -0.3823 -0.2593 -0.7324
17507TIP3   OH274011   1.779   0.051   5.088 -0.6082 -0.3162  0.1799
17507TIP3    H174012   1.691   0.070   5.058 -1.2814 -1.6064  1.2797
17507TIP3    H274013   1.770   0.034   5.182  0.7252 -0.8845  0.2212
17508TIP3   OH274014   2.764   6.323  14.875  0.2099 -0.6099  0.6441
17508TIP3    H174015   2.709   6.244  14.876  0.9686 -1.1463 -0.2546
17508TIP3    H274016   2.711   6.389  14.922 -0.4035 -1.6544  1.4427
17509TIP3   OH274017   4.814   4.760  14.305  0.2568  0.2710 -0.2417
17509TIP3    H174018   4.903   4.790  14.325  0.3659  1.2803 -2.0972
17509TIP3    H274019   4.757   4.820  14.354  0.5880 -0.7146  1.3801
17510TIP3   OH274020   3.298   0.706  16.590  0.0509 -0.1688 -0.2354
17510TIP3    H174021   3.389   0.687  16.567 -0.0049 -0.2014 -0.4264
17510TIP3    H274022   3.263   0.623  16.622  0.5320  0.1917  1.2880
17511TIP3   OH274023   1.114   4.673  12.506 -0.6808  0.0130 -0.0340
17511TIP3    H174024   1.152   4.747  12.458 -1.4713  0.3128 -0.2022
17511TIP3    H274025   1.040   4.646  12.452  0.8225 -2.2427 -1.0628
17512TIP3   OH274026   2.530   2.761  12.730  0.3199  0.1048  0.0293
17512TIP3    H174027   2.567   2.678  12.760 -0.0183 -0.3380 -0.7776
17512TIP3    H274028   2.574   2.779  12.647  0.4985  0.8059  0.2771
17513TIP3   OH274029   2.483   6.658   4.277 -0.0043 -0.3080  0.3943
17513TIP3    H174030   2.577   6.643   4.287  0.1278  0.3976  0.2573
17513TIP3    H274031   2.477   6.735   4.220 -0.6797 -0.8978 -0.3359
17514TIP3   OH274032   4.567   6.521  15.724  0.3450  0.3366 -0.1507
17514TIP3    H174033   4.648   6.490  15.764  0.5639 -1.2574 -1.7559
17514TIP3    H274034   4.596   6.573  15.649 -0.0801  2.1386  0.9135
17515TIP3   OH274035   5.598   4.717   5.202 -0.6194  0.4379  0.3307
17515TIP3    H174036   5.577   4.684   5.115 -0.2551  0.1585  0.3485
17515TIP3    H274037   5.673   4.664   5.230 -1.4547 -0.2589  1.2809
17516TIP3   OH274038   2.043   3.429  12.145  0.4503 -0.5358  0.0948
17516TIP3    H174039   2.082   3.377  12.215  0.9215 -0.4750 -0.1159
17516TIP3    H274040   2.023   3.365  12.076 -2.0787 -0.9198  1.1599
17517TIP3   OH274041   3.682   6.209   2.280  0.0696  0.0886  0.1556
17517TIP3    H174042   3.670   6.263   2.202  2.3818 -0.8599 -0.9195
17517TIP3    H274043   3.758   6.247   2.325  0.2996 -0.8594  0.5946
17518TIP3   OH274044   2.377   5.620  10.874  0.3986 -0.0698 -0.1385
17518TIP3    H174045   2.372   5.543  10.818  1.1258  0.0203 -0.3262
17518TIP3    H274046   2.324   5.686  10.829 -0.0905 -0.4035 -0.0600
17519TIP3   OH274047   0.213   3.860   1.363  0.0737 -0.2345  0.2138
17519TIP3    H174048   0.228   3.771   1.393 -0.6107  0.2214  1.9848
17519TIP3    H274049   0.274   3.913   1.413 -0.9387  0.5222  0.6692
17520TIP3   OH274050   3.753   0.104  14.139 -0.2063 -0.3461  0.5861
17520TIP3    H174051   3.771   0.194  14.112 -0.3403  0.3085  2.6115
17520TIP3    H274052   3.800   0.050  14.075 -0.5768  1.1329 -0.9755
17521TIP3   OH274053   0.385   5.898  11.168 -0.2944  0.5040  0.5338
17521TIP3    H174054   0.393   5.989  11.141  0.0749  0.6353  1.0901
17521TIP3    H274055   0.408   5.898  11.261  0.1214 -0.2219  0.4310
17522TIP3   OH274056   2.618   3.490   5.731 -0.1441 -0.0708 -0.1722
17522TIP3    H174057   2.630   3.537   5.649 -0.1695 -0.8607 -0.6291
17522TIP3    H274058   2.565   3.414   5.708  1.6583 -1.4698  0.1492
17523TIP3   OH274059   6.416   0.264  13.244 -0.3509 -0.4357  0.6416
17523TIP3    H174060   6.384   0.354  13.245 -0.7808 -0.5698 -0.2158
17523TIP3    H274061   6.418   0.240  13.151 -1.1823 -1.6322  0.9192
17524TIP3   OH274062   2.991   5.723   1.206  0.4334 -0.3653  0.0288
17524TIP3    H174063   2.991   5.719   1.302  1.2684 -0.0113  0.0399
17524TIP3    H274064   2.997   5.632   1.178  0.2227 -0.4667  0.3112
17525TIP3   OH274065   4.010   5.725   0.765  0.0889 -0.4344  0.0972
17525TIP3    H174066   3.957   5.687   0.835  0.3494 -0.9812 -0.0040
17525TIP3    H274067   4.076   5.659   0.745 -0.3860 -0.5562 -1.1207
17526TIP3   OH274068   4.303   1.821   1.200  0.0534  0.1001 -0.8625
17526TIP3    H174069   4.236   1.753   1.208 -0.3996  0.6432 -0.0204
17526TIP3    H274070   4.254   1.900   1.176  0.5155  0.2674 -1.2654
17527TIP3   OH274071   5.000   0.811  15.121  0.2999 -0.1602 -0.0353
17527TIP3    H174072   5.013   0.891  15.069 -0.5954 -0.4770 -0.7733
17527TIP3    H274073   5.087   0.772  15.127  0.8236  1.0896  0.7059
17528TIP3   OH274074   4.055   6.719   4.965 -0.4317  0.1167 -0.1470
17528TIP3    H174075   4.053   6.740   5.059 -0.5383  0.6249 -0.2615
17528TIP3    H274076   3.975   6.757   4.930  0.2869  1.1665 -0.7017
17529TIP3   OH274077   0.763   6.358  12.974  0.2633 -0.3424 -0.0674
17529TIP3    H174078   0.844   6.365  12.923  0.5118  0.3907  0.4222
17529TIP3    H274079   0.747   6.447  13.006 -0.8826 -0.4245 -0.3891
17530TIP3   OH274080   0.347   5.422   2.701 -0.3703  0.2894  0.0949
17530TIP3    H174081   0.404   5.345   2.699 -1.1169 -0.2901  0.7297
17530TIP3    H274082   0.394   5.485   2.754  0.1781  0.2139 -0.3017
17531TIP3   OH274083   2.239   1.432   3.305 -0.3314 -0.1458  0.3501
17531TIP3    H174084   2.229   1.337   3.298  0.0292 -0.1289 -0.4027
17531TIP3    H274085   2.275   1.446   3.392 -0.9010 -0.6634  0.6699
17532TIP3   OH274086   5.422   3.616   6.334 -0.4765 -0.0248 -0.4018
17532TIP3    H174087   5.327   3.609   6.339 -0.6875  0.8753 -2.3135
17532TIP3    H274088   5.450   3.538   6.287 -0.1907 -0.6022  0.7088
17533TIP3   OH274089   1.625   1.908  15.018 -0.3867 -0.1832  0.5823
17533TIP3    H174090   1.576   1.879  14.941  0.6605  0.0725 -0.1809
17533TIP3    H274091   1.576   1.984  15.049 -0.8706 -0.3444  0.2335
17534TIP3   OH274092   2.836   0.843  11.504 -0.2097 -0.2507  0.3869
17534TIP3    H174093   2.903   0.907  11.480 -1.1554  0.1481 -1.2882
17534TIP3    H274094   2.753   0.891  11.495 -0.9225 -1.7049 -0.8799
17535TIP3   OH274095   0.402   2.960  10.755  0.4368  0.3427  0.1059
17535TIP3    H174096   0.487   2.941  10.715  0.2189  4.0406 -2.3721
17535TIP3    H274097   0.423   3.012  10.833  0.5202 -0.8164  0.8718
17536TIP3   OH274098   5.668   3.291   1.125  0.4976  0.1903  0.0263
17536TIP3    H174099   5.652   3.251   1.210 -1.1198 -1.4482 -0.9841
17536TIP3    H274100   5.593   3.350   1.112  1.6806  1.8255  0.5061
17537TIP3   OH274101   6.458   0.903   1.354 -0.3518 -0.3923  0.4858
17537TIP3    H174102   6.391   0.906   1.286  0.0829 -1.4945  0.0018
17537TIP3    H274103   6.419   0.854   1.426  0.1089 -1.4576  0.0105
17538TIP3   OH274104   6.184   6.529  12.518  0.1573  0.4076  0.2463
17538TIP3    H174105   6.167   6.623  12.524  2.3364  1.0745 -2.8444
17538TIP3    H274106   6.279   6.523  12.505 -0.2225 -2.0987 -1.6564
17539TIP3   OH274107   4.822   1.977  12.555 -0.3797 -0.6515  0.1933
17539TIP3    H174108   4.917   1.977  12.563 -0.4216  0.6126  0.9214
17539TIP3    H274109   4.791   1.949  12.641 -0.6618 -1.7563 -0.2610
17540TIP3   OH274110   5.277   0.531   2.918  0.3873  0.4832  0.2451
17540TIP3    H174111   5.208   0.574   2.968  1.1755  1.2429  0.6951
17540TIP3    H274112   5.242   0.524   2.829  0.1875  1.9357  0.1946
17541TIP3   OH274113   0.709   0.758   5.699  0.2330  0.5398 -0.2702
17541TIP3    H174114   0.617   0.734   5.713  0.4945 -2.1040 -2.5600
17541TIP3    H274115   0.758   0.684   5.735  1.4107  1.2696 -0.3779
17542TIP3   OH274116   1.432   6.377   3.613  0.1971 -0.7016  0.3074
17542TIP3    H174117   1.452   6.379   3.520  2.8132 -1.9696  0.7848
17542TIP3    H274118   1.430   6.284   3.636  1.7479 -0.3694  1.9098
17543TIP3   OH274119   6.042   0.332  11.425 -0.0494  0.0150  0.1586
17543TIP3    H174120   5.990   0.262  11.466 -1.2756  0.8215  0.0098
17543TIP3    H274121   6.013   0.412  11.468  0.0896  0.6312 -0.8752
17544TIP3   OH274122   1.389   6.191  13.300 -0.0684  0.7157 -0.9504
17544TIP3    H174123   1.455   6.235  13.354  0.8742 -0.1566 -1.3820
17544TIP3    H274124   1.332   6.262  13.270  0.9574  1.5485 -0.9651
17545TIP3   OH274125   0.020   6.254   1.194 -0.5405  0.3542  0.2140
17545TIP3    H174126  -0.058   6.283   1.241  0.3648  0.0336  1.9708
17545TIP3    H274127  -0.013   6.194   1.127 -1.9564  1.6611 -0.2645
17546TIP3   OH274128   2.314   0.973  15.011  0.1103 -0.3076  0.2993
17546TIP3    H174129   2.339   0.958  14.920  1.1670 -0.2649  0.5804
17546TIP3    H274130   2.392   0.952  15.062 -1.1622 -2.6036  1.3803
17547TIP3   OH274131   0.087   0.442  12.897 -0.3340  0.5759  0.2055
17547TIP3    H174132   0.168   0.453  12.848 -0.0216  1.0165  0.8136
17547TIP3    H274133   0.109   0.379  12.966 -0.4230  0.9347  0.5609
17548TIP3   OH274134   2.216   5.481  11.569  0.2624 -0.8521 -0.2745
17548TIP3    H174135   2.182   5.416  11.630  0.1855 -0.2866  0.2904
17548TIP3    H274136   2.199   5.565  11.611 -0.7338 -0.4062 -1.5454
17549TIP3   OH274137   0.365   3.832   6.449 -0.0241 -0.0330 -0.3253
17549TIP3    H174138   0.432   3.764   6.439 -0.3590 -0.4665  0.2789
17549TIP3    H274139   0.363   3.877   6.365  0.2715 -0.7122 -0.7006
17550TIP3   OH274140   5.100   4.212   0.634  0.2073 -0.1355 -0.2865
17550TIP3    H174141   5.009   4.222   0.662 -0.0869 -1.6920 -0.6316
17550TIP3    H274142   5.137   4.151   0.697  1.2530  1.1319  0.3443
17551TIP3   OH274143   0.975   0.562  12.140 -0.6416 -0.2597  0.1721
17551TIP3    H174144   0.956   0.503  12.213  1.6432 -2.4508 -0.9318
17551TIP3    H274145   0.989   0.647  12.181  1.1956 -1.5594  2.3891
17552TIP3   OH274146   6.518   2.489  12.611  0.2815 -0.4675 -0.0193
17552TIP3    H174147   6.556   2.508  12.697  0.2528  0.4358 -0.2040
17552TIP3    H274148   6.593   2.476  12.554  0.3029 -1.7445  0.2852
17553TIP3   OH274149   2.479   1.820   1.046 -0.2927  0.0678 -0.0972
17553TIP3    H174150   2.538   1.894   1.032  0.4275 -0.6747 -1.0365
17553TIP3    H274151   2.499   1.789   1.135 -1.5530  1.8303  0.8316
17554TIP3   OH274152   5.216   1.839  12.178 -0.0424 -0.2077 -0.0853
17554TIP3    H174153   5.262   1.920  12.202  1.5056 -0.6305 -1.5611
17554TIP3    H274154   5.124   1.863  12.182  0.3498  1.2841  0.7223
17555TIP3   OH274155   5.910   5.010  16.090  0.3833  0.0029  0.3457
17555TIP3    H174156   5.944   5.080  16.145 -0.5141 -0.9849  2.1851
17555TIP3    H274157   5.862   5.055  16.020  2.4756  1.2851 -0.2869
17556TIP3   OH274158   5.236   6.784   5.597  0.1513 -0.3716  0.1844
17556TIP3    H174159   5.317   6.739   5.576 -1.0719 -1.4746 -2.4580
17556TIP3    H274160   5.191   6.726   5.658  0.5386 -0.6632  0.1942
17557TIP3   OH274161   2.251   5.841  15.966 -0.1979 -0.3778 -0.0661
17557TIP3    H174162   2.156   5.835  15.952  0.0004  0.0298 -1.6725
17557TIP3    H274163   2.266   5.794  16.047 -1.9886  0.9259  1.0524
17558TIP3   OH274164   3.195   6.155   4.950  0.1859 -0.7356  0.1475
17558TIP3    H174165   3.194   6.247   4.976 -1.1118 -1.2805  2.1433
17558TIP3    H274166   3.193   6.157   4.855  0.0101  1.3030  0.1748
17559TIP3   OH274167   0.446   3.317  15.893 -0.4892  0.0347  0.2797
17559TIP3    H174168   0.489   3.276  15.818 -0.6497 -0.0528  0.2355
17559TIP3    H274169   0.383   3.378  15.854 -0.2848  0.2880  0.3448
17560TIP3   OH274170   0.936   0.193   3.336  0.3055 -0.2001  0.2609
17560TIP3    H174171   0.989   0.246   3.276  1.0774  0.4548  1.4833
17560TIP3    H274172   0.869   0.253   3.368  0.0169 -0.4859  0.1904
17561TIP3   OH274173   2.275   1.747   4.558 -0.4347  0.3191 -0.1466
17561TIP3    H174174   2.189   1.782   4.581 -0.5331 -1.6671  2.7880
17561TIP3    H274175   2.336   1.789   4.619  0.0410 -1.3431  0.5792
17562TIP3   OH274176   0.877   2.783   1.134 -0.0913  0.4492  0.2441
17562TIP3    H174177   0.810   2.851   1.126  1.3340  1.6744 -1.9371
17562TIP3    H274178   0.835   2.704   1.099 -1.0804  0.6797  0.8843
17563TIP3   OH274179   1.798   3.254  12.209 -0.0129  0.5213  0.4541
17563TIP3    H174180   1.766   3.322  12.151 -0.3903 -0.0632 -0.0222
17563TIP3    H274181   1.825   3.301  12.288  1.1707  1.4028 -0.4559
17564TIP3   OH274182   5.091   0.744   5.663 -0.0874  0.3547  0.7696
17564TIP3    H174183   5.046   0.828   5.669 -1.3942 -0.3375  0.9308
17564TIP3    H274184   5.122   0.727   5.752 -0.9021  0.0956  1.0114
17565TIP3   OH274185   4.897   1.541  12.075 -0.4715  0.8427  0.0193
17565TIP3    H174186   4.816   1.591  12.065 -0.7943  0.6221  1.4438
17565TIP3    H274187   4.951   1.594  12.133  1.0513  1.7406 -2.1709
17566TIP3   OH274188   0.774   6.634  16.486 -0.2520  0.1049 -0.2314
17566TIP3    H174189   0.809   6.642  16.396  0.4105  1.8617  0.1490
17566TIP3    H274190   0.790   6.543  16.510 -0.1123 -0.2938 -1.7750
17567TIP3   OH274191   2.334   3.673  11.106 -0.9243 -0.6414 -0.0011
17567TIP3    H174192   2.366   3.646  11.192  3.2563  2.8390 -0.3135
17567TIP3    H274193   2.383   3.618  11.044  1.0693  1.3978 -0.3078
17568TIP3   OH274194   4.043   0.241  13.630  0.0797 -0.5589  0.2124
17568TIP3    H174195   4.108   0.301  13.594 -0.4879  0.4994  0.9095
17568TIP3    H274196   4.061   0.240  13.724  0.7220 -2.2841  0.0903
17569TIP3   OH274197   4.556   4.984   2.375  0.8165  0.5502 -0.0951
17569TIP3    H174198   4.559   4.923   2.302 -0.5260 -0.5744  0.7542
17569TIP3    H274199   4.532   5.068   2.336  0.2843  0.0011 -0.9648
17570TIP3   OH274200   3.801   4.966  14.178 -0.8177 -0.1459 -0.0140
17570TIP3    H174201   3.858   5.021  14.125 -4.7384  3.6673 -0.5747
17570TIP3    H274202   3.818   4.993  14.269 -2.1693  1.5694 -0.2352
17571TIP3   OH274203   4.711   3.856   4.731 -0.4690  0.1993 -0.2621
17571TIP3    H174204   4.683   3.853   4.822 -1.1127 -0.0480 -0.4663
17571TIP3    H274205   4.745   3.945   4.719  0.0826  0.0725  0.3547
17572TIP3   OH274206   1.699   4.346   2.047 -0.1854 -0.2260 -0.2202
17572TIP3    H174207   1.696   4.421   1.987  1.0507  0.9390  1.1317
17572TIP3    H274208   1.662   4.379   2.129  2.5927 -0.3289  1.1339
17573TIP3   OH274209   5.190   3.230  17.160 -0.1018  0.5084  0.1307
17573TIP3    H174210   5.210   3.292  17.090 -2.1559  0.2148 -0.7475
17573TIP3    H274211   5.157   3.285  17.231  0.1929  0.6238  0.1802
17574TIP3   OH274212   5.523   1.405   0.022 -0.1962  0.5439 -0.6797
17574TIP3    H174213   5.581   1.334   0.050  0.3191  0.6392 -1.4652
17574TIP3    H274214   5.444   1.360  -0.010  0.1308  0.3199 -1.1832
17575TIP3   OH274215   4.519   1.035  11.776  0.4271 -0.8559  0.1792
17575TIP3    H174216   4.582   1.104  11.798 -0.2834 -0.2428  0.2788
17575TIP3    H274217   4.555   0.957  11.819  2.0515 -0.9025 -1.2020
17576TIP3   OH274218   5.405   4.431   3.281  0.2893  0.1929  0.3010
17576TIP3    H174219   5.467   4.359   3.292 -0.3865 -0.6144 -1.0503
17576TIP3    H274220   5.455   4.510   3.303  1.1781 -0.6321  1.2950
17577TIP3   OH274221   5.234   6.382   4.089 -0.1891 -0.4089 -0.5237
17577TIP3    H174222   5.232   6.286   4.096  0.3065 -0.3634  0.4121
17577TIP3    H274223   5.325   6.402   4.068  0.3270  0.0041  1.9966
17578TIP3   OH274224   3.501   2.638  17.121  0.5682 -0.0394 -0.2087
17578TIP3    H174225   3.455   2.599  17.046 -0.3777 -0.6306  0.6684
17578TIP3    H274226   3.433   2.682  17.171  1.2643  0.7023  0.1142
17579TIP3   OH274227   2.105   6.773  16.051  0.0930  0.5776 -0.4968
17579TIP3    H174228   2.043   6.727  15.995 -0.7063 -1.0153  1.6015
17579TIP3    H274229   2.101   6.726  16.135  2.5171  1.7962  0.3631
17580TIP3   OH274230   0.785   6.719   4.034  0.0642 -0.4991 -0.2448
17580TIP3    H174231   0.780   6.762   4.119 -1.0538 -1.6638  0.3081
17580TIP3    H274232   0.826   6.783   3.976 -0.1033  0.6839  0.9305
17581TIP3   OH274233   6.193   0.598  15.668 -0.4616 -0.4625  0.5081
17581TIP3    H174234   6.228   0.511  15.687 -0.3729 -0.3004  1.0971
17581TIP3    H274235   6.148   0.624  15.749  0.9774  0.7615  0.9387
17582TIP3   OH274236   1.935   2.856   3.034 -0.5151  0.7546 -0.2105
17582TIP3    H174237   1.863   2.918   3.038 -1.3323 -0.2928  2.9433
17582TIP3    H274238   1.898   2.779   2.991 -0.7715  0.8469 -0.1545
17583TIP3   OH274239   5.939   1.951  13.543  0.1108  0.1052 -0.2988
17583TIP3    H174240   5.942   2.022  13.480 -0.7511  1.2643  0.9570
17583TIP3    H274241   5.933   1.994  13.628 -3.5665 -1.4590  0.2970
17584TIP3   OH274242   1.032   3.998  14.473 -0.2716 -0.0209  0.4176
17584TIP3    H174243   1.011   3.982  14.565 -0.7334 -1.1902  0.1107
17584TIP3    H274244   1.084   3.922  14.446 -2.6297 -1.1494 -1.0861
17585TIP3   OH274245   6.587   2.255   3.369  0.4492  0.5241 -0.4872
17585TIP3    H174246   6.614   2.195   3.439  1.4747 -0.6786 -1.8945
17585TIP3    H274247   6.511   2.301   3.405  1.5790  0.6639  1.8012
17586TIP3   OH274248   0.455   0.832   1.122 -0.5224  0.0556 -0.0718
17586TIP3    H174249   0.384   0.840   1.059 -0.8533 -0.8609  0.1875
17586TIP3    H274250   0.516   0.901   1.097 -0.7399 -0.1781 -1.2883
17587TIP3   OH274251   2.802   0.375   0.431  0.0827 -0.2618  0.0800
17587TIP3    H174252   2.732   0.345   0.374  0.4133  0.3700 -0.6576
17587TIP3    H274253   2.760   0.390   0.516 -0.3973 -1.2329  0.0206
17588TIP3   OH274254   6.648   6.594   3.657 -0.2237 -0.3252 -0.4225
17588TIP3    H174255   6.693   6.549   3.729 -0.5539 -0.3370 -0.2228
17588TIP3    H274256   6.699   6.673   3.643  0.2948 -0.7037 -0.6950
17589TIP3   OH274257   0.868   4.261  12.458  0.4371 -0.8347 -0.0086
17589TIP3    H174258   0.936   4.203  12.491  0.2061 -1.0188  0.1387
17589TIP3    H274259   0.836   4.308  12.535  0.3731 -0.7732 -0.0729
17590TIP3   OH274260   2.231   4.574  11.243  0.0883 -0.0207 -0.1894
17590TIP3    H174261   2.189   4.623  11.315 -0.2270 -0.5034 -0.0445
17590TIP3    H274262   2.277   4.641  11.193 -1.1021  0.5587 -0.5200
17591TIP3   OH274263   3.079   5.424  12.246  0.1977 -0.7503 -0.2103
17591TIP3    H174264   3.008   5.362  12.231 -0.0543 -0.7357  0.8626
17591TIP3    H274265   3.065   5.456  12.336  0.6419  0.4405 -0.5472
17592TIP3   OH274266   0.718   0.919   3.727  0.4353  0.2668  0.1075
17592TIP3    H174267   0.796   0.974   3.731  1.7434 -1.2788 -2.2098
17592TIP3    H274268   0.655   0.968   3.674  0.4880  0.7930  0.5397
17593TIP3   OH274269   3.703   4.846   2.495  0.0943  0.4804 -0.2500
17593TIP3    H174270   3.770   4.801   2.444 -0.8975  0.8504 -1.9156
17593TIP3    H274271   3.683   4.925   2.446 -1.9417  0.1224 -0.0845
17594TIP3   OH274272   3.250   1.897   1.630  0.9436  0.1052  0.1563
17594TIP3    H174273   3.209   1.924   1.548 -1.4690 -0.9540  0.9701
17594TIP3    H274274   3.243   1.975   1.686  0.4155  0.0754  0.1386
17595TIP3   OH274275   1.072   3.342   4.517 -0.6120  0.3646  0.0350
17595TIP3    H174276   1.156   3.296   4.507 -1.8264 -1.5544 -1.6824
17595TIP3    H274277   1.097   3.433   4.536  1.9492  0.6098 -3.8976
17596TIP3   OH274278   4.816   2.799  16.176  0.5448  0.4661  0.4138
17596TIP3    H174279   4.900   2.839  16.196  1.2623 -0.0332 -1.4785
17596TIP3    H274280   4.823   2.773  16.084  0.2089 -4.1214  1.5657
17597TIP3   OH274281   0.745   1.177  14.928 -0.2978 -0.0154  0.2081
17597TIP3    H174282   0.760   1.117  15.001 -1.4116 -0.3051  0.2124
17597TIP3    H274283   0.650   1.189  14.926 -0.3131 -0.2032 -1.3288
17598TIP3   OH274284   5.113   2.837   2.177 -0.6197 -0.9739  0.0694
17598TIP3    H174285   5.161   2.793   2.107  0.5676  2.7215 -1.5720
17598TIP3    H274286   5.181   2.879   2.230 -1.8047  1.1270 -0.0298
17599TIP3   OH274287   1.479   2.793   6.266  0.1394  0.2404 -0.3318
17599TIP3    H174288   1.486   2.873   6.319  0.0527  0.6764 -0.9652
17599TIP3    H274289   1.466   2.723   6.329 -1.1559  0.9082  0.1578
17600TIP3   OH274290   6.764   0.074   2.505  0.0931  0.4110 -0.1219
17600TIP3    H174291   6.726   0.152   2.543 -1.3899  0.2938 -1.3363
17600TIP3    H274292   6.813   0.105   2.428 -1.1593  0.0707 -1.0703
17601TIP3   OH274293   3.141   4.562  12.145 -0.1982 -0.1012 -0.5790
17601TIP3    H174294   3.070   4.626  12.157 -0.0473 -0.3376  1.8105
17601TIP3    H274295   3.097   4.477  12.147  0.1032 -0.2363  0.6087
17602TIP3   OH274296   3.000   6.256   0.225  0.5866  0.0234 -0.2018
17602TIP3    H174297   3.023   6.218   0.140 -0.0096 -0.4749 -0.1454
17602TIP3    H274298   3.052   6.206   0.288 -2.1684 -2.5629  0.1350
17603TIP3   OH274299   1.152   0.528  15.596 -0.4639  0.3614  0.6716
17603TIP3    H174300   1.105   0.528  15.512  0.2928  0.5118  0.2486
17603TIP3    H274301   1.133   0.442  15.633  1.6339 -0.8912 -1.0402
17604TIP3   OH274302   0.708   3.305  13.976 -0.5580  0.1346 -0.0831
17604TIP3    H174303   0.746   3.260  13.901 -1.1105  2.4362 -1.7800
17604TIP3    H274304   0.620   3.329  13.948 -1.0765  0.2868  1.6136
17605TIP3   OH274305   5.213   6.296   0.757  0.1408  0.5947  0.0660
17605TIP3    H174306   5.257   6.324   0.676  1.5206  1.3529  1.0681
17605TIP3    H274307   5.245   6.357   0.824 -1.6548  0.5114  1.0180
17606TIP3   OH274308   5.337   5.412  13.082 -0.1263 -0.1858  0.0725
17606TIP3    H174309   5.398   5.362  13.027 -1.2750 -0.2410 -1.1615
17606TIP3    H274310   5.352   5.503  13.057  2.8070  0.3172  3.1432
17607TIP3   OH274311   4.986   5.748   3.899  0.1430  0.1318 -0.3820
17607TIP3    H174312   4.931   5.698   3.838 -0.4700 -0.6371  0.7842
17607TIP3    H274313   5.047   5.684   3.934  0.2242  0.4854  0.1251
17608TIP3   OH274314   6.454   2.606   5.847  0.4432  0.6195  0.1606
17608TIP3    H174315   6.384   2.672   5.852  0.9657  1.1584  0.4137
17608TIP3    H274316   6.534   2.654   5.866  0.8625 -0.0471  0.1086
17609TIP3   OH274317   0.415   1.395   0.085  0.4582  0.3051 -0.5227
17609TIP3    H174318   0.347   1.347   0.038  0.8066 -0.5788 -0.1437
17609TIP3    H274319   0.441   1.465   0.026 -0.2366  0.1752 -0.9827
17610TIP3   OH274320   5.625   0.992  13.936  0.0450  0.0917  0.0626
17610TIP3    H174321   5.658   0.909  13.970  0.5849  0.2767  0.0012
17610TIP3    H274322   5.565   0.967  13.866 -0.2625 -0.2609  0.4535
17611TIP3   OH274323   5.964   5.010  13.602  0.5416 -0.2573  0.0218
17611TIP3    H174324   5.976   5.102  13.576 -0.6211  0.4682  1.9128
17611TIP3    H274325   5.981   4.960  13.523  0.6138  1.6428 -1.1897
17612TIP3   OH274326   3.178   4.486  16.363 -0.3035  0.0156 -1.1297
17612TIP3    H174327   3.094   4.520  16.333 -0.4526 -0.2624 -1.0363
17612TIP3    H274328   3.201   4.419  16.298 -0.2249 -0.0096 -1.0760
17613TIP3   OH274329   3.521   5.667  14.177  0.3532  0.0299  0.2278
17613TIP3    H174330   3.585   5.618  14.125 -0.8917 -0.5618 -0.7596
17613TIP3    H274331   3.559   5.755  14.185  0.9828 -0.1341 -0.8960
17614TIP3   OH274332   5.754   2.869  14.102 -0.2448 -0.3902  0.1201
17614TIP3    H174333   5.816   2.816  14.052  0.8735 -0.7528  1.8703
17614TIP3    H274334   5.674   2.817  14.105  0.2372 -1.1256  0.1860
17615TIP3   OH274335   5.013   0.295   1.875  0.4612  0.0493 -0.0958
17615TIP3    H174336   5.000   0.240   1.953  2.2390 -1.6553 -0.9571
17615TIP3    H274337   5.002   0.385   1.906  1.8579 -0.5680  2.2748
17616TIP3   OH274338   2.985   1.379  15.641 -0.3365 -0.1443 -0.3205
17616TIP3    H174339   2.967   1.385  15.547  0.1679  0.1940 -0.3989
17616TIP3    H274340   3.054   1.313  15.648  0.0535  0.2675 -0.2491
17617TIP3   OH274341   3.633   6.025  12.942  0.1720  0.6041 -0.2324
17617TIP3    H174342   3.614   6.027  12.848  0.7912  1.3201 -0.3474
17617TIP3    H274343   3.592   5.944  12.973  0.3862  0.1108 -1.2108
17618TIP3   OH274344   6.170   2.279  12.912  0.3518 -0.2255 -0.0698
17618TIP3    H174345   6.209   2.308  12.830 -0.9032  0.5921 -0.3877
17618TIP3    H274346   6.079   2.259  12.891  0.4103 -1.5319  0.7948
17619TIP3   OH274347   1.693   1.046  15.995  0.2450 -0.4335  0.0813
17619TIP3    H174348   1.709   1.081  15.908 -1.0425 -0.4971 -0.1883
17619TIP3    H274349   1.767   1.076  16.047 -1.7191  4.4504  0.3772
17620TIP3   OH274350   0.297   6.170   6.948 -0.2767  0.5987  0.3361
17620TIP3    H174351   0.241   6.135   6.878  1.4438  1.2820 -1.4293
17620TIP3    H274352   0.241   6.231   6.995 -1.5497 -0.0716 -0.2784
17621TIP3   OH274353   2.009   2.249   3.194  0.1096 -0.1845  0.1273
17621TIP3    H174354   2.057   2.167   3.182  1.4635  0.9303 -2.2541
17621TIP3    H274355   1.929   2.238   3.143  0.9686  0.5263 -1.3807
17622TIP3   OH274356   1.051   1.795  12.378  0.4399  0.3287  0.0779
17622TIP3    H174357   1.006   1.799  12.462 -0.4280  1.1320 -0.4095
17622TIP3    H274358   1.133   1.843  12.392  0.8944 -0.6673  0.8195
17623TIP3   OH274359   6.331   3.532   4.952  0.3046 -0.0820 -0.0976
17623TIP3    H174360   6.264   3.510   5.017  0.5432 -0.7298 -0.0705
17623TIP3    H274361   6.282   3.565   4.877  0.0358  0.8086  0.4637
17624TIP3   OH274362   0.582   0.069  16.366 -0.2885 -0.1840  0.1820
17624TIP3    H174363   0.673   0.077  16.340 -0.2629 -0.1987  0.2638
17624TIP3    H274364   0.561  -0.023  16.351  0.4558 -0.7702  2.5224
17625TIP3   OH274365   2.055   5.481   6.693 -0.2896 -0.2052  0.6138
17625TIP3    H174366   1.961   5.464   6.686  0.2418 -2.8066 -0.9004
17625TIP3    H274367   2.089   5.466   6.604  1.6881 -0.2261  1.3485
17626TIP3   OH274368   4.221   3.525  10.729  0.1634 -0.3774 -0.0764
17626TIP3    H174369   4.228   3.618  10.754 -1.3982 -0.7960  1.9878
17626TIP3    H274370   4.310   3.491  10.742  0.1849  0.2516  1.5245
17627TIP3   OH274371   5.884   3.838   0.459 -0.2622 -0.6512 -0.3736
17627TIP3    H174372   5.973   3.841   0.493 -0.0015  0.3326 -1.1135
17627TIP3    H274373   5.829   3.873   0.529  0.2034  0.8236 -0.7154
17628TIP3   OH274374   2.089   5.759  12.448 -0.0624  0.3061  0.5329
17628TIP3    H174375   2.020   5.743  12.383 -0.6762 -0.3788  1.3372
17628TIP3    H274376   2.170   5.759  12.397 -0.6690  1.4827 -0.4850
17629TIP3   OH274377   5.961   0.570  12.977 -0.0738 -0.1613  0.4063
17629TIP3    H174378   5.876   0.570  13.020 -0.0825 -2.0428  0.4171
17629TIP3    H274379   5.963   0.652  12.928 -1.7361  0.0718  0.7044
17630TIP3   OH274380   0.443   1.989  16.592  0.2349  0.2896  0.3602
17630TIP3    H174381   0.467   2.059  16.652 -1.1045  0.9905  0.0937
17630TIP3    H274382   0.404   1.921  16.648 -0.4031  0.6622  0.3782
17631TIP3   OH274383   0.063   4.755  10.902 -0.1661 -0.8264  0.1796
17631TIP3    H174384  -0.029   4.767  10.878  0.3550  0.8283 -1.0881
17631TIP3    H274385   0.071   4.661  10.918 -1.3931 -1.4571 -2.6421
17632TIP3   OH274386   5.946   2.704  11.033  0.2164 -0.4250 -0.1681
17632TIP3    H174387   5.956   2.683  10.940 -0.4528  0.5441 -0.4643
17632TIP3    H274388   5.989   2.789  11.043 -2.3662  0.9380 -0.2302
17633TIP3   OH274389   2.116   5.902   1.763 -0.1555 -0.3834  0.2725
17633TIP3    H174390   2.118   5.909   1.858  1.8590 -1.6561  0.3547
17633TIP3    H274391   2.023   5.888   1.742 -0.5323 -0.7269  2.0889
17634TIP3   OH274392   0.360   4.822   6.204  0.7451 -0.0537 -0.6384
17634TIP3    H174393   0.370   4.905   6.250 -0.7970 -1.0277  1.5833
17634TIP3    H274394   0.422   4.763   6.248 -0.1001 -0.7602 -0.3643
17635TIP3   OH274395   1.797   5.187  15.312 -0.3465  0.0554  0.0373
17635TIP3    H174396   1.827   5.097  15.303 -1.8523 -0.5306  0.6476
17635TIP3    H274397   1.877   5.238  15.325  0.5755 -1.0929 -0.9866
17636TIP3   OH274398   6.590   3.448  12.897  0.1315 -0.3708 -0.1190
17636TIP3    H174399   6.538   3.516  12.939  2.8569  0.8334  1.3998
17636TIP3    H274400   6.561   3.366  12.938 -2.2532 -0.0291 -1.0477
17637TIP3   OH274401   0.454   0.934   1.725 -0.2042 -0.3690  0.3080
17637TIP3    H174402   0.544   0.905   1.739  0.2532  0.5240 -0.7547
17637TIP3    H274403   0.442   0.932   1.630 -0.5210  1.8184  0.2776
17638TIP3   OH274404   2.248   4.396   2.863  1.3047 -0.4483  0.1605
17638TIP3    H174405   2.234   4.473   2.807  2.0433 -0.1455  0.3778
17638TIP3    H274406   2.309   4.342   2.813  0.1097 -1.3110 -0.3753
17639TIP3   OH274407   6.372   2.149   0.930 -0.0435  0.1682 -0.1469
17639TIP3    H174408   6.378   2.057   0.906  1.6497  0.4906 -1.0577
17639TIP3    H274409   6.396   2.196   0.850  0.4540  1.3716  0.6941
17640TIP3   OH274410   4.076   0.538   1.989  0.0653 -0.7206 -0.7069
17640TIP3    H174411   4.014   0.562   2.058  1.1703  2.5653 -0.7616
17640TIP3    H274412   4.021   0.508   1.917 -1.3385 -0.1338  0.0917
17641TIP3   OH274413   3.628   5.123   3.969  0.2910  0.1797  0.1636
17641TIP3    H174414   3.533   5.121   3.954  0.1457  2.4029  0.5946
17641TIP3    H274415   3.640   5.076   4.051 -0.1468 -2.2898 -1.1492
17642TIP3   OH274416   4.961   6.673   2.986 -0.3253  0.4690  0.1518
17642TIP3    H174417   5.037   6.625   3.020 -1.1847 -0.3038  1.0267
17642TIP3    H274418   4.928   6.619   2.914  0.7150  1.4586 -1.0992
17643TIP3   OH274419   0.015   3.567  16.699  0.3213 -0.1829 -0.2106
17643TIP3    H174420   0.076   3.576  16.772  0.1788 -0.0150 -0.1122
17643TIP3    H274421  -0.047   3.639  16.711  0.4439 -0.0064 -0.6387
17644TIP3   OH274422   5.805   6.374  17.025 -0.2478  0.1899  0.4359
17644TIP3    H174423   5.816   6.429  17.102  0.1064 -0.1879  0.6559
17644TIP3    H274424   5.793   6.435  16.953 -1.0150  0.5425  0.8560
17645TIP3   OH274425   5.631   1.884   4.613 -0.3437 -0.3784  0.0895
17645TIP3    H174426   5.548   1.928   4.593  0.5416  0.8625 -1.0023
17645TIP3    H274427   5.643   1.823   4.540  0.1371  0.0974 -0.2336
17646TIP3   OH274428   0.910   2.170   3.120  0.1974 -0.2627 -0.0481
17646TIP3    H174429   0.872   2.201   3.037  2.9618 -4.2438 -2.9685
17646TIP3    H274430   0.980   2.232   3.139  1.5405 -1.0378 -2.3710
17647TIP3   OH274431   5.806   3.522   5.279 -0.1901  0.3835  0.6826
17647TIP3    H174432   5.857   3.471   5.342 -0.5898  0.4702  1.0838
17647TIP3    H274433   5.860   3.599   5.261  0.9042 -0.6915 -0.7555
17648TIP3   OH274434   0.458   3.626   1.013 -0.4635  0.8539 -0.1456
17648TIP3    H174435   0.400   3.551   1.024 -0.3067  0.5024 -1.6252
17648TIP3    H274436   0.401   3.702   1.024 -0.3882  0.5404  2.5700
17649TIP3   OH274437   2.738   3.354   6.014 -0.0236  0.1651 -0.3575
17649TIP3    H174438   2.802   3.305   6.065  0.5831 -0.1092 -1.3711
17649TIP3    H274439   2.786   3.385   5.937 -0.6940  1.3567 -0.3117
17650TIP3   OH274440   6.347   5.007  13.698 -0.1688 -0.3845  0.3455
17650TIP3    H174441   6.291   5.015  13.620 -0.2008 -1.3284  0.2609
17650TIP3    H274442   6.434   4.987  13.663  0.2949  1.3879  0.4644
17651TIP3   OH274443   0.554   0.392  14.215  0.1955 -0.2225 -0.1015
17651TIP3    H174444   0.555   0.298  14.234  0.3561 -0.2167 -0.0731
17651TIP3    H274445   0.607   0.401  14.136  0.7221 -0.0865  0.2575
17652TIP3   OH274446   0.710   3.624   5.303  0.4590 -0.3929  0.4298
17652TIP3    H174447   0.802   3.633   5.325  0.7655 -1.1499 -0.5019
17652TIP3    H274448   0.678   3.714   5.291  0.7104 -0.0635  2.1794
17653TIP3   OH274449   4.088   0.550  13.328 -0.1537  0.2185 -0.4081
17653TIP3    H174450   4.022   0.515  13.388  0.8815  0.4940  0.9232
17653TIP3    H274451   4.170   0.509  13.356  0.4197  0.7283 -1.3240
17654TIP3   OH274452   4.963   0.259   4.267  0.3578  0.6663 -0.1558
17654TIP3    H174453   4.877   0.236   4.230  0.9552  2.3220 -2.7140
17654TIP3    H274454   4.969   0.207   4.348 -2.2293 -0.9137 -0.9084
17655TIP3   OH274455   5.927   1.714  16.045 -0.0607 -0.3044  0.1176
17655TIP3    H174456   5.934   1.636  15.992  0.6615  0.6757 -1.2502
17655TIP3    H274457   6.009   1.761  16.031  0.0612  0.0930  1.9213
17656TIP3   OH274458   2.734   3.143  11.620  0.1113  0.1039  0.1794
17656TIP3    H174459   2.810   3.179  11.667 -0.0218  0.0685  0.4233
17656TIP3    H274460   2.757   3.153  11.528  0.3258  0.2810  0.2494
17657TIP3   OH274461   3.004   0.603   4.798 -0.9344  0.9508  0.1626
17657TIP3    H174462   3.036   0.599   4.888 -1.0019 -0.5348  0.1335
17657TIP3    H274463   3.081   0.621   4.745 -0.2860 -1.4484  0.2069
17658TIP3   OH274464   4.914   0.759  11.708  0.3750 -0.6584 -0.0518
17658TIP3    H174465   4.894   0.789  11.797  0.3549 -1.4962  0.2416
17658TIP3    H274466   4.912   0.838  11.654 -1.2978 -0.3638  0.3970
17659TIP3   OH274467   1.376   3.204   5.822  0.3104 -0.8531  0.2683
17659TIP3    H174468   1.311   3.173   5.760  0.1860  0.4060 -0.2319
17659TIP3    H274469   1.365   3.147   5.899 -0.8644 -1.1202 -0.0955
17660TIP3   OH274470   6.182   0.186  13.603 -0.2204  0.3457  0.2192
17660TIP3    H174471   6.190   0.275  13.637 -0.2044  0.2812  0.3842
17660TIP3    H274472   6.091   0.179  13.576  0.1365  0.9109 -1.1782
17661TIP3   OH274473   4.763   2.120  11.127 -0.7678 -0.1811 -0.4812
17661TIP3    H174474   4.830   2.068  11.083  0.6872  1.6233 -0.4715
17661TIP3    H274475   4.711   2.158  11.056 -1.3916 -1.0686 -0.5048
17662TIP3   OH274476   2.932   2.776   0.872 -0.0129 -0.2741  0.2965
17662TIP3    H174477   2.867   2.707   0.879  1.0320 -1.4510 -1.3001
17662TIP3    H274478   3.015   2.730   0.857  0.7455  1.2972 -0.4680
17663TIP3   OH274479   4.631   2.209   5.120  0.1561  0.4292  0.2489
17663TIP3    H174480   4.639   2.158   5.201 -0.3791 -0.2335 -0.1188
17663TIP3    H274481   4.666   2.295   5.144 -0.1483  0.2916  1.2414
17664TIP3   OH274482   6.120   5.767   1.241 -0.0656  0.1062 -0.1862
17664TIP3    H174483   6.121   5.715   1.321 -1.3231  2.3542  1.3417
17664TIP3    H274484   6.065   5.717   1.181 -0.7657 -0.6128  1.0373
17665TIP3   OH274485   0.151   5.793   1.606 -0.2438  0.2482 -0.2639
17665TIP3    H174486   0.131   5.801   1.700  2.0764  3.3564  0.0223
17665TIP3    H274487   0.158   5.883   1.575  1.3661 -0.7336 -2.8973
17666TIP3   OH274488   6.607   4.951  13.573  0.0980  0.0955  0.0256
17666TIP3    H174489   6.579   4.901  13.496 -1.6695 -0.1236  0.7906
17666TIP3    H274490   6.699   4.928  13.584 -0.0006 -0.9614 -1.2042
17667TIP3   OH274491   0.045   5.065  13.863  0.7531  0.3581 -0.3563
17667TIP3    H174492   0.075   5.000  13.799  1.0088  1.7486 -1.6686
17667TIP3    H274493  -0.030   5.023  13.906  1.4318 -1.1396 -0.5784
17668TIP3   OH274494   6.727   5.482   1.311  0.0347  0.2042  0.0090
17668TIP3    H174495   6.755   5.573   1.314 -0.5314  0.5400 -3.0993
17668TIP3    H274496   6.694   5.470   1.222  0.4423 -3.1485  0.2374
17669TIP3   OH274497   4.566   5.048   5.476  0.1602 -0.3779  0.2622
17669TIP3    H174498   4.586   5.102   5.399  0.7396 -0.8989  0.0417
17669TIP3    H274499   4.471   5.051   5.483  0.0689 -0.6633 -0.7283
17670TIP3   OH274500   6.189   5.437   5.693 -0.2234 -0.0034 -0.4629
17670TIP3    H174501   6.150   5.491   5.762  2.0475  0.7121  0.2884
17670TIP3    H274502   6.134   5.358   5.690 -0.4408  0.0332  2.0238
17671TIP3   OH274503   0.285   1.135   5.484 -0.2021  0.1384  0.2223
17671TIP3    H174504   0.198   1.165   5.457  0.9774  1.1958 -2.6407
17671TIP3    H274505   0.334   1.216   5.500  0.5908 -0.4280  0.6936
17672TIP3   OH274506   2.302   1.117  12.711 -0.4780  0.1164 -0.0354
17672TIP3    H174507   2.331   1.207  12.697 -3.5079  1.1403 -0.0440
17672TIP3    H274508   2.256   1.094  12.631 -1.0393 -0.9207  0.5737
17673TIP3   OH274509   5.059   4.391  15.889  0.0053 -0.6129  0.3637
17673TIP3    H174510   4.976   4.397  15.843 -0.0154 -1.0149  0.3507
17673TIP3    H274511   5.073   4.479  15.926  0.5754  0.0384 -1.3645
17674TIP3   OH274512   1.931   3.497  15.127 -0.0007 -0.1033  0.5021
17674TIP3    H174513   1.858   3.473  15.071  0.5094  1.0403 -0.6673
17674TIP3    H274514   2.009   3.466  15.080  0.2371 -2.2102  2.1988
17675TIP3   OH274515   4.120   0.200   2.724  0.6562 -0.0101 -0.4774
17675TIP3    H174516   4.215   0.211   2.729  0.5090  1.5526 -0.9032
17675TIP3    H274517   4.085   0.282   2.757 -0.6021 -1.4264  1.8925
17676TIP3   OH274518   2.651   4.443  14.322 -0.8211 -0.4439 -0.4473
17676TIP3    H174519   2.719   4.508  14.341 -0.7010 -1.0677  1.2981
17676TIP3    H274520   2.643   4.445  14.226  0.8539  0.4513 -0.5951
17677TIP3   OH274521   1.506   3.943   0.443  0.1896  0.2144 -0.3624
17677TIP3    H174522   1.547   3.887   0.377  1.7292  1.0357 -0.1175
17677TIP3    H274523   1.416   3.911   0.449  1.6662 -3.8135  1.5217
17678TIP3   OH274524   4.711   0.558   4.175 -0.0412  0.2944 -0.0666
17678TIP3    H174525   4.793   0.550   4.127 -0.7367  2.1674 -1.6126
17678TIP3    H274526   4.738   0.577   4.265  1.2282 -0.7772 -0.2070
17679TIP3   OH274527   2.421   3.259   3.945  0.3729  0.2875  0.4604
17679TIP3    H174528   2.486   3.194   3.970  1.2965  0.3536 -1.6258
17679TIP3    H274529   2.340   3.209   3.931  1.4687 -0.7337 -2.7162
17680TIP3   OH274530   5.359   6.202   2.393  0.8215 -0.0889  0.8012
17680TIP3    H174531   5.454   6.207   2.393  0.7840  0.7856  0.5308
17680TIP3    H274532   5.330   6.293   2.384 -0.0686  0.0400  4.1806
17681TIP3   OH274533   3.141   1.103  15.417 -0.0593  0.1973 -0.4833
17681TIP3    H174534   3.194   1.179  15.393 -0.5283  1.1700  1.5703
17681TIP3    H274535   3.203   1.044  15.461  0.4991 -1.0260 -2.7994
17682TIP3   OH274536   2.228   6.799  15.329 -0.1063 -0.2874  0.5653
17682TIP3    H174537   2.139   6.831  15.316  0.1616  0.2355  0.0179
17682TIP3    H274538   2.282   6.878  15.334  0.3607 -0.6108  0.6504
17683TIP3   OH274539   1.449   5.037   0.443  0.7963  0.1134  0.0756
17683TIP3    H174540   1.420   4.948   0.421  1.3231  0.5109 -2.3054
17683TIP3    H274541   1.531   5.024   0.491  0.6417 -0.7075  0.1282
17684TIP3   OH274542   3.299   4.138  14.653 -0.4862 -0.0439 -0.0748
17684TIP3    H174543   3.294   4.185  14.569  2.1189 -1.1586 -0.8948
17684TIP3    H274544   3.340   4.200  14.713  1.0107 -0.4842 -0.6108
17685TIP3   OH274545   1.891   0.621  16.708 -0.1690 -0.3852  0.0331
17685TIP3    H174546   1.948   0.544  16.705 -0.3210 -0.4782 -0.4497
17685TIP3    H274547   1.928   0.681  16.643  1.0487  0.7247  1.6910
17686TIP3   OH274548   1.669   6.167   0.334 -0.3530 -0.4405  0.5804
17686TIP3    H174549   1.693   6.253   0.369  0.0966  0.8879 -2.7723
17686TIP3    H274550   1.574   6.164   0.339 -0.3862  0.3844  0.4442
17687TIP3   OH274551   6.794   4.036  12.366 -0.0476  0.9246  0.5967
17687TIP3    H174552   6.765   4.029  12.457  2.0029 -1.3272  1.1246
17687TIP3    H274553   6.887   4.058  12.373  0.1215  0.7019 -0.9374
17688TIP3   OH274554   5.546   5.942   5.393  0.4607  0.4824  0.7637
17688TIP3    H174555   5.482   5.877   5.364  1.4811 -1.8242  3.5425
17688TIP3    H274556   5.503   6.026   5.377 -1.7547 -0.9008 -0.8644
17689TIP3   OH274557   6.102   2.537   0.211 -0.0236 -0.2858 -0.1268
17689TIP3    H174558   6.158   2.568   0.282  0.5456  0.8281 -1.0583
17689TIP3    H274559   6.160   2.528   0.136 -0.6294 -1.4298 -0.4757
17690TIP3   OH274560   6.595   3.860  17.105  0.5354  0.2036 -0.2741
17690TIP3    H174561   6.537   3.785  17.124  2.6354 -1.3873 -0.0160
17690TIP3    H274562   6.600   3.863  17.010  0.1105  0.2981 -0.2957
17691TIP3   OH274563   5.399   6.721   6.361  0.2470  0.3364 -0.1931
17691TIP3    H174564   5.352   6.701   6.442 -1.5985  0.8439 -1.1111
17691TIP3    H274565   5.463   6.788   6.386 -0.8241  1.0459  0.6948
17692TIP3   OH274566   3.185   5.948  15.092  0.3600  0.8345 -0.2355
17692TIP3    H174567   3.204   5.902  15.173  1.4800  2.9448  0.7189
17692TIP3    H274568   3.096   5.920  15.069 -0.0785  0.4632  1.8618
17693TIP3   OH274569   4.389   0.248  16.538  0.4105  0.4872 -0.8501
17693TIP3    H174570   4.482   0.241  16.558  0.4273  1.6214 -0.4810
17693TIP3    H274571   4.347   0.187  16.599  0.7160  1.7376  0.6363
17694TIP3   OH274572   3.611   3.219   1.772  0.2743  0.1101  0.0952
17694TIP3    H174573   3.552   3.285   1.808 -2.1050 -1.5093 -0.7314
17694TIP3    H274574   3.571   3.192   1.690  1.7332 -1.6235 -0.0848
17695TIP3   OH274575   5.601   5.894  12.786  0.2306 -0.1259 -0.1776
17695TIP3    H174576   5.696   5.883  12.790  0.2301 -0.0553  0.0652
17695TIP3    H274577   5.578   5.936  12.869  0.1142  0.7650 -0.6438
17696TIP3   OH274578   5.283   0.509   5.891 -0.4229 -0.1997 -0.4366
17696TIP3    H174579   5.273   0.417   5.913 -0.0995 -0.1961 -0.2779
17696TIP3    H274580   5.242   0.556   5.964  0.7716 -0.1841  0.2394
17697TIP3   OH274581   1.588   3.292   0.527  0.0515  0.4862  0.2660
17697TIP3    H174582   1.668   3.332   0.492 -0.3529  0.2749 -0.9532
17697TIP3    H274583   1.558   3.234   0.456 -1.5233  1.0466  0.4640
17698TIP3   OH274584   1.186   4.180   4.487  0.1712  0.1343  0.2295
17698TIP3    H174585   1.231   4.250   4.535  4.2693 -2.4621  0.4523
17698TIP3    H274586   1.172   4.111   4.552 -1.3927 -0.3333 -0.5722
17699TIP3   OH274587   4.046   5.298   2.475  0.0332  0.5061  0.3975
17699TIP3    H174588   3.967   5.337   2.511  0.2662  0.7415  0.6530
17699TIP3    H274589   4.027   5.287   2.382 -0.9137 -0.9600  0.7561
17700TIP3   OH274590   0.058   3.721  13.039 -0.6327  0.2386  0.4521
17700TIP3    H174591   0.048   3.671  12.958 -0.0246 -0.7631  0.9798
17700TIP3    H274592   0.153   3.734  13.048 -0.6101 -0.5727  1.5349
17701TIP3   OH274593   1.313   1.976  14.542  0.5494  0.4972 -0.3665
17701TIP3    H174594   1.362   1.973  14.624  1.3124  2.4189 -0.7035
17701TIP3    H274595   1.222   1.962  14.567  1.0021 -0.8099  0.5613
17702TIP3   OH274596   1.103   2.371   3.117 -0.0546  0.5985 -0.5979
17702TIP3    H174597   1.135   2.432   3.184  0.8635 -1.3585  0.8176
17702TIP3    H274598   1.175   2.308   3.107 -0.3694  0.5865 -3.1192
17703TIP3   OH274599   6.795   2.795   6.529 -0.4765  0.3358  0.3343
17703TIP3    H174600   6.853   2.720   6.516 -1.6797  0.0034 -3.4550
17703TIP3    H274601   6.840   2.848   6.595  2.0034 -2.0473  0.6373
17704TIP3   OH274602   0.126   1.637   0.671 -0.1832 -0.3252  0.3110
17704TIP3    H174603   0.099   1.552   0.705 -0.5388 -0.7810 -1.0731
17704TIP3    H274604   0.157   1.618   0.582  2.3681  0.5673  0.9742
17705TIP3   OH274605   3.656   5.905  12.054 -0.4315  0.4255 -0.1899
17705TIP3    H174606   3.679   5.947  11.971 -0.6839 -0.8910 -0.9574
17705TIP3    H274607   3.721   5.936  12.117 -2.2838  4.1577 -0.0072
17706TIP3   OH274608   3.312   2.241  12.383 -0.5983 -0.3017 -0.0825
17706TIP3    H174609   3.338   2.315  12.328  0.0721  0.8511  1.7306
17706TIP3    H274610   3.250   2.278  12.446 -0.2979 -1.2757  0.8059
17707TIP3   OH274611   0.891   1.652   5.000  0.0097  0.2955 -0.1647
17707TIP3    H174612   0.875   1.561   4.973  0.8533  0.3780 -0.9503
17707TIP3    H274613   0.925   1.644   5.089 -2.5707  0.0100  0.8513
17708TIP3   OH274614   4.584   1.549   5.165 -0.5853 -0.5852  0.1071
17708TIP3    H174615   4.542   1.613   5.108 -1.3157 -0.4641  0.7653
17708TIP3    H274616   4.628   1.489   5.105  0.0123  0.4539 -0.5211
17709TIP3   OH274617   1.129   2.835  11.561  0.0284  0.2826  0.2183
17709TIP3    H174618   1.062   2.873  11.504 -0.6691  2.3381  2.3073
17709TIP3    H274619   1.091   2.753  11.592 -0.7180  0.4955 -0.1280
17710TIP3   OH274620   2.743   0.767   6.074  0.2859  0.1127 -0.0724
17710TIP3    H174621   2.777   0.772   5.985  1.7518  1.0962  0.5225
17710TIP3    H274622   2.723   0.858   6.097  1.5203  0.0797  1.1951
17711TIP3   OH274623   1.620   0.227  12.224  0.5051 -0.2189 -0.4318
17711TIP3    H174624   1.560   0.221  12.299  1.7411 -2.0875  0.4374
17711TIP3    H274625   1.644   0.320  12.221 -0.7646  0.1554  0.5394
17712TIP3   OH274626   2.734   1.534  11.133 -0.3497  0.3618 -0.3312
17712TIP3    H174627   2.709   1.453  11.177  0.9916 -0.1061 -0.4159
17712TIP3    H274628   2.705   1.603  11.192  0.2549 -0.2304  0.6706
17713TIP3   OH274629   4.033   0.023   0.280 -0.1180  0.1185 -0.1911
17713TIP3    H174630   4.029  -0.007   0.189  1.0098 -0.0366 -0.2042
17713TIP3    H274631   4.118   0.067   0.286 -0.6197  1.0142  0.5289
17714TIP3   OH274632   3.469   5.144   2.495  0.1553  0.1791 -0.3762
17714TIP3    H174633   3.533   5.119   2.428  0.4543 -0.1288  0.0280
17714TIP3    H274634   3.441   5.232   2.469 -1.5994 -0.8885 -2.3543
17715TIP3   OH274635   1.335   0.293  11.904  0.5997 -0.0030  0.1473
17715TIP3    H174636   1.364   0.372  11.949  1.4724  0.1065 -0.5895
17715TIP3    H274637   1.240   0.295  11.911  0.6281  1.0121  0.2993
17716TIP3   OH274638   6.348   0.951   4.609 -0.6506 -0.4901 -0.0363
17716TIP3    H174639   6.297   0.995   4.677  0.9348  2.8701 -0.9053
17716TIP3    H274640   6.425   0.916   4.654 -0.4877  0.1862  0.2142
17717TIP3   OH274641   0.341   1.866  16.817  0.2127  0.1636  0.2064
17717TIP3    H174642   0.285   1.799  16.778 -0.2047  0.7347 -0.2039
17717TIP3    H274643   0.301   1.884  16.902 -0.9134  1.3761 -0.5557
17718TIP3   OH274644   4.116   0.572  13.033  0.9054  0.2650 -0.0064
17718TIP3    H174645   4.133   0.666  13.030  2.0856  0.0902  0.8189
17718TIP3    H274646   4.080   0.556  13.120 -0.7072  0.1675 -0.6742
17719TIP3   OH274647   1.423   1.440  16.299  0.2126  0.4046  0.7059
17719TIP3    H174648   1.453   1.352  16.277 -0.0919 -0.3608  3.1511
17719TIP3    H274649   1.330   1.440  16.275 -0.0344 -0.2922  1.6384
17720TIP3   OH274650   5.939   6.123   1.329  0.9636  0.3137 -0.2203
17720TIP3    H174651   5.888   6.106   1.408 -0.6639  1.6477 -0.9392
17720TIP3    H274652   6.013   6.176   1.358  1.1896 -0.4654  0.6313
17721TIP3   OH274653   6.465   1.509   1.383  0.0016 -0.5105  0.1527
17721TIP3    H174654   6.443   1.601   1.390 -1.1447 -0.7480 -0.2475
17721TIP3    H274655   6.382   1.463   1.394  0.4357 -1.4595 -0.4497
17722TIP3   OH274656   5.720   5.957   2.806  0.3224  0.2787  0.3070
17722TIP3    H174657   5.665   5.880   2.797  0.6105  0.1405 -0.3091
17722TIP3    H274658   5.686   6.019   2.741  0.5866  0.3764  0.2586
17723TIP3   OH274659   0.376   5.774   2.082  0.0250  0.2332 -0.2309
17723TIP3    H174660   0.457   5.738   2.117 -0.7158 -0.8256  0.4283
17723TIP3    H274661   0.319   5.783   2.158 -0.2481  1.6030 -0.5898
17724TIP3   OH274662   4.540   0.516   3.163 -0.0224  0.4478  0.1373
17724TIP3    H174663   4.504   0.605   3.171  1.3246  1.0022  0.1887
17724TIP3    H274664   4.535   0.497   3.069 -0.6681  0.4163  0.1726
17725TIP3   OH274665   0.426   6.253   5.174  0.0788 -0.3074  0.6138
17725TIP3    H174666   0.413   6.213   5.261 -0.6040 -1.7846 -0.1504
17725TIP3    H274667   0.433   6.346   5.192  1.8421 -0.7386  2.4792
17726TIP3   OH274668   1.310   6.460  15.500  0.1734  0.7121  0.5197
17726TIP3    H174669   1.281   6.505  15.420  0.1871  0.6685  0.4899
17726TIP3    H274670   1.303   6.526  15.569 -1.3312  0.3062  0.7790
17727TIP3   OH274671   4.925   0.556   5.491  0.2993 -0.2245 -0.0567
17727TIP3    H174672   4.925   0.477   5.545 -2.0253 -0.3316 -0.1485
17727TIP3    H274673   4.989   0.613   5.533  1.3817 -1.8253  0.5051
17728TIP3   OH274674   0.955   3.306  11.607  0.3966  0.1377  0.0986
17728TIP3    H174675   0.977   3.342  11.522  1.5612 -0.1526  0.2582
17728TIP3    H274676   0.955   3.381  11.666  4.4727 -0.2305  0.7536
17729TIP3   OH274677   4.547   1.138   6.642  0.1779 -0.8361 -0.0095
17729TIP3    H174678   4.473   1.147   6.582  0.2801 -0.5256 -0.0888
17729TIP3    H274679   4.565   1.227   6.673  2.0462 -0.5263 -1.8387
17730TIP3   OH274680   4.684   3.010  11.091 -0.6307  0.4902 -0.3205
17730TIP3    H174681   4.639   2.926  11.081  0.1853 -0.0136  0.2258
17730TIP3    H274682   4.651   3.063  11.018 -0.9475 -0.3868 -0.8294
17731TIP3   OH274683   3.372   1.887   6.236 -0.0946  0.5146  0.6015
17731TIP3    H174684   3.437   1.875   6.306 -0.7637 -1.6123  0.8862
17731TIP3    H274685   3.288   1.891   6.281 -0.5574 -1.1314 -0.0515
17732TIP3   OH274686   0.480   4.090   4.172  0.6941 -0.0444  0.0577
17732TIP3    H174687   0.395   4.071   4.133 -0.1563  1.2364  1.2209
17732TIP3    H274688   0.492   4.023   4.239  0.9778 -0.6988 -0.6385
17733TIP3   OH274689   3.569   2.319   3.905  0.0168  0.2970 -0.6437
17733TIP3    H174690   3.622   2.368   3.842 -0.8651  0.7036 -1.0709
17733TIP3    H274691   3.556   2.233   3.864  2.2753 -0.6345  0.4723
17734TIP3   OH274692   6.334   0.677   3.990 -0.3173  0.2040 -0.0424
17734TIP3    H174693   6.269   0.746   4.005  0.3479  1.0519 -1.1166
17734TIP3    H274694   6.282   0.596   3.995 -1.3473  0.8358 -0.2235
17735TIP3   OH274695   1.318   6.671  15.921  0.0261 -0.1331  0.0619
17735TIP3    H174696   1.320   6.576  15.918 -1.1956 -0.2055  1.1222
17735TIP3    H274697   1.227   6.694  15.907  0.3757  0.8997 -0.5694
17736TIP3   OH274698   2.666   3.898  12.380 -0.4810 -0.0711  0.2079
17736TIP3    H174699   2.617   3.838  12.324 -0.8134 -0.4582  0.9017
17736TIP3    H274700   2.598   3.946  12.427 -0.1968 -0.5288  1.0896
17737TIP3   OH274701   2.693   6.448   3.474 -0.1748  0.7576 -0.2440
17737TIP3    H174702   2.662   6.378   3.417 -1.0277  0.4425  0.6024
17737TIP3    H274703   2.661   6.425   3.561  0.7754  1.4472  0.2984
17738TIP3   OH274704   2.243   1.979  14.254  0.1670  0.1725  0.3534
17738TIP3    H174705   2.273   2.008  14.340  0.1768  2.0424 -0.2499
17738TIP3    H274706   2.189   1.903  14.272  1.6317 -0.5531  1.8533
17739TIP3   OH274707   0.043   5.791   4.116 -0.0950 -0.4014  0.3682
17739TIP3    H174708  -0.001   5.789   4.031  0.4447  0.8323  0.0531
17739TIP3    H274709  -0.009   5.732   4.171 -1.7491  0.5087 -0.1767
17740TIP3   OH274710   6.368   5.003   3.136  0.4579 -0.1766 -0.2125
17740TIP3    H174711   6.364   5.094   3.106  0.7298 -0.7894 -2.2024
17740TIP3    H274712   6.421   5.006   3.216  0.5721  1.4043 -0.3416
17741TIP3   OH274713   5.396   4.359   5.679 -0.9009  0.8704 -0.1105
17741TIP3    H174714   5.484   4.392   5.660 -0.9647  1.1829  0.1293
17741TIP3    H274715   5.343   4.438   5.686 -1.0433  0.7154  0.5353
17742TIP3   OH274716   4.515   5.311  15.924  0.0824  0.8164 -0.1036
17742TIP3    H174717   4.510   5.343  15.833  1.7664  1.5384  0.0178
17742TIP3    H274718   4.578   5.239  15.920  0.0425  0.7519  0.4514
17743TIP3   OH274719   2.271   0.988  14.465  0.4309  0.1208  0.2938
17743TIP3    H174720   2.330   0.920  14.431 -0.0627 -0.1955  0.0559
17743TIP3    H274721   2.257   1.047  14.391  0.9668  0.5546  0.5396
17744TIP3   OH274722   0.805   6.374  11.128 -0.1689 -0.3291 -0.5506
17744TIP3    H174723   0.749   6.441  11.090 -0.4869 -0.4830 -0.3596
17744TIP3    H274724   0.744   6.306  11.159  0.2325 -1.4641 -2.1798
17745TIP3   OH274725   2.541   3.089   1.006  0.9179 -0.4144  0.1359
17745TIP3    H174726   2.446   3.086   1.016  0.8524  1.2088  0.2673
17745TIP3    H274727   2.565   3.002   0.975 -0.5229 -1.0758  0.8195
17746TIP3   OH274728   3.231   4.362   0.937 -0.1785 -0.9725 -0.2221
17746TIP3    H174729   3.227   4.338   1.030 -0.3369  0.6467  0.1987
17746TIP3    H274730   3.145   4.337   0.902 -0.3679 -0.9519  0.2258
17747TIP3   OH274731   5.368   2.997  10.575 -0.6030 -0.2317  0.2690
17747TIP3    H174732   5.372   2.987  10.670  0.1804 -0.4369  0.2158
17747TIP3    H274733   5.338   3.088  10.561 -0.7551 -0.2165  0.7075
17748TIP3   OH274734   6.423   2.725  17.185  0.2513 -0.1728 -0.1068
17748TIP3    H174735   6.436   2.755  17.095  2.4436  1.8591  0.8434
17748TIP3    H274736   6.490   2.658  17.198 -0.1703 -0.5827 -0.0491
17749TIP3   OH274737   0.340   5.770  10.771 -0.1572 -0.6148 -0.4048
17749TIP3    H174738   0.296   5.753  10.854 -0.0166  0.7165 -0.0566
17749TIP3    H274739   0.275   5.815  10.718  0.3512  0.1742 -0.3612
17750TIP3   OH274740   4.225   3.331   1.778  0.2191 -0.7485  0.6638
17750TIP3    H174741   4.220   3.270   1.851 -1.5944 -0.5773  0.7097
17750TIP3    H274742   4.192   3.282   1.703 -0.2686 -0.1558  0.4876
17751TIP3   OH274743   1.758   3.877  13.043 -0.9264 -0.0446 -0.6638
17751TIP3    H174744   1.832   3.825  13.012 -1.2914 -1.4138  0.6609
17751TIP3    H274745   1.753   3.858  13.137 -1.8433  1.4482 -0.3901
17752TIP3   OH274746   2.118   2.289  11.167 -0.0386  0.7458 -0.4849
17752TIP3    H174747   2.195   2.234  11.185 -1.2402 -0.9460 -0.4588
17752TIP3    H274748   2.144   2.342  11.091  1.6693  1.2540  0.4111
17753TIP3   OH274749   5.208   5.324   0.234 -0.3680 -0.9331 -0.2472
17753TIP3    H174750   5.225   5.416   0.213  2.0851 -0.9988  1.1955
17753TIP3    H274751   5.129   5.302   0.185  0.5433  1.1681 -2.7761
17754TIP3   OH274752   4.644   5.781  13.764 -0.3471 -0.2869 -0.1493
17754TIP3    H174753   4.567   5.728  13.742 -1.1974  0.3948  1.1178
17754TIP3    H274754   4.607   5.863  13.798  0.9486  0.3620 -0.2937
17755TIP3   OH274755   1.039   0.173   4.158  0.7754 -0.6030  0.0937
17755TIP3    H174756   0.985   0.251   4.150 -1.7504 -2.1134  1.7454
17755TIP3    H274757   1.092   0.187   4.236  0.6939 -0.3325  0.0982
17756TIP3   OH274758   2.306   5.230  16.252  0.1767 -0.4063  0.1367
17756TIP3    H174759   2.324   5.279  16.332  1.6266  1.5219 -1.3395
17756TIP3    H274760   2.249   5.288  16.201 -2.1512 -2.3316  0.4653
17757TIP3   OH274761   2.048   5.659   4.782 -0.0533 -0.4085 -0.1362
17757TIP3    H174762   1.980   5.598   4.807 -0.1650 -0.0780  0.3694
17757TIP3    H274763   2.023   5.742   4.822  0.1070 -0.0323 -0.7988
17758TIP3   OH274764   6.094   4.137  11.518 -0.1307  0.2003 -0.1545
17758TIP3    H174765   6.081   4.077  11.592 -0.6286 -0.7991 -1.0437
17758TIP3    H274766   6.166   4.194  11.546 -0.0937 -0.3776  0.9673
17759TIP3   OH274767   5.615   3.399   3.636  0.2182  0.3174  0.1822
17759TIP3    H174768   5.696   3.366   3.674  0.2924  1.6639  1.2253
17759TIP3    H274769   5.640   3.433   3.551  0.4227 -0.8461 -0.2329
17760TIP3   OH274770   2.366   6.660   5.350 -0.4271 -0.1193  0.2624
17760TIP3    H174771   2.414   6.740   5.328 -1.4419  0.5343  0.3947
17760TIP3    H274772   2.390   6.643   5.441 -0.5001  0.2429  0.3505
17761TIP3   OH274773   6.047   0.587   1.932  0.0052  0.1063 -0.2391
17761TIP3    H174774   6.050   0.496   1.903  1.1117  0.4466 -1.2295
17761TIP3    H274775   5.994   0.585   2.012  1.5193 -1.6772  0.7581
17762TIP3   OH274776   5.924   2.709  13.968 -0.0171  0.3282  0.1008
17762TIP3    H174777   6.019   2.714  13.977  0.4028 -1.9217 -2.3399
17762TIP3    H274778   5.908   2.723  13.874 -2.0478  0.2060  0.4031
17763TIP3   OH274779   0.911   6.369   2.490 -0.3072 -0.6291 -0.1122
17763TIP3    H174780   0.931   6.459   2.463 -0.4142 -0.7413 -0.5769
17763TIP3    H274781   0.883   6.326   2.409 -2.4274 -0.4942  0.5294
17764TIP3   OH274782   6.245   3.040  12.071 -0.9620  0.0574 -0.5829
17764TIP3    H174783   6.299   3.115  12.045  1.8174 -1.2527  1.2319
17764TIP3    H274784   6.307   2.968  12.082 -3.4433 -2.2690 -1.2137
17765TIP3   OH274785   3.567   1.996  13.440 -0.0214  0.3435 -0.1110
17765TIP3    H174786   3.624   1.931  13.400  0.0554  0.5129 -0.2794
17765TIP3    H274787   3.544   2.055  13.368 -1.4008 -0.4285 -0.3179
17766TIP3   OH274788   3.146   5.452   5.358 -0.2656  0.6275 -0.0734
17766TIP3    H174789   3.187   5.367   5.373  0.9253  1.1281 -0.3680
17766TIP3    H274790   3.115   5.480   5.444  0.1538  0.2952  0.1878
17767TIP3   OH274791   1.539   3.556  14.497  0.4103 -0.3519  0.7803
17767TIP3    H174792   1.573   3.587  14.412 -0.7504 -1.2553 -0.0260
17767TIP3    H274793   1.603   3.491  14.525  0.3427 -0.6950  0.1635
17768TIP3   OH274794   4.805   2.295  12.233  0.7437  0.1871  0.2334
17768TIP3    H174795   4.773   2.385  12.222 -0.0227  0.0864  1.4524
17768TIP3    H274796   4.895   2.305  12.263  1.1043  0.5269 -0.9602
17769TIP3   OH274797   0.756   5.340  12.210  0.4895  0.4128 -0.8484
17769TIP3    H174798   0.744   5.263  12.155  2.2423 -0.5432  0.0903
17769TIP3    H274799   0.788   5.408  12.150  0.1953  0.0509 -1.4181
17770TIP3   OH274800   5.705   4.589   4.715 -0.5343  0.0911 -0.2493
17770TIP3    H174801   5.666   4.663   4.762  0.8712  1.1646 -0.7244
17770TIP3    H274802   5.773   4.629   4.661 -1.2267 -1.2880 -2.1959
17771TIP3   OH274803   5.037   4.674  13.515  0.2517 -0.2105  0.1835
17771TIP3    H174804   5.051   4.631  13.599  0.3227  2.3442  1.5396
17771TIP3    H274805   5.116   4.726  13.500  0.2030 -0.5489 -1.4382
17772TIP3   OH274806   5.075   2.809  11.200  0.5806 -0.6821  0.0901
17772TIP3    H174807   5.138   2.744  11.168  0.9866 -0.5636  0.6450
17772TIP3    H274808   5.013   2.819  11.128  1.1450 -0.8720 -0.4299
17773TIP3   OH274809   3.500   1.499   5.250 -0.0338 -0.1185  0.6115
17773TIP3    H174810   3.412   1.461   5.244  0.4936 -1.4295  0.9823
17773TIP3    H274811   3.488   1.590   5.223 -0.9404 -1.1076 -2.6511
17774TIP3   OH274812   2.327   0.300   0.988  0.3136 -0.1536  0.2514
17774TIP3    H174813   2.236   0.329   0.989  0.7251  1.2147 -1.2932
17774TIP3    H274814   2.322   0.208   0.962 -0.4791  0.4815 -1.8934
17775TIP3   OH274815   4.886   1.780  15.378  0.6317  0.0608 -0.5793
17775TIP3    H174816   4.925   1.719  15.314  1.1577  1.0749 -1.2425
17775TIP3    H274817   4.923   1.865  15.355 -4.4095  1.7113 -3.3551
17776TIP3   OH274818   2.226   4.534   3.841 -0.5832  0.8892 -0.1672
17776TIP3    H174819   2.309   4.561   3.880 -0.2752  0.1175 -0.2909
17776TIP3    H274820   2.251   4.484   3.763 -1.1652  0.7665 -0.2760
17777TIP3   OH274821   3.754   2.876  13.510 -0.3218 -0.5829  0.2436
17777TIP3    H174822   3.700   2.890  13.432  0.0645 -0.1956  0.0386
17777TIP3    H274823   3.831   2.828  13.476 -1.1331 -2.2750  0.7542
17778TIP3   OH274824   3.171   1.205   4.994  0.3936  0.2553  0.9136
17778TIP3    H174825   3.154   1.194   5.088 -2.4614  2.9953  0.8089
17778TIP3    H274826   3.093   1.169   4.952  1.5847 -0.7971 -0.4333
17779TIP3   OH274827   5.838   2.101   0.176  0.2089  0.2379 -0.1427
17779TIP3    H174828   5.859   2.144   0.258 -0.7723 -0.9912  0.7665
17779TIP3    H274829   5.829   2.173   0.113 -0.7052  1.3180  1.1914
17780TIP3   OH274830   2.025   0.274  13.754  0.4262 -0.1395  0.3698
17780TIP3    H174831   2.027   0.313  13.841 -1.2697  0.1361  0.3015
17780TIP3    H274832   1.954   0.320  13.709  1.4455 -0.0993 -1.2379
17781TIP3   OH274833   2.110   6.476  15.778 -0.1026  0.6499 -0.4141
17781TIP3    H174834   2.133   6.569  15.780 -0.9315  0.8491  1.5664
17781TIP3    H274835   2.014   6.476  15.784 -0.1683 -0.3264 -1.3235
17782TIP3   OH274836   4.875   2.187   5.299  0.5982 -0.2969  0.7190
17782TIP3    H174837   4.869   2.094   5.320 -1.4408 -0.5298 -0.6653
17782TIP3    H274838   4.849   2.232   5.379  1.7159 -0.8988  1.4342
17783TIP3   OH274839   3.429   6.319   5.056  0.6863 -0.6422  0.6056
17783TIP3    H174840   3.355   6.297   5.113  1.1090  0.5524  1.6273
17783TIP3    H274841   3.403   6.400   5.013  0.8214 -0.9684 -0.0999
17784TIP3   OH274842   3.237   6.656   4.365 -0.2651 -0.1915 -0.0712
17784TIP3    H174843   3.192   6.615   4.439 -0.7206  1.7801  0.7932
17784TIP3    H274844   3.170   6.661   4.296 -0.2729 -0.6792 -0.0998
17785TIP3   OH274845   0.098   6.634   2.645  0.5018 -0.2489  0.6477
17785TIP3    H174846   0.065   6.713   2.602 -0.5150 -0.0064  1.8461
17785TIP3    H274847   0.191   6.632   2.623 -0.3839 -1.3459 -3.4312
17786TIP3   OH274848   0.401   3.475  16.303 -0.1619  0.2087 -0.1014
17786TIP3    H174849   0.335   3.457  16.236  0.4182 -4.2912  0.4375
17786TIP3    H274850   0.350   3.489  16.383 -0.6477  1.5071 -0.6216
17787TIP3   OH274851   5.864   3.813  12.475  0.4810 -0.6947 -0.0335
17787TIP3    H174852   5.903   3.894  12.506  2.2628 -1.7262  0.5044
17787TIP3    H274853   5.788   3.840  12.424  1.1444  1.2990  0.0183
17788TIP3   OH274854   4.050   1.218  14.547 -0.0236 -0.0416 -0.1028
17788TIP3    H174855   3.959   1.192  14.531  0.0996  0.5383 -1.8400
17788TIP3    H274856   4.092   1.140  14.580 -0.1849 -1.4772 -3.1453
17789TIP3   OH274857   4.292   6.385   4.454  0.4027 -0.2467  0.0982
17789TIP3    H174858   4.364   6.357   4.512  1.0175 -0.0784 -0.5802
17789TIP3    H274859   4.219   6.329   4.479  0.9140 -0.7634  0.4586
17790TIP3   OH274860   4.572   0.644  10.270  0.0542 -0.2783  0.3192
17790TIP3    H174861   4.481   0.666  10.250 -0.2724 -0.4161  1.5642
17790TIP3    H274862   4.567   0.555  10.305  0.9944 -1.2427 -1.9168
17791TIP3   OH274863   3.172   0.943   5.631  0.1187  0.1685  1.0314
17791TIP3    H174864   3.227   0.922   5.706  0.5951  0.2432  0.7010
17791TIP3    H274865   3.214   1.019   5.590 -0.7552  0.8416  1.3393
17792TIP3   OH274866   3.769   3.160   4.787  0.2153  0.3115  0.1927
17792TIP3    H174867   3.746   3.233   4.844  0.6868  0.1452  0.5983
17792TIP3    H274868   3.691   3.146   4.733 -0.1192  0.6681  0.5835
17793TIP3   OH274869   0.916   5.563   0.415 -0.0056 -0.4738  0.4628
17793TIP3    H174870   0.910   5.549   0.510 -2.8193 -1.3656  0.2037
17793TIP3    H274871   0.895   5.655   0.403  2.0189  0.0523  0.8222
17794TIP3   OH274872   5.945   4.706  13.995 -0.1345 -0.2251 -0.0154
17794TIP3    H174873   5.948   4.776  13.930  1.0774  0.4050  0.6840
17794TIP3    H274874   5.877   4.733  14.056 -2.0854 -1.3848 -1.6065
17795TIP3   OH274875   0.506   5.861  14.507 -0.0153 -0.4589  0.1518
17795TIP3    H174876   0.421   5.903  14.520 -0.7366 -1.8803  0.2122
17795TIP3    H274877   0.484   5.769  14.491  1.5788 -1.1473  1.7180
17796TIP3   OH274878   5.839   1.148   6.130 -0.5457  0.2730 -0.2995
17796TIP3    H174879   5.752   1.154   6.091 -0.1919  0.2202 -1.1103
17796TIP3    H274880   5.824   1.107   6.215 -1.4272  1.1163 -0.0456
17797TIP3   OH274881   0.506   6.138  13.776  0.0171  0.4510 -0.2870
17797TIP3    H174882   0.567   6.160  13.705 -0.1855  2.8045  0.2255
17797TIP3    H274883   0.480   6.048  13.758  1.4748  0.3567 -2.1034
17798TIP3   OH274884   2.425   6.812  16.489 -0.0526  0.5388  0.3356
17798TIP3    H174885   2.463   6.800  16.576  1.1694 -0.3187 -0.3029
17798TIP3    H274886   2.439   6.904  16.469 -0.7501  0.8498  1.2305
17799TIP3   OH274887   3.231   2.828  13.709 -0.0072 -0.1069 -0.1513
17799TIP3    H174888   3.171   2.790  13.773 -0.7795 -0.5004 -1.0974
17799TIP3    H274889   3.245   2.759  13.645 -2.6131  1.6064 -2.7079
17800TIP3   OH274890   2.523   1.790   3.993  0.5269 -0.5059  0.1346
17800TIP3    H174891   2.562   1.852   4.054 -1.5303 -0.6441  1.6431
17800TIP3    H274892   2.521   1.707   4.040  0.8732 -1.1277 -0.9164
17801TIP3   OH274893   4.439   5.238   4.106 -0.2530  0.4731 -0.6375
17801TIP3    H174894   4.480   5.171   4.051 -0.8000 -0.5255  0.1397
17801TIP3    H274895   4.447   5.319   4.056  1.1108 -0.0297 -1.2548
17802TIP3   OH274896   2.870   1.871   2.631  0.1106 -0.2786 -0.7492
17802TIP3    H174897   2.787   1.833   2.600  0.8336 -2.1444 -0.4994
17802TIP3    H274898   2.874   1.957   2.591 -1.0015 -0.9655 -2.4035
17803TIP3   OH274899   4.465   1.770  16.255  0.0096 -0.3069  0.2915
17803TIP3    H174900   4.527   1.699  16.272  0.9153  0.9166  2.4602
17803TIP3    H274901   4.499   1.814  16.177  2.1531  0.5724  1.6572
17804TIP3   OH274902   3.922   4.497   3.875 -0.3362 -0.1087 -0.7929
17804TIP3    H174903   3.862   4.423   3.870 -1.4064  0.8034 -1.4396
17804TIP3    H274904   3.930   4.515   3.969 -2.5609  0.9745 -0.7829
17805TIP3   OH274905   3.194   6.533   0.082  0.2591 -0.2837 -0.4453
17805TIP3    H174906   3.199   6.555  -0.011  1.9499  1.3929  0.0097
17805TIP3    H274907   3.155   6.610   0.123  1.1998 -0.2686  0.4568
17806TIP3   OH274908   2.817   2.423   1.464 -0.3106  0.2317 -0.2934
17806TIP3    H174909   2.848   2.476   1.391  1.1979  0.5519  0.5572
17806TIP3    H274910   2.836   2.333   1.438 -0.0283  0.3232 -0.4026
17807TIP3   OH274911   1.924   6.362   0.753  0.1678  0.0258 -0.1730
17807TIP3    H174912   1.985   6.430   0.780  0.8916 -0.7152  0.0445
17807TIP3    H274913   1.848   6.374   0.810 -0.0736  1.2065 -0.7215
17808TIP3   OH274914   2.403   5.725  15.099  0.5666  0.0364 -0.3638
17808TIP3    H174915   2.416   5.638  15.061  1.0089  0.5638 -1.4459
17808TIP3    H274916   2.360   5.775  15.030 -0.9312  0.2937  0.7441
17809TIP3   OH274917   6.247   4.910   1.820 -0.1586 -0.6692  0.3430
17809TIP3    H174918   6.230   4.864   1.738 -0.1416 -0.5501  0.2743
17809TIP3    H274919   6.270   4.999   1.795 -0.5747 -0.5167  0.4992
17810TIP3   OH274920   6.196   6.553  12.168 -0.1974 -0.4856  0.3018
17810TIP3    H174921   6.193   6.467  12.126  1.0815 -0.2117 -0.3469
17810TIP3    H274922   6.140   6.543  12.246 -4.5673 -0.3293 -2.6623
17811TIP3   OH274923   5.867   2.250   0.393  0.5039 -0.2545  0.2409
17811TIP3    H174924   5.868   2.339   0.430  1.0516 -0.3605  0.4870
17811TIP3    H274925   5.784   2.213   0.421  0.2139  0.2235  0.0337
17812TIP3   OH274926   6.370   5.219  10.887  0.3062 -0.4526 -0.0885
17812TIP3    H174927   6.280   5.246  10.905  0.2533 -0.5368 -0.2206
17812TIP3    H274928   6.412   5.213  10.973 -0.0934 -1.3929  0.0358
17813TIP3   OH274929   2.444   0.093   4.119  0.1824 -0.6011 -0.3764
17813TIP3    H174930   2.375   0.159   4.128  4.2097  3.6278  1.4281
17813TIP3    H274931   2.455   0.083   4.024 -1.0429  0.7343 -0.6827
17814TIP3   OH274932   0.656   0.671   6.230 -0.4500  0.3594  0.2312
17814TIP3    H174933   0.705   0.610   6.285 -0.9733  0.3796  0.7186
17814TIP3    H274934   0.686   0.758   6.257  0.1733  0.3261 -0.3468
17815TIP3   OH274935   1.410   6.164   1.569  0.8884  0.5835  0.0172
17815TIP3    H174936   1.401   6.077   1.609 -0.3420 -0.0775 -1.6386
17815TIP3    H274937   1.394   6.225   1.641  1.7975 -0.5376  1.2111
17816TIP3   OH274938   6.086   3.487  16.071  0.2695  0.5649 -0.7926
17816TIP3    H174939   6.171   3.446  16.055 -0.3965 -0.3476 -2.1467
17816TIP3    H274940   6.022   3.420  16.047 -0.8350  1.4790 -0.4621
17817TIP3   OH274941   0.262   0.911  16.993 -0.0146 -0.2792 -0.5381
17817TIP3    H174942   0.262   0.822  16.958  2.5008 -0.2468 -0.7175
17817TIP3    H274943   0.238   0.966  16.919  1.3956 -0.5533 -1.2057
17818TIP3   OH274944   0.051   1.315  12.864  0.0481 -0.2499  0.4542
17818TIP3    H174945   0.081   1.323  12.774  0.3093 -0.7897  0.4940
17818TIP3    H274946  -0.029   1.367  12.867 -1.4289 -2.3500 -0.7689
17819TIP3   OH274947   1.835   6.025  15.068  0.2513 -0.0148 -0.1548
17819TIP3    H174948   1.920   6.059  15.039 -0.1441  1.5456  0.4520
17819TIP3    H274949   1.802   5.976  14.994  0.2329  2.1156 -1.6105
17820TIP3   OH274950   1.186   2.300  11.758 -0.0426  0.3376  0.2231
17820TIP3    H174951   1.095   2.277  11.779  0.3103 -1.1428  0.1369
17820TIP3    H274952   1.236   2.273  11.834  0.4410  0.4355 -0.0616
17821TIP3   OH274953   2.072   5.258  13.607  0.1581 -0.6342 -0.1403
17821TIP3    H174954   2.079   5.229  13.516 -0.8874 -1.9774  0.1972
17821TIP3    H274955   2.021   5.190  13.651 -1.8807  1.4559  0.8178
17822TIP3   OH274956   6.766   5.893   6.596  0.1391  0.3196  0.5292
17822TIP3    H174957   6.754   5.798   6.599  0.0700  0.2909 -0.6383
17822TIP3    H274958   6.689   5.926   6.549 -0.3988  1.0677  1.8989
17823TIP3   OH274959   5.544   3.618   2.329 -0.0800  0.0272 -0.4243
17823TIP3    H174960   5.575   3.606   2.239  2.3432  0.1756  0.3749
17823TIP3    H274961   5.454   3.583   2.327  0.8348 -2.3956 -2.2632
17824TIP3   OH274962   1.591   4.857  14.643  0.0542  0.2041  0.4605
17824TIP3    H174963   1.502   4.858  14.676  0.8285  0.2440  2.6564
17824TIP3    H274964   1.630   4.939  14.676  0.4308  0.9983 -1.8566
17825TIP3   OH274965   3.802   0.653   2.168  0.3395 -0.5987  0.1310
17825TIP3    H174966   3.822   0.733   2.119 -2.3894 -0.4623 -0.8407
17825TIP3    H274967   3.800   0.681   2.259  0.2860  0.2385 -0.1230
17826TIP3   OH274968   1.698   1.455  12.098  0.2835  0.0467 -0.5410
17826TIP3    H174969   1.702   1.420  12.009  1.7648 -1.8342  0.2120
17826TIP3    H274970   1.721   1.548  12.088 -0.2118  0.0108 -2.1831
17827TIP3   OH274971   0.445   4.330   3.224 -0.2847  0.0401  0.3225
17827TIP3    H174972   0.475   4.332   3.133  0.0916  0.0224  0.4448
17827TIP3    H274973   0.450   4.238   3.249  1.8826  0.3344  1.1026
17828TIP3   OH274974   2.647   3.798  15.498  0.4071 -0.1614 -0.1204
17828TIP3    H174975   2.742   3.795  15.513  0.6934 -0.3240 -1.7553
17828TIP3    H274976   2.625   3.708  15.473 -0.3321 -0.3177  1.1151
17829TIP3   OH274977   6.732   5.798  13.021 -0.0039 -0.2529 -0.3043
17829TIP3    H174978   6.785   5.777  12.944  1.2277 -0.5201  0.6031
17829TIP3    H274979   6.769   5.743  13.091  1.9624  3.3370  1.6111
17830TIP3   OH274980   6.098   6.024  13.198  0.2676 -0.2785  0.0229
17830TIP3    H174981   6.124   6.059  13.112  0.0082  1.8138  0.7823
17830TIP3    H274982   6.100   6.099  13.256 -0.9565 -1.4217  1.5674
17831TIP3   OH274983   3.675   5.348   5.167 -0.0109 -0.2307  0.0823
17831TIP3    H174984   3.736   5.326   5.097 -1.1707  1.2099 -1.4357
17831TIP3    H274985   3.725   5.335   5.248  1.2523 -2.2237 -0.9773
17832TIP3   OH274986   2.114   4.405  16.075 -0.3649  0.1048  0.5140
17832TIP3    H174987   2.019   4.415  16.069 -0.4280 -1.0364 -0.4953
17832TIP3    H274988   2.148   4.466  16.009 -0.5067 -1.4332 -1.0053
17833TIP3   OH274989   0.957   0.021   4.748  0.4065  0.7026 -0.8183
17833TIP3    H174990   0.950   0.116   4.738 -0.2124  0.6858 -0.5199
17833TIP3    H274991   0.883  -0.004   4.803  0.1489 -0.0455 -1.4923
17834TIP3   OH274992   2.309   3.079  17.064 -0.2151  0.4686  0.0024
17834TIP3    H174993   2.215   3.075  17.043  0.2077  0.3841 -1.9963
17834TIP3    H274994   2.313   3.123  17.149 -2.0904  0.1185  0.2869
17835TIP3   OH274995   1.040   3.027   1.293 -0.6558  0.1337 -0.0016
17835TIP3    H174996   1.035   2.955   1.229 -1.7955  0.7111 -0.5831
17835TIP3    H274997   1.024   3.106   1.241 -1.9989  0.5699  1.0535
17836TIP3   OH274998   1.283   3.861   5.502  0.0176  0.1465 -0.2766
17836TIP3    H174999   1.251   3.854   5.592  0.1856  0.2084 -0.2120
17836TIP3    H275000   1.219   3.916   5.458 -0.3218 -0.2775 -0.3176
17837TIP3   OH275001   1.416   2.619  15.090 -0.1331 -0.6070 -0.0002
17837TIP3    H175002   1.403   2.565  15.169 -0.3468  0.8652  0.9842
17837TIP3    H275003   1.415   2.709  15.122  1.7239 -0.0457 -1.4118
17838TIP3   OH275004   1.893   3.733   0.060 -0.4436 -0.5146 -0.0531
17838TIP3    H175005   1.868   3.821   0.032 -0.8556 -0.1651  1.3534
17838TIP3    H275006   1.962   3.748   0.125  0.2656 -1.2856 -0.6135
17839TIP3   OH275007   0.360   0.606  16.449  0.3654 -0.0227 -0.1421
17839TIP3    H175008   0.276   0.574  16.415 -0.3616  0.2917  1.3158
17839TIP3    H275009   0.415   0.527  16.454  1.7552  0.4296 -5.4251
17840TIP3   OH275010   5.990   0.386   1.306 -0.1800 -0.3924  0.6057
17840TIP3    H175011   6.079   0.407   1.333  0.0047  0.3782 -0.5409
17840TIP3    H275012   5.966   0.458   1.247 -0.6917 -1.7887 -0.9248
17841TIP3   OH275013   4.610   1.606  16.504  0.1052 -0.2728  0.4319
17841TIP3    H175014   4.637   1.583  16.592  2.6251  2.2367  0.4120
17841TIP3    H275015   4.530   1.658  16.516 -0.9758 -2.0615  1.0287
17842TIP3   OH275016   3.309   4.688   2.759  0.5617 -1.0255 -0.0512
17842TIP3    H175017   3.346   4.724   2.840 -0.9064  1.0450 -0.2540
17842TIP3    H275018   3.380   4.692   2.695  0.3960  1.7150 -0.1056
17843TIP3   OH275019   3.677   1.268   5.358  0.0610 -0.5268 -0.1465
17843TIP3    H175020   3.632   1.311   5.286  0.0227  3.1030  1.8877
17843TIP3    H275021   3.611   1.211   5.397 -1.1008  0.5005 -0.5837
17844TIP3   OH275022   5.799   5.378   5.682 -0.1796 -0.1750  0.5347
17844TIP3    H175023   5.889   5.362   5.710  0.2661  0.3581 -0.5467
17844TIP3    H275024   5.795   5.473   5.668 -1.0078 -0.1497  0.9167
17845TIP3   OH275025   5.789   2.022  10.429  0.3060 -0.1429 -0.2790
17845TIP3    H175026   5.792   2.118  10.432 -1.2936 -0.1188  1.7341
17845TIP3    H275027   5.853   1.994  10.495  1.5421 -0.5060 -1.6044
17846TIP3   OH275028   5.891   2.107  13.760 -0.7336 -0.4062  0.0891
17846TIP3    H175029   5.890   2.111  13.856 -0.0501 -0.9528  0.1191
17846TIP3    H275030   5.799   2.101  13.735 -0.8310 -2.1446  0.7901
17847TIP3   OH275031   4.273   3.731   3.640 -0.1940  0.0821 -0.3645
17847TIP3    H175032   4.252   3.751   3.548 -1.2274 -1.5393 -0.5083
17847TIP3    H275033   4.194   3.687   3.673  1.4166 -2.3594  0.3423
17848TIP3   OH275034   0.406   3.151   5.433  0.0365 -0.3240 -0.2161
17848TIP3    H175035   0.319   3.164   5.471  0.4792  0.2927  0.6176
17848TIP3    H275036   0.401   3.191   5.346 -0.5765 -0.4745 -0.2501
17849TIP3   OH275037   3.489   6.309  11.049 -0.1676 -0.4297 -0.2492
17849TIP3    H175038   3.441   6.356  10.981 -1.7268  1.3603  2.0137
17849TIP3    H275039   3.427   6.301  11.121  2.0076 -0.6227  1.6794
17850TIP3   OH275040   3.636   2.614  11.683 -0.1057  0.2498  0.1140
17850TIP3    H175041   3.570   2.680  11.704  0.1227  0.5566 -0.1257
17850TIP3    H275042   3.589   2.548  11.632 -0.3424  0.2139  0.3828
17851TIP3   OH275043   6.659   0.544   0.661  0.3956 -0.3242  0.3164
17851TIP3    H175044   6.638   0.620   0.716  1.6820 -0.5434  1.1132
17851TIP3    H275045   6.694   0.582   0.580  1.7895 -0.0692  1.0263
17852TIP3   OH275046   4.904   6.030  16.227  0.2550  0.6008  0.3986
17852TIP3    H175047   4.925   6.030  16.134 -0.1083  1.8350  0.3069
17852TIP3    H275048   4.836   6.096  16.237  0.0084  0.2075  1.4818
17853TIP3   OH275049   4.079   4.947  12.252 -0.2391  0.4186  0.0272
17853TIP3    H175050   4.069   5.004  12.328 -0.8187  2.3997 -1.4695
17853TIP3    H275051   3.991   4.941  12.215  0.0226 -0.5807 -0.4623
17854TIP3   OH275052   3.772   1.880  15.716 -0.4745 -0.2046  0.0264
17854TIP3    H175053   3.711   1.916  15.652 -0.5613 -0.7044 -0.1689
17854TIP3    H275054   3.845   1.846  15.665 -0.2259  0.0134  0.2346
17855TIP3   OH275055   5.267   6.448   2.379 -0.3306 -0.4861  0.5244
17855TIP3    H175056   5.172   6.442   2.370 -0.1795 -1.0778 -0.8835
17855TIP3    H275057   5.285   6.542   2.380 -0.8746 -0.3728  0.0855
17856TIP3   OH275058   6.068   2.506  11.594 -0.3078 -0.0178 -0.0880
17856TIP3    H175059   6.035   2.540  11.511 -1.2329  0.6602  0.5453
17856TIP3    H275060   6.123   2.576  11.628  0.4600 -0.4862 -0.3481
17857TIP3   OH275061   4.657   6.186   0.637  1.1217  1.3544  0.0644
17857TIP3    H175062   4.735   6.239   0.621  1.9493 -0.0939 -0.8283
17857TIP3    H275063   4.666   6.112   0.577 -0.6469  0.8673  0.3840
17858TIP3   OH275064   2.045   5.235   1.367  0.1004 -0.1315  0.6673
17858TIP3    H175065   2.018   5.194   1.285 -0.6236 -1.4232  1.5498
17858TIP3    H275066   2.004   5.322   1.365  0.5533  0.0595 -0.5890
17859TIP3   OH275067   3.766   4.590  17.098  0.4838  0.7886 -0.2733
17859TIP3    H175068   3.744   4.669  17.048 -0.0093  0.0831 -1.1867
17859TIP3    H275069   3.687   4.570  17.147  0.4817  0.6576 -0.3283
17860TIP3   OH275070   3.054   3.389  13.384 -0.0849 -0.1995 -0.8727
17860TIP3    H175071   3.003   3.470  13.376 -0.5910 -0.6326 -2.0932
17860TIP3    H275072   3.030   3.354  13.470 -1.2868 -0.0194 -1.1311
17861TIP3   OH275073   0.081   3.298  16.347  0.7858 -0.1888 -0.1082
17861TIP3    H175074   0.140   3.320  16.419 -0.7505 -0.1230  1.1584
17861TIP3    H275075   0.111   3.352  16.274  3.4006 -1.4715 -0.0439
17862TIP3   OH275076   1.164   3.501   2.955  0.1735  0.2264 -0.0933
17862TIP3    H175077   1.101   3.533   2.890  0.1194  0.8170  0.2387
17862TIP3    H275078   1.230   3.454   2.904 -0.6687 -0.6131 -0.4158
17863TIP3   OH275079   4.997   1.853  16.758  0.0636 -0.0310 -0.2164
17863TIP3    H175080   5.020   1.760  16.752 -1.8954 -0.5194 -0.2806
17863TIP3    H275081   4.907   1.858  16.727 -0.1762  1.7591  0.6901
17864TIP3   OH275082   3.830   0.175  13.052  0.0322 -0.0962  0.5185
17864TIP3    H175083   3.919   0.140  13.052 -0.1336 -0.5202  0.4467
17864TIP3    H275084   3.818   0.212  13.140  0.8156  1.3397  0.0361
17865TIP3   OH275085   1.835   6.759   2.208  0.1516  0.2489 -0.2908
17865TIP3    H175086   1.887   6.692   2.251 -0.2889 -0.4048 -0.7647
17865TIP3    H275087   1.753   6.762   2.257 -0.5094 -0.7784 -1.3075
17866TIP3   OH275088   3.682   0.387  11.017 -0.5159 -0.3713  0.2432
17866TIP3    H175089   3.602   0.397  10.964  0.0671 -0.6145 -0.6898
17866TIP3    H275090   3.657   0.420  11.103 -1.4710  0.0565 -0.1823
17867TIP3   OH275091   6.608   4.320  11.105  0.5152  0.3418  0.6970
17867TIP3    H175092   6.546   4.328  11.032 -0.0438 -3.1353  0.7252
17867TIP3    H275093   6.558   4.349  11.182 -1.1729 -2.5526  0.7388
17868TIP3   OH275094   1.318   5.126  14.977  0.1694  0.2084 -0.0627
17868TIP3    H175095   1.276   5.211  14.985  0.5847  0.4363 -0.3074
17868TIP3    H275096   1.281   5.074  15.048 -1.2900  0.0888 -0.8826
17869TIP3   OH275097   5.791   2.876  13.704  0.4316  0.1830  0.4253
17869TIP3    H175098   5.761   2.916  13.622  0.5765 -0.9756 -0.2012
17869TIP3    H275099   5.713   2.873  13.760  0.3009  0.8378  0.2804
17870TIP3   OH275100   3.827   0.343  11.287 -0.0039 -0.3196  0.3907
17870TIP3    H175101   3.877   0.295  11.353 -2.1961 -1.6017  1.1920
17870TIP3    H275102   3.737   0.343  11.320 -0.5835  1.8038 -1.0593
17871TIP3   OH275103   1.584   3.793   0.929 -0.0547 -0.1227  0.4620
17871TIP3    H175104   1.601   3.815   0.837  0.9185  2.2739  1.1822
17871TIP3    H275105   1.665   3.755   0.961 -0.3840 -0.9300  0.3482
17872TIP3   OH275106   4.447   2.698  16.543 -0.2266 -0.2565 -0.3128
17872TIP3    H175107   4.417   2.629  16.603 -0.4674  0.6143  0.5941
17872TIP3    H275108   4.504   2.753  16.597 -0.9019  0.8701 -0.7256
17873TIP3   OH275109   2.646   6.736   6.070  0.0670  0.4598 -0.1208
17873TIP3    H175110   2.616   6.780   5.990  0.4476 -0.5985 -0.8546
17873TIP3    H275111   2.569   6.687   6.100 -0.0466  0.7776  0.1151
17874TIP3   OH275112   2.933   6.420   4.761  0.5885  0.4309 -0.3698
17874TIP3    H175113   2.840   6.403   4.780  0.8374 -0.2551  0.2777
17874TIP3    H275114   2.948   6.378   4.676  0.2614  0.6974 -0.5598
17875TIP3   OH275115   5.541   4.397  13.655  0.1043 -0.1565 -0.3091
17875TIP3    H175116   5.531   4.302  13.657 -1.8487  0.0373  0.6340
17875TIP3    H275117   5.597   4.417  13.729  2.0372 -0.7025 -1.5828
17876TIP3   OH275118   3.953   0.809  12.666 -0.5113  0.0870 -0.5332
17876TIP3    H175119   3.959   0.878  12.732 -1.1541 -1.2627  0.9880
17876TIP3    H275120   4.043   0.777  12.657 -0.4908 -0.0225  0.0348
17877TIP3   OH275121   0.925   1.780  16.010 -0.6619 -0.2212 -0.9867
17877TIP3    H175122   0.924   1.868  16.047 -1.9403 -0.4568 -0.4219
17877TIP3    H275123   0.949   1.792  15.919  1.0454  0.5220 -0.4655
17878TIP3   OH275124   0.004   1.396   5.526  0.0933  0.2976 -0.1524
17878TIP3    H175125  -0.085   1.386   5.558 -0.2197  1.9069 -0.4432
17878TIP3    H275126   0.006   1.347   5.444 -0.4185 -0.0357  0.0337
17879TIP3   OH275127   4.933   3.421  15.763 -0.1064  0.2327 -0.8059
17879TIP3    H175128   4.939   3.355  15.831  1.6652  1.2282  0.0263
17879TIP3    H275129   4.876   3.489  15.800  2.0773  1.4937  0.3267
17880TIP3   OH275130   0.378   5.761   0.159  0.0152 -0.2708 -0.2106
17880TIP3    H175131   0.370   5.847   0.199 -1.3929 -0.0465 -0.9554
17880TIP3    H275132   0.452   5.720   0.205 -1.3912  0.0513  2.4217
17881TIP3   OH275133   3.400   5.897   5.731  0.2448 -0.0416 -0.2929
17881TIP3    H175134   3.477   5.945   5.702  1.2149 -0.6613  1.2169
17881TIP3    H275135   3.432   5.808   5.747 -1.4348 -1.1431 -2.6785
17882TIP3   OH275136   5.344   3.094  12.401 -0.0352  0.2597  0.5028
17882TIP3    H175137   5.307   3.123  12.484 -2.8145  1.3631 -1.0255
17882TIP3    H275138   5.345   2.999  12.406 -0.9758  0.2911  1.5144
17883TIP3   OH275139   3.204   2.329   0.269 -0.0745 -0.0253 -0.3414
17883TIP3    H175140   3.111   2.309   0.257 -0.4409  0.6394  1.2292
17883TIP3    H275141   3.214   2.419   0.238  0.2411 -0.4367 -1.4197
17884TIP3   OH275142   5.091   4.331   3.831 -0.0871 -0.0516 -0.2178
17884TIP3    H175143   5.067   4.246   3.793 -1.4064  1.2667 -2.4408
17884TIP3    H275144   5.177   4.316   3.870 -0.2633 -2.3935 -0.6352
17885TIP3   OH275145   3.604   0.705  12.420 -0.1952  0.1572 -0.2056
17885TIP3    H175146   3.566   0.687  12.505  0.5931 -1.7456 -0.2413
17885TIP3    H275147   3.632   0.797  12.426 -0.0820  0.0265  1.5973
17886TIP3   OH275148   6.585   1.701   3.121 -0.1905  0.6714  0.1540
17886TIP3    H175149   6.532   1.636   3.074  0.2030 -0.1487  0.8369
17886TIP3    H275150   6.627   1.752   3.052 -0.5731  0.2581 -0.3931
17887TIP3   OH275151   4.916   5.334  13.631 -0.0042 -0.2932 -0.4510
17887TIP3    H175152   4.878   5.418  13.654  0.2374 -0.9306  2.4117
17887TIP3    H275153   4.844   5.285  13.590  0.0768  1.5422 -2.9269
17888TIP3   OH275154   3.930   6.021  15.619 -0.5973 -0.0239 -0.2861
17888TIP3    H175155   4.015   5.999  15.581  0.3071  0.2598  1.5417
17888TIP3    H275156   3.938   6.113  15.645 -1.8336  0.3275 -1.0784
17889TIP3   OH275157   6.215   5.995   2.635  0.6982  0.3523  0.1911
17889TIP3    H175158   6.245   5.996   2.545  0.9537  0.3419  0.2753
17889TIP3    H275159   6.120   6.003   2.629  0.5326 -1.5758 -0.1638
17890TIP3   OH275160   3.512   1.440  14.438 -0.4558 -0.5826  0.0520
17890TIP3    H175161   3.583   1.500  14.418  0.4799 -1.3748  0.9650
17890TIP3    H275162   3.513   1.432  14.534 -2.1029 -0.1927  0.1221
17891TIP3   OH275163   1.947   2.534   3.524  0.1892 -0.1037 -0.0979
17891TIP3    H175164   2.016   2.511   3.586 -0.1047 -0.3041  0.1559
17891TIP3    H275165   1.884   2.462   3.529  0.0553 -0.0151 -0.4669
17892TIP3   OH275166   6.540   4.130  14.971 -0.1799  1.0019  0.1940
17892TIP3    H175167   6.587   4.132  15.055 -2.8673  0.9705  1.7635
17892TIP3    H275168   6.492   4.047  14.973  1.3819  0.0005 -2.3579
17893TIP3   OH275169   3.531   6.081  15.250 -0.0592 -0.0890 -0.2755
17893TIP3    H175170   3.589   6.114  15.319  1.5261 -0.9304 -1.1739
17893TIP3    H275171   3.516   6.157  15.194 -0.7693  0.4184  0.5878
17894TIP3   OH275172   6.095   5.861   3.232  0.3447  0.1946 -0.1080
17894TIP3    H175173   6.154   5.915   3.284 -0.8235  0.2281  1.1891
17894TIP3    H275174   6.012   5.910   3.231 -0.6088 -1.3601  0.7486
17895TIP3   OH275175   3.747   2.964  16.815  0.1319 -0.6013  0.1422
17895TIP3    H175176   3.722   2.953  16.907  0.0360 -0.1411  0.1704
17895TIP3    H275177   3.665   2.952  16.767 -0.0452  0.3525  0.1967
17896TIP3   OH275178   4.405   6.338   3.789  0.8518 -0.1486  0.1383
17896TIP3    H175179   4.464   6.371   3.722 -0.8340  0.3693 -1.1128
17896TIP3    H275180   4.355   6.415   3.816 -0.0197 -0.8017  0.3962
17897TIP3   OH275181   3.109   4.312  15.844 -0.1383 -0.3114 -0.8109
17897TIP3    H175182   3.135   4.223  15.822 -1.0209 -1.0277  0.9917
17897TIP3    H275183   3.036   4.331  15.786 -0.1405 -0.8679 -0.9910
17898TIP3   OH275184   6.790   3.735   0.723 -0.2125 -0.0619 -0.4622
17898TIP3    H175185   6.845   3.675   0.772  0.7363  1.7659  0.7794
17898TIP3    H275186   6.850   3.778   0.662 -0.4975  1.0446  0.0339
17899TIP3   OH275187   2.012   1.045  14.271 -0.6032 -0.1277 -0.2033
17899TIP3    H175188   1.992   1.139  14.274 -0.0968  0.0194 -1.1817
17899TIP3    H275189   2.044   1.030  14.182 -1.2228 -1.3438 -0.2333
17900TIP3   OH275190   6.171   0.839   4.280  0.0266 -0.0239  0.0954
17900TIP3    H175191   6.165   0.934   4.270  2.2063 -0.0357 -1.5874
17900TIP3    H275192   6.154   0.823   4.373 -2.8756  1.7602 -0.0770
17901TIP3   OH275193   6.467   1.531  16.642  0.3012 -0.0938  0.1713
17901TIP3    H175194   6.538   1.503  16.584 -1.0057 -2.2774 -0.4340
17901TIP3    H275195   6.388   1.520  16.590 -0.7027  0.1004  1.6236
17902TIP3   OH275196   1.135   3.342  13.823 -0.2915  0.5201  0.0328
17902TIP3    H175197   1.137   3.324  13.729 -1.4614  1.9454 -0.2954
17902TIP3    H275198   1.223   3.373  13.844  0.4768 -1.4479 -0.2344
17903TIP3   OH275199   3.013   0.005  15.729 -0.2601  0.1941 -0.5312
17903TIP3    H175200   2.940  -0.056  15.719 -0.8510  0.5763  1.2395
17903TIP3    H275201   3.086  -0.035  15.682 -0.9593 -1.3322 -0.3159
17904TIP3   OH275202   5.538   2.297  15.300  0.3156 -0.5980 -0.2410
17904TIP3    H175203   5.534   2.384  15.339 -0.8647 -1.1218  0.8408
17904TIP3    H275204   5.631   2.272  15.306 -0.0625 -1.3515  3.8754
17905TIP3   OH275205   3.331   1.803  15.035 -0.8304 -0.9395 -0.1894
17905TIP3    H175206   3.357   1.763  14.951 -2.0032 -1.4305 -0.3322
17905TIP3    H275207   3.311   1.894  15.013 -0.6753 -0.9462 -0.3591
17906TIP3   OH275208   5.411   2.031   4.536 -0.0123 -0.4216 -0.3013
17906TIP3    H175209   5.365   2.066   4.460 -0.8167 -0.6466  0.0669
17906TIP3    H275210   5.355   2.054   4.610  1.4950  1.0761  0.3954
17907TIP3   OH275211   1.528   0.205  11.359 -0.6249  0.4129 -0.0187
17907TIP3    H175212   1.550   0.162  11.442  2.4043  0.3228 -0.7838
17907TIP3    H275213   1.467   0.145  11.317 -1.1486 -0.2085  1.5569
17908TIP3   OH275214   4.919   2.593   1.227 -0.5065  0.0114  0.3131
17908TIP3    H175215   5.001   2.571   1.271  1.2721  1.0177 -2.3255
17908TIP3    H275216   4.881   2.508   1.205  0.4110 -0.4733  0.5498
17909TIP3   OH275217   3.014   3.160   2.522 -0.4339  0.0795 -0.3223
17909TIP3    H175218   2.991   3.072   2.491 -1.2753  0.2922 -0.3107
17909TIP3    H275219   2.945   3.216   2.487 -0.9479  0.4530  1.2536
17910TIP3   OH275220   3.981   1.342  14.258 -0.2324 -0.1933 -0.3803
17910TIP3    H175221   4.075   1.343  14.276 -0.7778  0.4573  2.6136
17910TIP3    H275222   3.956   1.250  14.264  0.0247 -0.2456 -0.1203
17911TIP3   OH275223   1.435   3.494  11.919 -0.5556 -0.0691 -0.0959
17911TIP3    H175224   1.389   3.412  11.905  0.9764 -0.7738 -1.1580
17911TIP3    H275225   1.393   3.556  11.860  0.2953 -0.8826 -1.5774
17912TIP3   OH275226   1.962   6.498  12.530  0.2717 -0.2697  0.3556
17912TIP3    H175227   1.959   6.577  12.585  0.7656 -1.3672  1.9903
17912TIP3    H275228   2.017   6.522  12.456 -0.5935  1.3151  0.1925
17913TIP3   OH275229   6.677   1.693  15.952  0.0141 -0.2236 -0.2579
17913TIP3    H175230   6.694   1.736  16.035  2.7163  0.3790 -1.0703
17913TIP3    H275231   6.714   1.606  15.962 -0.7222 -0.5592 -0.4312
17914TIP3   OH275232   0.384   4.587   5.717 -0.3701 -0.5609  0.4588
17914TIP3    H175233   0.310   4.529   5.736  0.5446 -1.9799 -0.2351
17914TIP3    H275234   0.419   4.610   5.803 -1.3901 -0.1866  0.7735
17915TIP3   OH275235   1.474   0.999   4.568  0.9829 -0.5310 -0.4194
17915TIP3    H175236   1.519   1.005   4.484  0.2004 -1.6090 -0.9253
17915TIP3    H275237   1.500   1.078   4.615 -0.2892  1.1525 -2.5077
17916TIP3   OH275238   5.776   1.766   2.779  0.0580  0.0133 -0.4402
17916TIP3    H175239   5.749   1.699   2.716 -0.6640 -1.1068  1.0262
17916TIP3    H275240   5.701   1.826   2.783 -1.1878 -1.5852  1.5686
17917TIP3   OH275241   6.379   4.809  12.124 -0.2739 -0.5748 -0.7278
17917TIP3    H175242   6.471   4.827  12.104 -0.3544 -0.6106 -1.1287
17917TIP3    H275243   6.330   4.871  12.069 -0.4949 -0.6611 -0.6302
17918TIP3   OH275244   4.491   0.895  13.411 -0.3681 -0.2207  0.2963
17918TIP3    H175245   4.481   0.942  13.493  0.1479 -0.4714  0.5024
17918TIP3    H275246   4.487   0.963  13.344  2.1218  0.3412  0.6860
17919TIP3   OH275247   5.439   0.412  10.886  0.0571 -0.1391 -0.1673
17919TIP3    H175248   5.515   0.391  10.940  0.0744 -1.2993 -0.6300
17919TIP3    H275249   5.430   0.507  10.893 -0.1395 -0.2933  2.1285
17920TIP3   OH275250   4.270   0.727  16.364  0.7760 -0.4025  0.2382
17920TIP3    H175251   4.270   0.632  16.350  2.7619 -0.4372  0.3425
17920TIP3    H275252   4.360   0.753  16.347  0.9336  1.0406  3.0639
17921TIP3   OH275253   2.894   5.762   1.900  0.2107  0.7477 -0.7202
17921TIP3    H175254   2.832   5.741   1.830  0.7051  0.3809 -1.0483
17921TIP3    H275255   2.841   5.759   1.980 -0.0864 -0.0531 -0.9473
17922TIP3   OH275256   0.426   4.993  11.676  0.0619  0.4859 -0.4014
17922TIP3    H175257   0.401   4.926  11.740 -3.1823  2.6317  0.7066
17922TIP3    H275258   0.518   5.011  11.696 -0.2498 -0.5234  2.1841
17923TIP3   OH275259   0.626   5.094  13.974 -0.2086  0.3593 -0.2068
17923TIP3    H175260   0.548   5.142  14.002  0.0363 -0.5211  2.1201
17923TIP3    H275261   0.699   5.153  13.993 -0.2107  0.6639 -1.1458
17924TIP3   OH275262   5.675   3.117  14.035  0.0621  0.3176  0.1166
17924TIP3    H175263   5.703   3.026  14.046  0.8112  0.6913  1.3499
17924TIP3    H275264   5.756   3.167  14.031 -0.3478  0.9325 -0.6608
17925TIP3   OH275265   4.168   2.202   1.835  1.5243 -0.0021  0.4807
17925TIP3    H175266   4.115   2.131   1.871  0.0077  0.7809 -0.1944
17925TIP3    H275267   4.258   2.173   1.849  0.9318 -1.7058  0.9062
17926TIP3   OH275268   0.338   6.398   4.412 -0.1271 -0.0201  0.3273
17926TIP3    H175269   0.417   6.344   4.416 -2.1170 -3.1590 -1.0506
17926TIP3    H275270   0.277   6.356   4.473 -1.8161  0.4803 -0.9918
17927TIP3   OH275271   1.168   3.521  11.606 -0.7094  0.0063  0.3425
17927TIP3    H175272   1.104   3.585  11.574 -0.5527 -0.7375 -1.5418
17927TIP3    H275273   1.229   3.572  11.658 -1.1850  1.2158 -0.2740
17928TIP3   OH275274   1.133   3.365  12.732 -0.6528  0.9265 -0.1214
17928TIP3    H175275   1.092   3.335  12.651 -1.2861  1.9225 -0.1640
17928TIP3    H275276   1.225   3.377  12.709 -0.0509 -2.3347  0.2450
17929TIP3   OH275277   6.076   5.271  16.656  0.1641 -0.6610  0.2712
17929TIP3    H175278   6.125   5.223  16.589  1.6154 -1.1714  1.6757
17929TIP3    H275279   6.092   5.363  16.635 -2.6394 -0.7044 -2.4340
17930TIP3   OH275280   5.163   3.391   4.752 -0.1421 -0.0203  0.3535
17930TIP3    H175281   5.172   3.315   4.694 -0.5480  0.0456  0.2051
17930TIP3    H275282   5.147   3.352   4.839  1.1846 -0.1329  0.5534
17931TIP3   OH275283   1.015   1.662   0.469  0.4265  0.0368 -0.1901
17931TIP3    H175284   0.961   1.729   0.428 -0.9180 -1.3674 -0.7771
17931TIP3    H275285   0.971   1.644   0.553  0.2905 -0.6906 -0.4095
17932TIP3   OH275286   3.786   1.539   4.758 -0.2294  0.2086 -0.0401
17932TIP3    H175287   3.798   1.492   4.675  1.5976 -1.0764  0.9308
17932TIP3    H275288   3.720   1.488   4.805  1.2701 -1.0655  0.7336
17933TIP3   OH275289   0.641   1.353   6.220  0.0456  0.3604 -0.1934
17933TIP3    H175290   0.623   1.446   6.206 -2.4668 -0.0713 -0.0951
17933TIP3    H275291   0.583   1.328   6.292  0.7127 -1.2706 -0.2048
17934TIP3   OH275292   0.765   1.206   4.986  0.5463  0.0726  0.7007
17934TIP3    H175293   0.854   1.222   4.955  0.3251 -0.8212 -0.4034
17934TIP3    H275294   0.769   1.121   5.030 -0.4219 -1.4881 -2.1170
17935TIP3   OH275295   3.511   1.874  11.134 -0.4412  0.4694 -0.0852
17935TIP3    H175296   3.456   1.796  11.123  0.8497 -0.4112 -0.3391
17935TIP3    H275297   3.578   1.866  11.066  0.1839  1.3850  0.4110
17936TIP3   OH275298   4.754   3.987  10.990  0.5320 -0.1004 -0.1986
17936TIP3    H175299   4.836   3.951  10.957 -0.7279 -2.2987 -1.0574
17936TIP3    H275300   4.706   4.013  10.912 -1.3598 -2.8567 -0.0041
17937TIP3   OH275301   4.564   2.689   5.436  0.6661  0.6142  0.2576
17937TIP3    H175302   4.640   2.642   5.401  0.4384 -0.0553  0.6476
17937TIP3    H275303   4.498   2.683   5.367 -0.8670 -3.3763  1.9323
17938TIP3   OH275304   0.739   4.790  11.565 -0.1209  0.2577  0.8264
17938TIP3    H175305   0.815   4.784  11.506  2.4024  1.3756  3.7838
17938TIP3    H275306   0.670   4.741  11.521  2.8475 -2.2971 -1.2112
17939TIP3   OH275307   3.020   0.378  17.255 -0.0582  0.2308  0.5802
17939TIP3    H175308   2.942   0.333  17.289 -1.0113 -0.6988 -2.5786
17939TIP3    H275309   2.999   0.471  17.261 -1.6919 -0.0211 -0.7194
17940TIP3   OH275310   5.089   4.030  16.270 -0.2860 -0.1914 -0.0389
17940TIP3    H175311   5.117   4.121  16.280 -3.2830  1.0408 -2.1186
17940TIP3    H275312   5.056   4.005  16.357 -1.6495  1.5255 -0.0361
17941TIP3   OH275313   3.627   4.723  15.441  0.5507  0.1416 -0.1663
17941TIP3    H175314   3.625   4.818  15.437  2.2795  0.1884 -0.3708
17941TIP3    H275315   3.690   4.703  15.511  0.4153 -0.8384 -0.3111
17942TIP3   OH275316   5.580   0.476   3.338 -0.1231  0.2840  0.4711
17942TIP3    H175317   5.646   0.477   3.268 -0.8057  0.4679 -0.1686
17942TIP3    H275318   5.625   0.433   3.411 -0.1567 -2.0615 -0.8280
17943TIP3   OH275319   0.736   5.891  15.503  0.0194  0.2074 -0.1319
17943TIP3    H175320   0.787   5.941  15.439  0.1392  0.4549  0.1601
17943TIP3    H275321   0.794   5.819  15.529  0.0561  0.2393 -0.1269
17944TIP3   OH275322   2.825   0.822   3.491  0.0530 -0.3328  0.0655
17944TIP3    H175323   2.860   0.739   3.459  0.0810 -0.3685  0.1916
17944TIP3    H275324   2.732   0.804   3.507 -0.0863 -0.1681 -0.5227
17945TIP3   OH275325   4.206   2.532   0.578  0.5758 -0.0666  0.0597
17945TIP3    H175326   4.134   2.595   0.583 -1.3620 -2.3525  2.6965
17945TIP3    H275327   4.191   2.485   0.496 -1.3293 -0.9400  0.8884
17946TIP3   OH275328   2.022   6.522   6.517  0.2602  0.1537 -0.3316
17946TIP3    H175329   1.943   6.481   6.550 -1.2890  1.4787 -2.2787
17946TIP3    H275330   2.047   6.469   6.441  0.9981  0.0098  0.0026
17947TIP3   OH275331   2.115   0.509   4.643 -0.0876  0.5886 -0.0781
17947TIP3    H175332   2.122   0.499   4.738  0.3097  0.1877 -0.1506
17947TIP3    H275333   2.149   0.596   4.626 -1.0425  1.0339  0.2538
17948TIP3   OH275334   5.106   2.936   5.009  0.0780 -0.4290 -0.3499
17948TIP3    H175335   5.036   2.870   5.009 -1.0671  0.7538  0.7893
17948TIP3    H275336   5.162   2.910   4.936 -0.5195 -2.4733 -0.1286
17949TIP3   OH275337   3.628   1.973   3.094  0.0722  0.3751 -0.0518
17949TIP3    H175338   3.585   1.892   3.066  0.4653  0.5338 -1.1171
17949TIP3    H275339   3.612   1.976   3.189  0.8355 -1.4314  0.1603
17950TIP3   OH275340   1.838   2.129  12.596 -0.0345  0.0094 -1.0434
17950TIP3    H175341   1.797   2.076  12.528 -2.2235  0.1574  0.1314
17950TIP3    H275342   1.797   2.215  12.587 -1.1248 -0.2662  1.1352
17951TIP3   OH275343   4.496   2.216   4.204  0.1398 -0.1493 -0.1016
17951TIP3    H175344   4.451   2.133   4.215 -0.3655  0.0657 -0.5351
17951TIP3    H275345   4.523   2.217   4.112  0.6878 -0.1053  0.0574
17952TIP3   OH275346   0.512   5.856   4.372  0.5436  0.3548  0.8550
17952TIP3    H175347   0.527   5.949   4.360  1.0090  0.2679  0.7395
17952TIP3    H275348   0.573   5.831   4.442  1.4806 -0.1501 -0.1187
17953TIP3   OH275349   4.275   0.253   0.562  0.7539  0.7787  0.5132
17953TIP3    H175350   4.212   0.204   0.616  0.4120  1.0280  0.3397
17953TIP3    H275351   4.322   0.308   0.624  2.2044 -0.8783  0.9392
17954TIP3   OH275352   3.069   3.579  17.260  0.1458  0.4159 -0.7293
17954TIP3    H175353   3.020   3.504  17.226  1.2523  0.4822 -2.5124
17954TIP3    H275354   3.079   3.561  17.353  0.1496 -1.5144 -1.0817
17955TIP3   OH275355   2.588   5.312   2.151 -0.3293  0.0168 -0.0042
17955TIP3    H175356   2.579   5.361   2.069 -0.0990 -1.0578 -0.6718
17955TIP3    H275357   2.681   5.290   2.155 -0.7216 -1.8328 -0.5551
17956TIP3   OH275358   4.484   3.582   0.032 -0.8914  0.0483 -0.2293
17956TIP3    H175359   4.457   3.588  -0.060 -2.8741  0.4421  0.3434
17956TIP3    H275360   4.494   3.673   0.060  0.8883 -0.0873 -0.3582
17957TIP3   OH275361   0.826   4.633   2.676 -0.4322 -0.0523 -0.4858
17957TIP3    H175362   0.918   4.617   2.698 -0.1979  1.2622 -0.4270
17957TIP3    H275363   0.824   4.629   2.580 -0.0154  1.2894 -0.5705
17958TIP3   OH275364   0.728   0.438   6.343 -0.3919 -0.6575 -0.5513
17958TIP3    H175365   0.685   0.432   6.428 -1.4552 -0.2248 -1.0407
17958TIP3    H275366   0.696   0.362   6.294  0.8412 -1.3428 -0.2888
17959TIP3   OH275367   3.083   4.931  15.286 -0.0559  0.0471 -0.1883
17959TIP3    H175368   2.990   4.952  15.278 -0.3427 -1.1833 -0.1704
17959TIP3    H275369   3.121   5.009  15.326 -1.0918  0.5318 -0.1179
17960TIP3   OH275370   4.620   6.225   2.828  0.2070 -0.6738  0.4077
17960TIP3    H175371   4.555   6.227   2.898 -0.4384 -2.4068 -0.1105
17960TIP3    H275372   4.685   6.161   2.857  0.3490 -0.8207 -0.2143
17961TIP3   OH275373   6.180   6.060   3.761 -0.0484  0.6709 -0.8999
17961TIP3    H175374   6.117   6.002   3.802  1.0993 -0.3318 -0.5270
17961TIP3    H275375   6.241   6.001   3.715  0.1225  1.6522 -1.9624
17962TIP3   OH275376   4.755   5.997   0.441  0.4152  0.1956 -0.0102
17962TIP3    H175377   4.770   5.969   0.351  2.4366  0.4619  0.2179
17962TIP3    H275378   4.769   5.919   0.494  1.3731  0.5291  0.2382
17963TIP3   OH275379   3.083   6.208  13.988  0.5342 -0.0437 -0.3221
17963TIP3    H175380   3.071   6.236  14.079 -1.9467  1.2409 -0.9971
17963TIP3    H275381   3.013   6.144  13.973 -1.3155  2.3926 -2.3513
17964TIP3   OH275382   5.192   4.469  12.139  0.6363 -0.3389 -0.5144
17964TIP3    H175383   5.247   4.396  12.109 -0.4324 -0.9060 -1.0973
17964TIP3    H275384   5.170   4.446  12.230  1.0871 -0.2697 -0.3845
17965TIP3   OH275385   5.972   3.064  12.054  0.6161 -0.2813 -0.4718
17965TIP3    H175386   5.921   3.140  12.081  0.6768 -0.0674 -0.9621
17965TIP3    H275387   6.063   3.088  12.075  0.8171  0.4371 -2.1331
17966TIP3   OH275388   4.281   2.846   1.856 -0.3154 -0.1565 -0.1729
17966TIP3    H175389   4.244   2.759   1.838 -0.6740 -0.6318  2.6982
17966TIP3    H275390   4.358   2.829   1.911  0.4069  1.2682 -0.7109
17967TIP3   OH275391   0.139   2.087   4.295  0.0047 -0.1149  0.7302
17967TIP3    H175392   0.217   2.142   4.309  0.8183 -1.0895  0.1256
17967TIP3    H275393   0.142   2.024   4.367  0.1330 -0.5457  0.3519
17968TIP3   OH275394   2.568   1.433  17.159  0.1115 -0.4256  0.1876
17968TIP3    H175395   2.584   1.445  17.253 -0.1682 -1.3080  0.3493
17968TIP3    H275396   2.622   1.358  17.135 -0.4898 -0.7397 -0.1774
17969TIP3   OH275397   1.590   6.426   5.885 -0.2208 -0.4281  0.2120
17969TIP3    H175398   1.585   6.499   5.946  0.5822 -0.7857  0.7255
17969TIP3    H275399   1.628   6.355   5.937  1.0570 -0.5467 -0.8670
17970TIP3   OH275400   6.630   0.084   6.157 -0.1651 -0.7068  0.3586
17970TIP3    H175401   6.655   0.169   6.194 -1.6427 -0.0967 -0.0031
17970TIP3    H275402   6.693   0.022   6.194  0.5747  0.4541  1.0749
17971TIP3   OH275403   0.163   3.088   0.231  0.0263  0.2961 -0.8647
17971TIP3    H175404   0.106   3.120   0.300  0.0830  0.0713 -0.7127
17971TIP3    H275405   0.148   2.994   0.229  0.7475  0.1718 -0.4962
17972TIP3   OH275406   4.248   4.694  14.161  0.6640 -0.2411  0.2599
17972TIP3    H175407   4.309   4.744  14.215  1.8610 -1.2500 -0.1538
17972TIP3    H275408   4.224   4.754  14.090  0.0805  0.6406  1.1814
17973TIP3   OH275409   3.783   5.126  12.037  0.4626  0.1050 -0.4954
17973TIP3    H175410   3.870   5.145  12.001  0.6731  0.6228  0.2706
17973TIP3    H275411   3.744   5.212  12.050 -0.6992 -0.1564 -2.0971
17974TIP3   OH275412   5.789   5.295  14.335 -0.3715  0.0997 -0.0826
17974TIP3    H175413   5.848   5.279  14.408 -0.9162 -2.0364 -0.0723
17974TIP3    H275414   5.735   5.369  14.363  1.1989  1.0503  0.5420
17975TIP3   OH275415   1.886   2.115  13.436  1.0967  0.9789  0.0273
17975TIP3    H175416   1.965   2.063  13.426  1.7655  2.3815 -2.4305
17975TIP3    H275417   1.835   2.096  13.357 -1.3034 -0.3126  1.8154
17976TIP3   OH275418   5.948   4.176  13.527 -0.2707  0.0887 -0.0544
17976TIP3    H175419   5.896   4.182  13.447 -2.0113 -3.6185  0.6994
17976TIP3    H275420   5.885   4.185  13.598  0.9398  1.1200  0.9183
17977TIP3   OH275421   0.166   5.902   6.115  0.0612  0.2375 -0.2273
17977TIP3    H175422   0.080   5.890   6.157  1.4887 -1.0186  2.4829
17977TIP3    H275423   0.201   5.982   6.155  0.1522  0.8028 -1.4028
17978TIP3   OH275424   0.202   2.394   4.374 -0.4909 -0.1711 -0.1881
17978TIP3    H175425   0.180   2.418   4.284 -1.5020 -0.5271 -0.0331
17978TIP3    H275426   0.284   2.346   4.366 -0.3793  0.1207 -0.8803
17979TIP3   OH275427   2.458   2.040  13.028  0.1464  0.7610 -0.4235
17979TIP3    H175428   2.406   2.066  13.104  0.2905  1.6999 -0.6450
17979TIP3    H275429   2.406   1.971  12.986  1.2425 -1.6025  1.9292
17980TIP3   OH275430   3.565   3.099  13.573  0.0987  0.1031 -0.3268
17980TIP3    H175431   3.631   3.037  13.544  0.8934 -0.5804  2.7135
17980TIP3    H275432   3.490   3.045  13.597  0.9762  0.1722  2.8245
17981TIP3   OH275433   4.901   6.627   0.414 -0.3760  0.0551 -0.2410
17981TIP3    H175434   4.817   6.663   0.441 -0.9344 -1.4471  0.1001
17981TIP3    H275435   4.894   6.617   0.319 -0.1776  0.9327 -0.3485
17982TIP3   OH275436   5.525   4.074  15.787 -0.3660 -0.2844 -0.1872
17982TIP3    H175437   5.483   4.024  15.717 -0.1238 -0.9216  0.1132
17982TIP3    H275438   5.548   4.008  15.853 -0.1163  0.2376  0.2536
17983TIP3   OH275439   6.420   6.629   1.498 -0.0098 -0.4937  0.3902
17983TIP3    H175440   6.480   6.621   1.424 -1.4548 -0.5023 -0.8109
17983TIP3    H275441   6.377   6.714   1.486  1.6494  0.7172  2.7069
17984TIP3   OH275442   1.891   6.019  17.138  0.0496  0.1256 -0.2578
17984TIP3    H175443   1.907   6.089  17.202 -1.1427 -0.0888  0.2906
17984TIP3    H275444   1.919   5.939  17.183 -2.0387 -0.1888  0.5135
17985TIP3   OH275445   0.148   5.280  12.867 -0.8489  0.0212 -0.7785
17985TIP3    H175446   0.088   5.237  12.805 -1.8404 -0.6612  0.6128
17985TIP3    H275447   0.235   5.255  12.838 -1.3822 -2.2765 -0.5046
17986TIP3   OH275448   0.566   2.830  14.118  0.4771 -0.6341  0.6134
17986TIP3    H175449   0.501   2.892  14.150  1.0157 -0.2755  1.0170
17986TIP3    H275450   0.571   2.763  14.185  1.0669 -0.2689  0.9372
17987TIP3   OH275451   2.840   4.479   0.580 -0.3270  0.3071 -0.9388
17987TIP3    H175452   2.927   4.452   0.608  0.1190  0.3024 -2.2664
17987TIP3    H275453   2.826   4.564   0.621  0.5493  0.5713 -1.1761
17988TIP3   OH275454   1.601   2.090  12.940 -0.5990 -0.1390 -0.2467
17988TIP3    H175455   1.626   2.030  12.870 -0.7189  0.8959 -1.1973
17988TIP3    H275456   1.662   2.070  13.012 -0.2778 -1.0035 -0.7474
17989TIP3   OH275457   4.514   0.152   1.882 -0.5233 -0.5451  0.1511
17989TIP3    H175458   4.568   0.073   1.886 -0.7078 -0.6971 -0.3548
17989TIP3    H275459   4.461   0.141   1.803 -0.1236  0.3544 -0.2533
17990TIP3   OH275460   0.146   1.022  12.599 -0.0002 -0.4764  0.9015
17990TIP3    H175461   0.078   1.087  12.615 -0.3380 -0.7887  0.7386
17990TIP3    H275462   0.226   1.074  12.587 -0.4471 -0.0315 -0.2397
17991TIP3   OH275463   2.778   6.178  12.766  0.1859  0.7709  0.1161
17991TIP3    H175464   2.808   6.269  12.764  0.6818  0.5893 -0.8032
17991TIP3    H275465   2.683   6.184  12.781 -0.2029  1.5358 -2.3553
17992TIP3   OH275466   0.945   0.054   3.605 -0.0091 -0.3713 -0.4518
17992TIP3    H175467   0.970   0.120   3.541  1.0979  1.7172  2.0311
17992TIP3    H275468   1.003  -0.020   3.586  0.9361  0.5585 -1.2900
17993TIP3   OH275469   2.892   0.590  12.498 -0.3829  0.0674 -0.5540
17993TIP3    H175470   2.966   0.634  12.456 -1.3733  1.3138 -1.0304
17993TIP3    H275471   2.932   0.531  12.562  1.0844 -0.6898 -2.1370
17994TIP3   OH275472   1.419   2.507  13.195  0.4694 -0.1898 -0.1285
17994TIP3    H175473   1.470   2.428  13.181  0.5546 -0.0949 -0.3470
17994TIP3    H275474   1.426   2.524  13.289  0.6557 -0.3007 -0.1227
17995TIP3   OH275475   5.528   0.980  14.348  0.4176 -0.3097 -0.6061
17995TIP3    H175476   5.522   1.019  14.261  2.5580  0.4028 -0.4406
17995TIP3    H275477   5.486   1.044  14.406  1.9632  0.7538 -0.6484
17996TIP3   OH275478   2.783   4.087  15.519 -0.5650 -0.0184  0.1481
17996TIP3    H175479   2.728   4.083  15.597 -0.8570  2.3899  0.0871
17996TIP3    H275480   2.841   4.011  15.526 -2.8640 -1.7593  0.9755
17997TIP3   OH275481   3.539   4.206  13.453  0.1949 -0.3542  0.2787
17997TIP3    H175482   3.517   4.124  13.497 -1.0433  0.0294  0.4080
17997TIP3    H275483   3.531   4.187  13.360 -0.6454 -0.2385  0.3236
17998TIP3   OH275484   2.894   6.176  15.647 -0.1076 -0.0087 -0.0044
17998TIP3    H175485   2.893   6.081  15.655  1.4621  0.0482  1.1693
17998TIP3    H275486   2.897   6.193  15.553  0.6344 -1.1410 -0.1873
17999TIP3   OH275487   6.094   2.402   5.377 -0.2300 -0.2363 -0.2774
17999TIP3    H175488   6.128   2.397   5.466 -2.1092  0.8761  0.5237
17999TIP3    H275489   6.005   2.368   5.382 -0.2648 -0.4411 -1.7997
18000TIP3   OH275490   3.451   3.476  16.664  0.0474  0.1343 -0.1404
18000TIP3    H175491   3.513   3.419  16.618  0.9492  1.2168 -0.2759
18000TIP3    H275492   3.377   3.418  16.686  1.7132 -1.5207  1.2981
18001TIP3   OH275493   4.288   1.190   0.639 -0.1820  0.3217 -0.2222
18001TIP3    H175494   4.276   1.107   0.595 -0.1285  0.3291 -0.2510
18001TIP3    H275495   4.248   1.178   0.725  1.7544 -0.4466  0.5934
18002TIP3   OH275496   2.426   5.099   3.121  0.5188 -0.4852 -0.1185
18002TIP3    H175497   2.331   5.099   3.131  0.7137  0.1379  1.9408
18002TIP3    H275498   2.447   5.011   3.090 -0.8503 -0.1530 -2.0277
18003TIP3   OH275499   3.435   2.969   3.240 -0.3291 -0.2022 -0.1826
18003TIP3    H175500   3.412   3.057   3.211  0.3225 -0.5916 -1.8710
18003TIP3    H275501   3.442   2.917   3.160 -2.1905 -2.1671  0.8533
18004TIP3   OH275502   0.504   1.082   3.621  0.0980  0.2717  0.7456
18004TIP3    H175503   0.416   1.108   3.595  0.4454 -0.2964 -1.0653
18004TIP3    H275504   0.561   1.150   3.584  0.3482  1.2381  2.8430
18005TIP3   OH275505   5.714   5.716   3.723  0.4525  0.0687 -0.5203
18005TIP3    H175506   5.729   5.741   3.632 -0.7535 -0.4047 -0.8616
18005TIP3    H275507   5.652   5.643   3.718 -1.9505  1.9627  0.8043
18006TIP3   OH275508   0.802   5.588  12.690  0.4065 -0.0367 -0.6552
18006TIP3    H175509   0.731   5.635  12.734  1.2182  1.3169 -0.7263
18006TIP3    H275510   0.819   5.640  12.611  1.7878 -0.0477 -0.3817
18007TIP3   OH275511   4.951   2.346   5.050 -0.3382 -0.2370 -0.2251
18007TIP3    H175512   4.932   2.308   5.136  0.4416  0.9926  0.5216
18007TIP3    H275513   4.893   2.422   5.045  1.0679  0.8848  0.1161
18008TIP3   OH275514   6.807   5.518   2.991 -0.3822 -0.0958  0.3886
18008TIP3    H175515   6.731   5.506   2.936 -1.3193  1.3788  1.3212
18008TIP3    H275516   6.868   5.570   2.938 -1.2841  1.3237  0.7070
18009TIP3   OH275517   6.464   2.294  11.505 -0.6567 -0.5249  0.3752
18009TIP3    H175518   6.551   2.259  11.524  0.2868  1.3693 -0.3319
18009TIP3    H275519   6.469   2.386  11.530 -2.4799 -0.3920  0.3477
18010TIP3   OH275520   0.423   6.111   5.670  0.3978  0.2424 -0.0153
18010TIP3    H175521   0.439   6.191   5.721 -0.1853 -0.2623  0.9625
18010TIP3    H275522   0.396   6.046   5.735  1.5388 -0.9463 -0.7083
18011TIP3   OH275523   3.671   1.935   5.469 -0.0282 -0.3135 -0.6466
18011TIP3    H175524   3.728   1.938   5.546  0.1825  1.4305 -0.8297
18011TIP3    H275525   3.631   2.022   5.466 -1.1151 -0.8329 -1.7046
18012TIP3   OH275526   5.927   4.476  13.481 -0.4791  0.9734  0.6729
18012TIP3    H175527   5.904   4.438  13.396  1.7181  1.7486 -0.3000
18012TIP3    H275528   5.989   4.413  13.520  0.3326  1.7472  0.6572
18013TIP3   OH275529   2.499   3.469  16.433  0.5611 -0.2944 -0.1188
18013TIP3    H175530   2.572   3.452  16.492 -0.4869 -0.1987  1.2196
18013TIP3    H275531   2.452   3.542  16.472  1.1532  1.3213 -2.2919
18014TIP3   OH275532   6.245   4.142  13.042 -0.8284  0.3253 -0.1984
18014TIP3    H175533   6.326   4.192  13.033  0.3069 -1.5004 -0.5006
18014TIP3    H275534   6.190   4.171  12.969 -0.0669  0.8985 -0.5519
18015TIP3   OH275535   1.462   6.293  12.772  0.0237  0.2506 -0.1195
18015TIP3    H175536   1.551   6.260  12.786 -0.0468 -0.5872 -1.5465
18015TIP3    H275537   1.469   6.387  12.788  1.5643  0.4585 -1.7879
18016TIP3   OH275538   5.578   5.191   2.917 -0.1931 -0.0581 -0.2830
18016TIP3    H175539   5.553   5.150   3.000  0.0191  1.5257  0.5714
18016TIP3    H275540   5.671   5.210   2.926 -0.1066 -0.1178 -0.9919
18017TIP3   OH275541   5.840   3.999  14.533 -0.5755 -0.3491  0.3714
18017TIP3    H175542   5.761   3.978  14.583  1.2597  1.1954  4.1050
18017TIP3    H275543   5.860   4.090  14.556  2.2256 -0.6755 -0.5436
18018TIP3   OH275544   6.470   6.743   1.179 -0.2077 -0.3334  0.3768
18018TIP3    H175545   6.423   6.824   1.202 -1.7016 -0.3281 -2.4866
18018TIP3    H275546   6.561   6.770   1.172 -0.8739  1.4753 -1.9507
18019TIP3   OH275547   5.261   2.092  12.534  0.7549  0.0191 -0.2668
18019TIP3    H175548   5.200   2.067  12.603  1.5879  0.0913  0.5090
18019TIP3    H275549   5.234   2.180  12.508  1.4395  0.6517  1.1211
18020TIP3   OH275550   6.808   2.559   4.427  0.1543  0.8079  0.1959
18020TIP3    H175551   6.899   2.547   4.452  0.1295 -2.4297 -0.9985
18020TIP3    H275552   6.759   2.546   4.508  0.5563 -1.4459  0.1058
18021TIP3   OH275553   0.959   1.425  11.934 -0.2040 -0.0227 -0.0017
18021TIP3    H175554   0.866   1.421  11.910 -0.3461  1.2101  0.3180
18021TIP3    H275555   1.000   1.474  11.862  0.1193 -0.1795  0.0752
18022TIP3   OH275556   2.590   6.056   1.182  0.2586 -0.4144  0.0859
18022TIP3    H175557   2.535   6.013   1.117  0.4099  1.2104 -1.1524
18022TIP3    H275558   2.568   6.149   1.175 -1.2718 -0.3873  3.8658
18023TIP3   OH275559   5.685   0.270   1.128  0.7018  0.4387  0.2440
18023TIP3    H175560   5.674   0.255   1.222 -1.0573 -2.4532 -0.3519
18023TIP3    H275561   5.618   0.335   1.107  1.2433  1.2613  1.0106
18024TIP3   OH275562   1.963   0.673   4.378  0.2813  0.5053  0.3884
18024TIP3    H175563   2.022   0.673   4.453  0.1667 -0.2061  0.4835
18024TIP3    H275564   1.984   0.592   4.331 -0.5989  0.2561  0.4153
18025TIP3   OH275565   1.358   6.045  14.606  0.0521 -0.0382  0.0633
18025TIP3    H175566   1.441   6.029  14.650  0.6650  1.7688 -0.3809
18025TIP3    H275567   1.382   6.066  14.515 -0.8024  1.4229  0.1531
18026TIP3   OH275568   4.929   6.482  14.542 -0.1156 -0.2402  0.0840
18026TIP3    H175569   4.866   6.420  14.578 -0.7861 -0.7580 -1.8976
18026TIP3    H275570   4.997   6.426  14.503  0.3649  0.2947  0.1482
18027TIP3   OH275571   6.433   2.251  13.398 -0.5484  0.0697  0.1356
18027TIP3    H175572   6.472   2.183  13.453  0.7959  1.7561  1.3775
18027TIP3    H275573   6.396   2.313  13.461 -3.1031 -0.2685 -1.0018
18028TIP3   OH275574   0.388   6.327  15.680  0.2488  0.3068 -0.2949
18028TIP3    H175575   0.430   6.313  15.595 -1.0404  1.3992 -1.1150
18028TIP3    H275576   0.420   6.255  15.734 -0.3192 -1.4102 -2.2202
18029TIP3   OH275577   0.512   4.392   5.972  0.2468 -0.3413  0.2706
18029TIP3    H175578   0.465   4.474   5.989  0.6706  0.5368 -2.6878
18029TIP3    H275579   0.602   4.410   5.999  0.2355 -0.0198  0.0920
18030TIP3   OH275580   3.255   0.281  17.127 -0.6353 -0.4444  0.1018
18030TIP3    H175581   3.325   0.332  17.086  1.0010 -2.7156 -0.0666
18030TIP3    H275582   3.188   0.345  17.150  1.1589  1.6885 -0.4666
18031TIP3   OH275583   0.616   2.127   0.846  0.1634 -0.2493  0.0974
18031TIP3    H175584   0.572   2.051   0.885 -0.1648  0.0421  0.3062
18031TIP3    H275585   0.584   2.130   0.756 -0.7862  0.3669  0.4498
18032TIP3   OH275586   0.726   4.872   0.819 -0.5413 -0.4130 -0.4745
18032TIP3    H175587   0.692   4.951   0.778 -2.7274  0.1933  2.3031
18032TIP3    H275588   0.800   4.846   0.765 -0.0682  3.2530 -1.7121
18033TIP3   OH275589   5.518   3.668   4.682  0.1463  0.2279 -0.5472
18033TIP3    H175590   5.553   3.743   4.634  0.6741 -0.0433 -0.5879
18033TIP3    H275591   5.443   3.704   4.731  0.8915  0.9573  0.0713
18034TIP3   OH275592   1.127   2.060   1.677 -0.1690 -0.0767  0.0100
18034TIP3    H175593   1.069   2.082   1.604 -0.8559 -0.6637  0.3655
18034TIP3    H275594   1.180   2.138   1.691 -2.0172  1.0710  0.7543
18035TIP3   OH275595   3.515   3.012  14.630  0.5098 -0.4974 -0.2962
18035TIP3    H175596   3.505   3.096  14.674  1.1128 -0.7016  0.2335
18035TIP3    H275597   3.527   3.035  14.538 -1.7645 -0.1120 -0.5411
18036TIP3   OH275598   6.802   3.530   4.452 -0.2970  0.3288 -0.0823
18036TIP3    H175599   6.819   3.517   4.546  0.4507 -1.1300 -0.3976
18036TIP3    H275600   6.732   3.467   4.432 -0.2625  0.4438 -0.5545
18037TIP3   OH275601   2.972   2.480  12.365 -1.2106 -0.1170 -0.2814
18037TIP3    H175602   2.884   2.463  12.398 -1.1016 -1.7745 -0.8122
18037TIP3    H275603   2.985   2.413  12.298  0.9067 -0.6318  0.6189
18038TIP3   OH275604   0.361   0.201   5.362 -0.0612  0.7000 -0.5347
18038TIP3    H175605   0.443   0.173   5.403  0.6029  1.7721 -1.1027
18038TIP3    H275606   0.381   0.203   5.268 -0.8554  0.5617 -0.7061
18039TIP3   OH275607   0.996   1.189   1.062 -0.7485  0.0993  0.1032
18039TIP3    H175608   1.035   1.275   1.046 -0.0380 -0.0089  1.1645
18039TIP3    H275609   0.902   1.206   1.070 -0.6703  0.7021 -0.2269
18040TIP3   OH275610   3.105   4.040  14.328 -0.5121  0.0671  0.4257
18040TIP3    H175611   3.198   4.059  14.326  0.1023 -2.7525 -1.2555
18040TIP3    H275612   3.100   3.947  14.349 -2.8374 -0.3408 -1.6786
18041TIP3   OH275613   2.219   2.938  16.722  0.0836 -0.3462 -0.4913
18041TIP3    H175614   2.289   2.998  16.697 -1.0848  0.8946 -0.8140
18041TIP3    H275615   2.212   2.947  16.817 -0.7729  0.7991 -0.6560
18042TIP3   OH275616   2.837   1.922   3.443  0.2895  0.3853 -0.1580
18042TIP3    H175617   2.839   1.920   3.347  2.9611  1.3784 -0.1629
18042TIP3    H275618   2.770   1.986   3.465 -0.3019  0.1866 -1.3707
18043TIP3   OH275619   2.877   2.104   2.129 -0.5873  0.7211 -0.3228
18043TIP3    H175620   2.937   2.030   2.122 -1.4018 -0.2600  2.1753
18043TIP3    H275621   2.868   2.137   2.040  0.4550 -1.6663 -1.3620
18044TIP3   OH275622   2.398   4.861   3.759  0.2222 -0.7512  0.0977
18044TIP3    H175623   2.331   4.907   3.810  1.3995  1.3187 -0.1326
18044TIP3    H275624   2.450   4.814   3.823  0.2431 -0.0728  0.5857
18045TIP3   OH275625   0.086   0.014  16.293  0.0805  0.3184  0.2658
18045TIP3    H175626  -0.006   0.039  16.300 -0.2745 -1.0119  0.4615
18045TIP3    H275627   0.123   0.077  16.232 -0.7998  1.3024  0.7414
18046TIP3   OH275628   2.601   2.347  16.856 -0.3044 -0.5870 -0.2275
18046TIP3    H175629   2.630   2.256  16.863 -1.1682 -0.8928 -0.4987
18046TIP3    H275630   2.551   2.363  16.937 -0.7598 -0.5823 -0.5072
18047TIP3   OH275631   2.589   6.698   4.925 -0.0319  0.2359  0.6794
18047TIP3    H175632   2.524   6.768   4.929 -1.0973 -0.7676  1.2426
18047TIP3    H275633   2.568   6.641   4.999  0.0933 -1.3028 -0.4344
18048TIP3   OH275634   4.819   2.086   1.882 -0.5316  0.7933 -0.2609
18048TIP3    H175635   4.736   2.102   1.839 -0.2491  1.0832 -0.7005
18048TIP3    H275636   4.873   2.162   1.860 -0.3750  0.9284  0.5788
18049TIP3   OH275637   5.491   3.568  12.535 -0.6047  0.2975 -0.3866
18049TIP3    H175638   5.567   3.566  12.593 -1.5540 -0.8900  0.8622
18049TIP3    H275639   5.466   3.660  12.530  0.3011  0.5642  0.0077
18050TIP3   OH275640   1.961   6.065   4.706  0.1920  0.7761 -0.2623
18050TIP3    H175641   1.911   6.146   4.690 -0.9184 -0.2120 -1.9880
18050TIP3    H275642   1.932   6.006   4.637  0.6803 -1.2616  1.2527
18051TIP3   OH275643   4.273   6.453  11.687  0.6283 -0.5182  0.2548
18051TIP3    H175644   4.284   6.544  11.657  0.5404 -0.4765  0.3495
18051TIP3    H275645   4.344   6.441  11.751  0.9479 -0.6752 -0.1274
18052TIP3   OH275646   4.045   1.599   4.377 -0.0128 -0.2202 -0.2503
18052TIP3    H175647   3.988   1.656   4.429  2.4428  0.4714  1.8113
18052TIP3    H275648   4.026   1.510   4.408 -0.3890 -0.0470  0.0139
18053TIP3   OH275649   1.978   4.301   3.049  0.8340 -0.2067  0.2732
18053TIP3    H175650   2.068   4.314   3.021  0.4606  0.4388 -0.6842
18053TIP3    H275651   1.981   4.228   3.110  2.0854  0.1856  0.6933
18054TIP3   OH275652   6.465   3.422  12.633 -0.2793  0.4133 -0.5988
18054TIP3    H175653   6.483   3.469  12.551 -1.2399  1.2902 -0.3123
18054TIP3    H275654   6.535   3.450  12.692  1.4140 -1.5341 -1.6306
18055TIP3   OH275655   4.080   5.063  11.010  0.7091 -0.2651 -0.1966
18055TIP3    H175656   3.987   5.065  11.032  0.1826  0.0590 -2.3312
18055TIP3    H275657   4.122   5.110  11.081 -0.6754 -1.0390  1.1694
18056TIP3   OH275658   3.913   4.777  10.968 -0.1174 -0.5423 -0.2860
18056TIP3    H175659   3.872   4.699  10.931  0.1654 -1.3046  0.9713
18056TIP3    H275660   3.868   4.791  11.051  1.4144 -0.7759  0.6197
18057TIP3   OH275661   6.248   5.438   4.789  0.0362 -0.1500 -0.5572
18057TIP3    H175662   6.327   5.489   4.772 -0.5013  0.5407 -1.0337
18057TIP3    H275663   6.218   5.411   4.702 -0.0491 -0.7166 -0.3528
18058TIP3   OH275664   4.081   3.252   4.317  0.1338  0.0849 -0.3186
18058TIP3    H175665   4.057   3.169   4.358 -0.0454 -0.0761 -0.7423
18058TIP3    H275666   4.102   3.310   4.390 -0.2719 -0.1701  0.0044
18059TIP3   OH275667   4.961   2.832  13.999 -0.7355 -0.0197  0.2562
18059TIP3    H175668   4.900   2.903  14.018  0.2458  0.7675  0.4923
18059TIP3    H275669   4.961   2.824  13.904 -1.4026 -0.1951  0.2722
18060TIP3   OH275670   1.323   2.172   5.512 -0.0674 -0.1217 -0.2972
18060TIP3    H175671   1.295   2.174   5.603 -0.6842 -1.0484 -0.4637
18060TIP3    H275672   1.244   2.152   5.462  0.0558  1.3611 -1.1366
18061TIP3   OH275673   0.174   4.235  14.696 -0.8135 -0.1504  0.4897
18061TIP3    H175674   0.185   4.192  14.780  0.2771  0.9803  0.9441
18061TIP3    H275675   0.154   4.164  14.635 -1.4349 -0.9944  1.6597
18062TIP3   OH275676   4.372   2.094   3.651  0.9963 -0.0341 -0.5106
18062TIP3    H175677   4.419   2.168   3.689 -0.1281  0.6987 -0.5032
18062TIP3    H275678   4.426   2.066   3.577  1.7587  0.3753 -0.1149
18063TIP3   OH275679   3.616   3.975   2.340  0.0378 -0.3873 -0.1841
18063TIP3    H175680   3.567   4.057   2.346  0.0242 -0.3911 -0.2437
18063TIP3    H275681   3.610   3.950   2.248 -1.6291 -1.4995  0.2039
18064TIP3   OH275682   6.132   4.562   1.110 -0.1706 -0.7846  0.1142
18064TIP3    H175683   6.172   4.484   1.146 -0.4327 -1.1032 -0.2850
18064TIP3    H275684   6.200   4.629   1.115 -0.0611 -0.9447  0.7744
18065TIP3   OH275685   0.825   1.717   0.893 -0.5223 -0.0689  0.3484
18065TIP3    H175686   0.766   1.781   0.853 -0.4412  0.0087  0.3551
18065TIP3    H275687   0.785   1.697   0.978  0.2067  1.0442  0.9637
18066TIP3   OH275688   3.282   6.432  16.460  0.8157 -0.0167 -0.3496
18066TIP3    H175689   3.329   6.389  16.389 -1.1075 -0.1877 -1.5487
18066TIP3    H275690   3.337   6.418  16.537  0.6512 -3.9610 -0.8476
18067TIP3   OH275691   1.708   2.904  14.699  0.0113 -0.4343 -0.2095
18067TIP3    H175692   1.722   2.831  14.639  0.2273 -1.2842  0.8621
18067TIP3    H275693   1.614   2.903  14.716 -0.1524  0.2301 -1.0618
18068TIP3   OH275694   1.505   1.512   4.976 -0.0786  0.2067 -0.1991
18068TIP3    H175695   1.442   1.461   4.924  0.2658 -0.7798  0.3359
18068TIP3    H275696   1.566   1.547   4.911  0.0178 -0.5491 -0.5291
18069TIP3   OH275697   5.520   0.650  15.932  0.2819 -0.6744  0.3226
18069TIP3    H175698   5.587   0.629  15.867  0.7875 -0.2823  0.7039
18069TIP3    H275699   5.558   0.722  15.983 -1.4845  1.3374 -1.0975
18070TIP3   OH275700   6.177   4.884  16.575 -0.8889 -0.3416  0.0394
18070TIP3    H175701   6.259   4.835  16.573  0.7187  2.2833 -0.5448
18070TIP3    H275702   6.115   4.829  16.526  1.2605 -1.0685 -1.9299
18071TIP3   OH275703   6.310   1.167   6.486  0.2956 -0.0233  0.0834
18071TIP3    H175704   6.365   1.243   6.472  0.4701 -0.1824 -0.1025
18071TIP3    H275705   6.368   1.102   6.525  0.3416 -0.3362 -0.5081
18072TIP3   OH275706   5.781   6.699   5.966  0.1383 -0.0598  0.3197
18072TIP3    H175707   5.751   6.610   5.980  0.7888 -0.7346 -2.2834
18072TIP3    H275708   5.705   6.753   5.988 -0.2925 -1.2573  1.8005
18073TIP3   OH275709   2.258   3.252  10.766  0.6977 -0.2856 -0.7041
18073TIP3    H175710   2.261   3.196  10.688  1.8167  0.1642 -0.9939
18073TIP3    H275711   2.205   3.327  10.739 -0.9274 -1.2661 -0.2672
18074TIP3   OH275712   5.999   4.881   1.952  0.3173 -0.0134  0.3238
18074TIP3    H175713   5.946   4.809   1.917  1.1065 -0.3473 -0.2118
18074TIP3    H275714   6.087   4.864   1.918  0.5122  1.2081  0.1968
18075TIP3   OH275715   5.458   4.038  15.004  0.1666  0.2998  0.4480
18075TIP3    H175716   5.383   4.095  15.020 -0.4370 -1.0123  2.5137
18075TIP3    H275717   5.422   3.964  14.956  0.3464  0.1931  0.4771
18076TIP3   OH275718   5.768   5.559   6.004 -0.1091  0.4389 -0.1939
18076TIP3    H175719   5.736   5.474   6.035 -0.8345  1.7015  2.7636
18076TIP3    H275720   5.696   5.620   6.022 -0.2303  1.4496 -3.7471
18077TIP3   OH275721   0.324   1.524  15.213  0.7014 -0.6607  0.0992
18077TIP3    H175722   0.373   1.533  15.295 -1.2199 -0.2978  1.2367
18077TIP3    H275723   0.333   1.610  15.171 -1.6084  0.4784  1.8423
18078TIP3   OH275724   4.384   4.435  12.753  0.3808  0.0257 -0.2352
18078TIP3    H175725   4.430   4.457  12.834  0.0147 -1.6111  0.4362
18078TIP3    H275726   4.441   4.371  12.710 -0.5532 -0.8978 -0.1100
18079TIP3   OH275727   3.290   1.395  15.110 -0.1187  0.2295  0.3359
18079TIP3    H175728   3.369   1.370  15.062 -0.8631 -0.8942 -0.3328
18079TIP3    H275729   3.221   1.397  15.043 -0.9590 -0.2995  1.1693
18080TIP3   OH275730   2.918   5.477  14.257 -0.7925  0.2130 -0.0016
18080TIP3    H175731   2.950   5.543  14.319 -1.8194  1.5943 -0.9026
18080TIP3    H275732   2.990   5.416  14.247  0.8243  2.1807 -0.5159
18081TIP3   OH275733   0.788   4.968   4.001  0.5413 -0.0479 -0.4721
18081TIP3    H175734   0.790   4.898   3.935 -2.0547  0.1680 -0.8492
18081TIP3    H275735   0.772   4.922   4.083 -1.6081  0.0887 -0.7807
18082TIP3   OH275736   0.475   5.480  15.963  1.2226 -0.4160 -0.3858
18082TIP3    H175737   0.481   5.395  15.919  1.5949 -0.1676 -0.8178
18082TIP3    H275738   0.444   5.540  15.895  0.2063 -0.3550  0.1142
18083TIP3   OH275739   1.215   4.969   5.727  0.1330 -0.9033 -0.1805
18083TIP3    H175740   1.168   5.009   5.801  1.2433  0.9488 -0.4439
18083TIP3    H275741   1.152   4.973   5.655  0.8715  2.3276 -0.7539
18084TIP3   OH275742   5.023   3.829  10.964 -0.5781  0.2529 -0.0418
18084TIP3    H175743   5.075   3.856  11.040  0.9692 -1.0664 -0.5931
18084TIP3    H275744   5.088   3.799  10.901 -1.9178  0.5116 -1.5535
18085TIP3   OH275745   5.890   3.540   4.665  0.3158 -0.1283  0.4500
18085TIP3    H175746   5.928   3.627   4.665  0.6081 -0.2518  0.1145
18085TIP3    H275747   5.812   3.547   4.720  0.6095  0.2214  0.8270
18086TIP3   OH275748   1.633   6.385  14.502 -0.0882 -0.5251  0.1066
18086TIP3    H175749   1.588   6.440  14.567 -0.7615 -0.0235 -0.7837
18086TIP3    H275750   1.594   6.298  14.514 -0.4833 -0.3490  0.1229
18087TIP3   OH275751   6.433   5.950   0.343  0.1137 -0.2177  0.3665
18087TIP3    H175752   6.464   5.890   0.411 -1.4523 -0.8030  0.5798
18087TIP3    H275753   6.501   5.946   0.276 -0.0853 -2.4795  0.2340
18088TIP3   OH275754   0.702   3.255   5.011 -0.2921  0.2670 -0.1674
18088TIP3    H175755   0.616   3.232   4.976 -0.2333 -0.2071 -0.0019
18088TIP3    H275756   0.713   3.198   5.087  0.7724 -0.6684 -1.0055
18089TIP3   OH275757   6.622   4.596   1.951  0.4761  0.2694 -0.5018
18089TIP3    H175758   6.620   4.670   1.890  0.3377 -2.2436 -3.6725
18089TIP3    H275759   6.530   4.577   1.969  0.4812  0.3265 -0.4166
18090TIP3   OH275760   1.631   5.634   6.695 -0.1459  0.2904  0.0805
18090TIP3    H175761   1.686   5.559   6.674 -2.0577 -2.3730  3.8761
18090TIP3    H275762   1.692   5.704   6.718  1.6595 -0.9350 -0.9407
18091TIP3   OH275763   0.850   1.507  12.301 -0.2002  0.3436 -0.2981
18091TIP3    H175764   0.901   1.531  12.378  0.1009  0.1729 -0.4430
18091TIP3    H275765   0.905   1.445  12.253 -0.3379  0.5271 -0.7048
18092TIP3   OH275766   4.717   0.196   4.182 -0.2568 -0.0583 -0.2608
18092TIP3    H175767   4.703   0.187   4.087 -1.2464  0.1713 -0.1468
18092TIP3    H275768   4.654   0.136   4.221  1.3554 -1.4439  0.2229
18093TIP3   OH275769   0.607   3.678  13.576  0.4573 -0.5863 -0.2368
18093TIP3    H175770   0.530   3.621  13.585 -0.3489  0.2630 -1.5358
18093TIP3    H275771   0.589   3.752  13.634 -0.5273  0.4412 -1.7944
18094TIP3   OH275772   1.888   0.603   0.973  0.2803  0.3389  0.3380
18094TIP3    H175773   1.828   0.666   0.932 -0.1659  0.8563  1.7478
18094TIP3    H275774   1.975   0.635   0.951  0.0630 -0.1943 -1.4007
18095TIP3   OH275775   2.595   6.306  11.327  0.6814  0.5424  0.0980
18095TIP3    H175776   2.548   6.299  11.244  1.2460 -0.3790 -0.1479
18095TIP3    H275777   2.669   6.364  11.308 -0.0682  1.6115  0.3669
18096TIP3   OH275778   4.366   2.782  14.761  0.4448  0.3235 -0.2897
18096TIP3    H175779   4.415   2.860  14.734  1.0810 -0.6215 -1.9280
18096TIP3    H275780   4.433   2.722  14.794  0.3416 -0.7283 -1.9488
18097TIP3   OH275781   1.034   0.114   4.474  0.6918  0.0634  0.1346
18097TIP3    H175782   0.961   0.072   4.427  0.9317 -0.5561  0.3117
18097TIP3    H275783   1.095   0.042   4.491 -0.2143 -0.0794  3.0254
18098TIP3   OH275784   3.934   0.495   4.952 -0.2463  0.4947  0.0012
18098TIP3    H175785   4.008   0.531   5.001 -0.7942  0.9812  0.4903
18098TIP3    H275786   3.969   0.417   4.909  0.5280  0.6779  0.2887
18099TIP3   OH275787   3.824   2.339  13.298 -0.5585 -0.5095 -0.3963
18099TIP3    H175788   3.836   2.257  13.346 -0.5206 -0.5842 -0.5347
18099TIP3    H275789   3.730   2.355  13.302 -0.4847 -0.1972  0.2281
18100TIP3   OH275790   1.149   1.365   5.840 -0.4972 -0.3314  0.5521
18100TIP3    H175791   1.070   1.329   5.801 -0.5524  0.7416 -0.3714
18100TIP3    H275792   1.187   1.293   5.890 -3.1711 -0.2771  2.7975
18101TIP3   OH275793   3.199   6.749   4.874 -0.3063  0.6043 -0.4111
18101TIP3    H175794   3.241   6.811   4.814  1.5346 -0.3041 -0.0970
18101TIP3    H275795   3.178   6.802   4.951  0.0800  1.1289 -0.6539
18102TIP3   OH275796   0.202   5.652  15.944 -0.7877  0.0644  0.1594
18102TIP3    H175797   0.249   5.591  16.001  0.6352 -0.1661 -1.1992
18102TIP3    H275798   0.213   5.615  15.856 -2.5982  0.6128 -0.3201
18103TIP3   OH275799   4.089   1.750  14.277 -0.6151  0.2946  0.2661
18103TIP3    H175800   3.995   1.770  14.284 -0.4291  1.4956 -0.5474
18103TIP3    H275801   4.132   1.835  14.287  0.3284 -0.0854 -0.5400
18104TIP3   OH275802   0.069   4.904  13.589  0.1297 -0.1222  0.8198
18104TIP3    H175803   0.115   4.862  13.662  0.5839  1.9970  1.8008
18104TIP3    H275804   0.126   4.892  13.514  0.8175 -0.2388  1.3552
18105TIP3   OH275805   6.054   0.575   0.221  0.2961  0.6385 -0.6191
18105TIP3    H175806   6.148   0.589   0.218  0.5574 -0.6617  0.6191
18105TIP3    H275807   6.032   0.578   0.314 -0.5585 -0.9396 -0.7372
18106TIP3   OH275808   2.067   1.591  15.761 -0.1383 -0.1353  0.3839
18106TIP3    H175809   2.002   1.617  15.826  0.2929  1.2942  0.2620
18106TIP3    H275810   2.144   1.565  15.812 -0.4522 -0.8813  0.4921
18107TIP3   OH275811   2.639   1.603   4.626  0.6246 -0.4055 -0.1333
18107TIP3    H175812   2.555   1.592   4.670  0.1152  2.0191 -0.4161
18107TIP3    H275813   2.674   1.685   4.661  1.5752  0.0252 -2.0260
18108TIP3   OH275814   2.299   0.624   5.128 -0.5598 -0.1328 -0.3752
18108TIP3    H175815   2.285   0.637   5.221  0.0832  1.0346 -0.4241
18108TIP3    H275816   2.224   0.573   5.099 -0.0145 -1.7654  1.0500
18109TIP3   OH275817   4.310   4.093  16.361 -0.8024  0.0860 -0.2458
18109TIP3    H175818   4.363   4.088  16.281  0.4451 -0.4145  0.5886
18109TIP3    H275819   4.366   4.054  16.428 -0.8008  2.8400  1.3990
18110TIP3   OH275820   0.759   2.496   0.048  0.3592 -0.3992 -0.0013
18110TIP3    H175821   0.748   2.401   0.047  0.4674 -0.4159  0.3134
18110TIP3    H275822   0.724   2.523   0.133  2.0575 -0.3603  0.6955
18111TIP3   OH275823   5.389   5.904  16.361 -0.1790 -0.1674 -0.0691
18111TIP3    H175824   5.334   5.869  16.291 -0.4718 -0.1122  0.1371
18111TIP3    H275825   5.446   5.830  16.384 -1.4698 -0.8379  1.0533
18112TIP3   OH275826   6.793   6.683   2.258 -0.4592 -0.0857 -0.4128
18112TIP3    H175827   6.796   6.590   2.283 -0.6169  0.3652  1.3569
18112TIP3    H275828   6.876   6.719   2.287 -0.4811  0.3817 -0.9174
18113TIP3   OH275829   5.339   2.321   0.069  0.3388  0.0137  0.2812
18113TIP3    H175830   5.364   2.403   0.025 -0.8977  1.4548  2.2051
18113TIP3    H275831   5.268   2.286   0.014  0.3454  0.6338 -0.1367
18114TIP3   OH275832   6.265   0.609  12.228 -0.3182  0.1805  0.3840
18114TIP3    H175833   6.244   0.575  12.141  3.5432 -0.0854 -0.5575
18114TIP3    H275834   6.274   0.703  12.215 -0.5830  0.2423  0.6659
18115TIP3   OH275835   1.230   5.638   4.966 -0.5704 -0.0135  0.5168
18115TIP3    H175836   1.300   5.581   4.934 -0.6815  0.6832 -0.9975
18115TIP3    H275837   1.163   5.577   4.997  0.2571 -0.6899  1.0096
18116TIP3   OH275838   5.192   0.570  12.447 -0.4751 -0.6333  0.3570
18116TIP3    H175839   5.108   0.525  12.443 -1.1903  0.6175  1.2599
18116TIP3    H275840   5.176   0.656  12.408  0.4663 -0.5036  0.2352
18117TIP3   OH275841   4.464   4.747   0.393 -0.2841  0.2982 -0.6190
18117TIP3    H175842   4.554   4.753   0.360  0.4001  0.2935  1.1913
18117TIP3    H275843   4.474   4.727   0.486 -2.1830 -1.0893 -0.6832
18118TIP3   OH275844   3.938   2.107  10.031 -0.2105  0.2092  0.0327
18118TIP3    H175845   4.018   2.057  10.049  0.2031  0.3455 -1.3073
18118TIP3    H275846   3.867   2.049  10.056  0.3167  0.4183  2.0654
18119TIP3   OH275847   0.877   1.725  15.694 -0.6603  0.0420 -0.5265
18119TIP3    H175848   0.962   1.751  15.731 -0.8863 -1.7727  1.3368
18119TIP3    H275849   0.812   1.759  15.755 -1.0434 -2.7876  0.7206
18120TIP3   OH275850   1.039   6.449  13.183  0.4363  0.3068 -0.1664
18120TIP3    H175851   1.131   6.461  13.206  0.5726 -0.3044 -0.3950
18120TIP3    H275852   1.025   6.354  13.187 -0.6137  0.4941  1.5665
18121TIP3   OH275853   1.485   3.284   2.246 -0.3773 -0.1216  1.2085
18121TIP3    H175854   1.534   3.288   2.164 -0.6614 -0.4519  1.0205
18121TIP3    H275855   1.504   3.367   2.290 -0.8775  0.4027  0.4369
18122TIP3   OH275856   4.270   5.268  14.609 -0.1063  0.5385 -0.4394
18122TIP3    H175857   4.342   5.321  14.574 -0.5209  0.3422 -1.6256
18122TIP3    H275858   4.209   5.260  14.535 -0.0754 -1.5297 -0.2461
18123TIP3   OH275859   0.962   5.266  14.979 -0.0244  0.1548  0.0844
18123TIP3    H175860   0.894   5.324  15.013  0.2000  0.6400 -0.2727
18123TIP3    H275861   1.044   5.313  14.994 -0.0021  0.9053 -2.1008
18124TIP3   OH275862   3.361   5.375  14.368 -0.2113  0.6920 -0.1930
18124TIP3    H175863   3.348   5.282  14.389  1.0366  0.3680 -0.7705
18124TIP3    H275864   3.281   5.401  14.323  0.7505 -1.0076 -3.0354
18125TIP3   OH275865   6.418   2.283  12.251  0.1817  0.0229 -0.0423
18125TIP3    H175866   6.331   2.273  12.289  0.5793  0.8454  1.1346
18125TIP3    H275867   6.471   2.217  12.295  0.9033  1.7142  1.7087
18126TIP3   OH275868   6.199   6.601  16.549  0.1782 -0.2647  0.2238
18126TIP3    H175869   6.144   6.652  16.490  0.2777 -0.3862  0.0256
18126TIP3    H275870   6.141   6.579  16.622  0.9224  2.7810  1.8552
18127TIP3   OH275871   1.743   2.081   2.199 -0.0029  0.2039  0.4614
18127TIP3    H175872   1.828   2.108   2.165 -0.1540 -1.3696 -1.2063
18127TIP3    H275873   1.701   2.163   2.226  1.8917  1.0212  1.0004
18128TIP3   OH275874   1.761   2.024  12.032  1.3034  0.3554 -0.5660
18128TIP3    H175875   1.770   2.105  12.082  1.9738  0.5038 -0.9267
18128TIP3    H275876   1.795   2.044  11.945 -0.2815  0.2197 -1.2291
18129TIP3   OH275877   0.075   1.017   0.354  0.3213 -0.3326 -0.1164
18129TIP3    H175878  -0.016   1.046   0.343 -0.1285 -2.1163 -1.3503
18129TIP3    H275879   0.116   1.033   0.269  1.0622  0.1416  0.3312
18130TIP3   OH275880   5.022   6.292  13.737  0.2247 -0.2601  0.7743
18130TIP3    H175881   5.032   6.224  13.670 -0.4759 -0.0584  0.4539
18130TIP3    H275882   4.953   6.257  13.794  0.8399 -0.4443  1.4069
18131TIP3   OH275883   1.403   4.460   2.587  0.0722 -0.1447 -0.4185
18131TIP3    H175884   1.498   4.453   2.595 -0.1037 -0.2749  2.0146
18131TIP3    H275885   1.384   4.553   2.603 -0.1770 -0.0069 -1.4638
18132TIP3   OH275886   2.136   6.127   5.544 -0.2638  0.2824 -0.0256
18132TIP3    H175887   2.217   6.151   5.499  0.4595 -0.5969  0.7824
18132TIP3    H275888   2.124   6.196   5.610 -0.1703  0.4213 -0.1551
18133TIP3   OH275889   6.409   1.876   3.949 -0.5082  0.4798 -0.5656
18133TIP3    H175890   6.343   1.859   3.882 -0.9635 -1.3383  0.3215
18133TIP3    H275891   6.469   1.939   3.909 -1.0184 -0.2668 -2.5249
18134TIP3   OH275892   6.498   6.748   4.935 -0.1799  0.2049 -0.6113
18134TIP3    H175893   6.424   6.706   4.979  1.7433 -1.2045  1.4040
18134TIP3    H275894   6.489   6.841   4.956 -1.5362  0.0930 -0.6490
18135TIP3   OH275895   4.331   0.359  13.787 -0.8272  0.2363  0.3037
18135TIP3    H175896   4.330   0.350  13.692 -1.7232 -1.2731  0.4398
18135TIP3    H275897   4.355   0.451  13.802 -0.3389  0.4023 -1.3598
18136TIP3   OH275898   5.593   3.233  12.083 -0.1358 -0.2539 -0.5810
18136TIP3    H175899   5.687   3.220  12.092 -0.0493  0.5138 -0.4146
18136TIP3    H275900   5.566   3.275  12.165 -0.6409 -0.5542 -0.5877
18137TIP3   OH275901   5.640   1.811   3.524 -0.3089 -0.1236 -0.1523
18137TIP3    H175902   5.623   1.742   3.589  1.3311  0.4926  0.9571
18137TIP3    H275903   5.559   1.814   3.472 -0.6928 -2.3728  0.2315
18138TIP3   OH275904   0.604   4.807  11.145 -0.2576  0.5980 -0.2619
18138TIP3    H175905   0.537   4.839  11.086  0.2402  0.2459 -1.0239
18138TIP3    H275906   0.677   4.783  11.088 -0.3354 -1.1782  0.3439
18139TIP3   OH275907   0.118   0.309   1.260  0.2766 -0.4789 -0.3112
18139TIP3    H175908   0.183   0.259   1.212  0.6887 -0.4081  0.1731
18139TIP3    H275909   0.101   0.258   1.339  1.7821  0.8590  0.8934
18140TIP3   OH275910   1.071   4.054  16.270 -0.0377 -0.1606 -0.6997
18140TIP3    H175911   1.020   4.080  16.347 -1.9465  1.1872 -2.3355
18140TIP3    H275912   1.006   4.017  16.211  1.7359 -3.0918 -0.8676
18141TIP3   OH275913   6.467   0.701   1.116  0.6871 -0.1652 -0.5619
18141TIP3    H175914   6.517   0.641   1.060  2.1090 -0.3302  0.8336
18141TIP3    H275915   6.419   0.643   1.176 -0.8608  0.0059 -1.6056
18142TIP3   OH275916   4.679   3.404   0.274 -0.4847  0.3689  0.4628
18142TIP3    H175917   4.766   3.411   0.312 -0.6809 -0.0649  0.9869
18142TIP3    H275918   4.643   3.492   0.280  0.7126  1.0514 -1.6755
18143TIP3   OH275919   2.671   0.635  13.945  0.6486 -0.0326 -0.2656
18143TIP3    H175920   2.722   0.715  13.957 -1.1218  1.0819 -0.0059
18143TIP3    H275921   2.734   0.572  13.909  2.1913  1.3036  0.0094
18144TIP3   OH275922   2.009   5.942   3.125  0.1218  0.4449 -0.8263
18144TIP3    H175923   2.074   5.959   3.193 -0.2315  0.1189 -0.4020
18144TIP3    H275924   2.060   5.914   3.049  0.4866  0.3525 -0.5472
18145TIP3   OH275925   0.533   2.469   4.485 -0.0437  0.7783 -0.2766
18145TIP3    H175926   0.586   2.447   4.562  1.0408  2.2809 -0.5853
18145TIP3    H275927   0.450   2.424   4.500  1.2295 -1.4632  0.3040
18146TIP3   OH275928   5.261   5.780   4.986  0.3929  0.3321 -0.8035
18146TIP3    H175929   5.270   5.876   4.982  1.1890  0.2215 -1.7809
18146TIP3    H275930   5.345   5.747   4.957  0.3359 -0.6802  0.1557
18147TIP3   OH275931   5.998   0.175   2.164 -0.4970  0.0323  0.7736
18147TIP3    H175932   5.997   0.095   2.217  1.5952  0.1259  0.9795
18147TIP3    H275933   6.082   0.216   2.182 -0.0627  0.4928 -1.9795
18148TIP3   OH275934   2.133   0.946   3.574 -0.0491 -0.2808 -0.4294
18148TIP3    H175935   2.051   0.997   3.571  0.6699  0.8836 -0.5440
18148TIP3    H275936   2.117   0.873   3.514 -0.9156  0.0701 -0.6434
18149TIP3   OH275937   1.715   0.257  14.008  0.1427  0.4053  0.1817
18149TIP3    H175938   1.714   0.207  13.926 -1.7366 -2.0487  1.6087
18149TIP3    H275939   1.661   0.334  13.990  0.5289  0.3653 -1.1690
18150TIP3   OH275940   4.412   5.454   3.939  0.2446 -0.2469 -0.6485
18150TIP3    H175941   4.325   5.479   3.971  0.1652 -0.1391 -0.9471
18150TIP3    H275942   4.467   5.530   3.959 -0.2932  0.7696 -2.8077
18151TIP3   OH275943   1.621   3.301   4.789  0.0338  0.1967 -0.2150
18151TIP3    H175944   1.710   3.336   4.791 -0.4493  1.5528 -1.9788
18151TIP3    H275945   1.610   3.260   4.875  1.2773  2.7799  1.2545
18152TIP3   OH275946   5.131   3.332  15.288  0.3979 -0.6822 -0.2483
18152TIP3    H175947   5.108   3.422  15.264  0.6219 -0.0573  1.7752
18152TIP3    H275948   5.193   3.341  15.360 -0.9232 -2.4706  1.1629
18153TIP3   OH275949   5.059   2.675   2.535 -0.3936  0.1288  0.2463
18153TIP3    H175950   4.988   2.626   2.493  0.1573 -1.8799  1.5962
18153TIP3    H275951   5.137   2.650   2.485 -0.4607  1.4872 -0.5512
18154TIP3   OH275952   4.575   2.437   0.804 -0.2167  0.1717  0.1735
18154TIP3    H175953   4.575   2.384   0.724  1.0546  1.3620 -0.6392
18154TIP3    H275954   4.666   2.465   0.814 -0.4724  0.4461  1.7612
18155TIP3   OH275955   6.520   2.471  15.899 -0.1271  0.3519 -0.0227
18155TIP3    H175956   6.443   2.461  15.956  0.5390  0.7487  0.9444
18155TIP3    H275957   6.592   2.489  15.958  0.6888  0.1918 -0.9539
18156TIP3   OH275958   6.532   1.149  11.584  1.2008 -0.2386  0.4316
18156TIP3    H175959   6.513   1.058  11.558 -1.3630  0.6928 -1.1826
18156TIP3    H275960   6.447   1.193  11.579  2.6635  2.6197 -0.2589
18157TIP3   OH275961   0.214   2.191   3.850  0.6207  0.1335 -0.4795
18157TIP3    H175962   0.197   2.108   3.806 -0.3838 -1.8803  3.4605
18157TIP3    H275963   0.127   2.231   3.861  0.8483  0.5855 -0.2826
18158TIP3   OH275964   0.350   1.266  16.034 -0.2190  0.4309  0.0134
18158TIP3    H175965   0.296   1.187  16.027 -1.8026  1.5101 -0.2566
18158TIP3    H275966   0.312   1.326  15.970  0.3851  1.7489  0.8837
18159TIP3   OH275967   6.475   6.551   0.418 -0.2220 -0.6657  0.3234
18159TIP3    H175968   6.427   6.632   0.433  1.3448  0.1694  1.0458
18159TIP3    H275969   6.410   6.489   0.386 -1.7874  0.3760  1.4185
18160TIP3   OH275970   1.789   3.927   1.544  0.0773  0.3294  0.0830
18160TIP3    H175971   1.881   3.903   1.550  0.6550  2.5662  0.5912
18160TIP3    H275972   1.758   3.926   1.634 -0.5598 -1.0194 -0.1485
18161TIP3   OH275973   3.638   1.394   6.333 -0.3835 -0.2677 -0.4290
18161TIP3    H175974   3.603   1.483   6.337 -0.5660 -0.2886 -1.3858
18161TIP3    H275975   3.659   1.372   6.423  0.0694  0.9103 -0.2427
18162TIP3   OH275976   6.605   4.437  12.347  0.2062 -0.1559 -0.0029
18162TIP3    H175977   6.667   4.393  12.289  0.0859  1.6802 -1.5659
18162TIP3    H275978   6.534   4.464  12.290  0.0820  1.6965  0.9905
18163TIP3   OH275979   4.141   0.753   5.829 -0.2607  0.0186  0.1301
18163TIP3    H175980   4.156   0.752   5.924 -1.8246 -0.3975  0.3909
18163TIP3    H275981   4.204   0.690   5.795 -1.7380 -2.1814  1.2647
18164TIP3   OH275982   6.047   1.089   1.027  0.0326 -0.0328  0.2593
18164TIP3    H175983   6.038   1.052   0.939 -0.4868  0.5241  0.0760
18164TIP3    H275984   6.035   1.183   1.015  2.7448  0.3745  0.5061
18165TIP3   OH275985   4.678   1.731   0.197  0.3470 -0.3994  0.0538
18165TIP3    H175986   4.665   1.669   0.269  0.5631  1.0543  1.3583
18165TIP3    H275987   4.610   1.797   0.209  2.7518  1.9459  1.2132
18166TIP3   OH275988   0.120   0.067   1.440  0.1252  0.8774 -0.1506
18166TIP3    H175989   0.125   0.150   1.488  0.0147  1.0841 -0.5021
18166TIP3    H275990   0.162   0.004   1.499 -0.3297  1.0636  0.3778
18167TIP3   OH275991   5.275   3.581  12.937 -0.1950 -0.3457 -0.5797
18167TIP3    H175992   5.333   3.636  12.884 -0.5052 -0.2229 -0.7989
18167TIP3    H275993   5.304   3.595  13.027 -0.7524  0.7642 -0.5592
18168TIP3   OH275994   4.153   4.325   1.034  0.4453  0.3368  0.2580
18168TIP3    H175995   4.087   4.389   1.005 -0.6644 -0.6177  0.6416
18168TIP3    H275996   4.130   4.244   0.989  0.4069 -0.4164  1.5945
18169TIP3   OH275997   5.661   3.084   2.610  0.4702  0.1163  0.6518
18169TIP3    H175998   5.690   3.176   2.609 -0.7558  0.5284 -0.8780
18169TIP3    H275999   5.633   3.068   2.700 -2.3903  2.2961  0.2223
18170TIP3   OH276000   3.733   4.315  12.001 -0.4355 -0.1095 -0.4222
18170TIP3    H176001   3.811   4.273  11.964  1.6130  0.6107  2.8479
18170TIP3    H276002   3.761   4.405  12.020 -1.4214 -0.3425  2.4566
18171TIP3   OH276003   2.754   1.246  13.093 -0.1421  0.1873 -0.1033
18171TIP3    H176004   2.683   1.200  13.049 -0.6929 -0.0900  1.0482
18171TIP3    H276005   2.825   1.250  13.029 -1.2297  0.5470 -1.2906
18172TIP3   OH276006   3.079   5.683  16.876  0.1877  0.2828  0.1612
18172TIP3    H176007   3.107   5.764  16.833 -0.2403  1.6978  2.4680
18172TIP3    H276008   3.143   5.618  16.848  1.6311  1.8572 -0.2772
18173TIP3   OH276009   2.784   0.702  16.899  0.1687  0.2711  0.0431
18173TIP3    H176010   2.804   0.794  16.883 -0.2778  0.2340 -0.7476
18173TIP3    H276011   2.697   0.703  16.940 -0.9226  0.0776 -2.1660
18174TIP3   OH276012   0.868   2.471   4.167 -0.0966  0.2727 -0.3882
18174TIP3    H176013   0.783   2.474   4.212 -0.5989 -1.7454 -1.1459
18174TIP3    H276014   0.847   2.488   4.075 -0.0300 -2.4966 -0.9612
18175TIP3   OH276015   0.428   5.444   4.636 -0.1892 -0.0532  0.0150
18175TIP3    H176016   0.489   5.508   4.675  0.4670 -1.2982  1.0817
18175TIP3    H276017   0.481   5.366   4.624 -1.2610 -0.7396 -0.2648
18176TIP3   OH276018   3.172   5.769   0.578  0.0001  0.1711 -0.3071
18176TIP3    H176019   3.080   5.765   0.552  0.1324  0.6185 -0.8465
18176TIP3    H276020   3.175   5.835   0.647 -0.1615 -0.2092  0.0725
18177TIP3   OH276021   6.381   5.957  16.733  0.3125  0.1033 -0.2638
18177TIP3    H176022   6.464   5.969  16.778  1.3977 -1.3183 -1.7976
18177TIP3    H276023   6.375   6.031  16.673  1.1916 -0.5249 -1.1603
18178TIP3   OH276024   2.661   1.103   0.703 -0.0897  0.1831  0.3082
18178TIP3    H176025   2.664   1.196   0.678 -1.9086 -0.1923 -1.4661
18178TIP3    H276026   2.569   1.079   0.694  0.6681 -2.3201 -1.2940
18179TIP3   OH276027   3.511   1.856  15.233 -0.2186 -0.1068 -0.0390
18179TIP3    H176028   3.443   1.824  15.173  1.4551  0.5047 -2.3643
18179TIP3    H276029   3.593   1.835  15.188  1.1448 -0.7454  2.6729
18180TIP3   OH276030   2.265   4.508   2.078  0.3971 -1.1290  0.0195
18180TIP3    H176031   2.234   4.512   2.168 -2.0460 -0.6241 -0.7970
18180TIP3    H276032   2.266   4.599   2.048  0.0840 -1.3931 -0.8135
18181TIP3   OH276033   3.555   0.234   2.034 -0.1362  0.0561  0.4107
18181TIP3    H176034   3.535   0.235   2.127  3.3179 -0.6869  1.2297
18181TIP3    H276035   3.494   0.171   1.996  0.0987 -1.5135  2.5970
18182TIP3   OH276036   1.784   4.409  17.266  0.6373 -0.5096  0.2386
18182TIP3    H176037   1.715   4.423  17.202  0.8098  0.5469  0.2657
18182TIP3    H276038   1.860   4.455  17.230  0.3403  1.3540  1.8628
18183TIP3   OH276039   6.005   2.086   3.886  0.0243 -0.6047 -0.0704
18183TIP3    H176040   5.924   2.060   3.929 -0.4128 -1.1551 -1.1908
18183TIP3    H276041   6.070   2.085   3.955 -0.7225 -1.1955  0.6371
18184TIP3   OH276042   2.712   6.443   6.098 -0.6255  0.8953  0.1296
18184TIP3    H176043   2.787   6.453   6.156 -1.2757 -1.1644  1.3833
18184TIP3    H276044   2.647   6.505   6.132 -0.8164  0.0635  1.3149
18185TIP3   OH276045   4.718   0.156  16.175  0.3440 -0.4045  0.7344
18185TIP3    H176046   4.775   0.195  16.108 -0.6280  0.2903  0.2987
18185TIP3    H276047   4.717   0.062  16.154  0.9907 -0.3558  0.4923
18186TIP3   OH276048   3.057   5.612  12.504 -0.4659  0.7101  0.1683
18186TIP3    H176049   3.016   5.683  12.455 -0.4982  0.0410 -0.7945
18186TIP3    H276050   2.984   5.570  12.551 -0.6984  0.2928 -0.5634
18187TIP3   OH276051   1.973   1.869  12.143  0.5441 -0.2478 -0.1415
18187TIP3    H176052   1.944   1.960  12.137 -0.9488 -0.6762  0.4026
18187TIP3    H276053   2.046   1.864  12.082  1.4921  1.6340  0.7803
18188TIP3   OH276054   2.422   0.271   4.326 -0.6229  0.3851  0.3056
18188TIP3    H176055   2.506   0.293   4.288 -1.2515  0.4171 -1.0948
18188TIP3    H276056   2.394   0.351   4.371 -1.2081  1.2986 -1.6404
18189TIP3   OH276057   0.172   2.752  12.053 -0.1384  0.0353 -0.3115
18189TIP3    H176058   0.160   2.728  11.961 -0.5377 -0.1299 -0.2179
18189TIP3    H276059   0.141   2.676  12.102 -0.3026  0.2810 -0.0331
18190TIP3   OH276060   3.345   1.359   1.598 -0.7259  0.0226 -0.2608
18190TIP3    H176061   3.380   1.306   1.526 -1.5671  0.4098 -0.9726
18190TIP3    H276062   3.254   1.376   1.573 -1.6056 -1.4296  1.8119
18191TIP3   OH276063   6.395   6.090  10.837 -0.1401  0.0411 -0.3112
18191TIP3    H176064   6.338   6.129  10.771 -1.4449  0.6831  1.1560
18191TIP3    H276065   6.378   5.996  10.831  0.3323  0.0191 -1.4112
18192TIP3   OH276066   4.771   2.807  12.467  0.2785 -0.0752  0.1159
18192TIP3    H176067   4.817   2.890  12.480 -0.4438  0.3220  0.1975
18192TIP3    H276068   4.804   2.774  12.384  0.5558  0.3120  0.0731
18193TIP3   OH276069   5.139   3.595   6.338  0.0103 -0.8157 -0.3507
18193TIP3    H176070   5.116   3.608   6.430  1.8604 -0.9106  0.1479
18193TIP3    H276071   5.075   3.531   6.306  0.7748 -2.5707  1.5168
18194TIP3   OH276072   1.478   0.277  13.477  0.1914  0.7052 -0.4521
18194TIP3    H176073   1.540   0.276  13.404  0.1201  1.3724 -0.5282
18194TIP3    H276074   1.427   0.197  13.467  0.5489  0.5232 -0.8171
18195TIP3   OH276075   3.870   4.379   6.564 -0.0334 -0.1365 -0.5899
18195TIP3    H176076   3.799   4.411   6.620  0.4373  0.1161 -0.1263
18195TIP3    H276077   3.914   4.458   6.533  0.4215 -0.2986 -0.3751
18196TIP3   OH276078   3.400   3.014  13.824 -0.2432 -0.3062 -0.5138
18196TIP3    H176079   3.364   2.944  13.768  0.4436  0.0999 -1.4673
18196TIP3    H276080   3.338   3.086  13.814  0.2540  0.0221 -1.3378
18197TIP3   OH276081   2.897   1.709   4.954  0.3689  0.3939 -0.0841
18197TIP3    H176082   2.936   1.715   5.041  2.9654  0.1171 -1.1665
18197TIP3    H276083   2.904   1.616   4.931 -0.9130  0.3524 -0.3447
18198TIP3   OH276084   4.254   5.563  16.569  0.0393  0.2246  0.6182
18198TIP3    H176085   4.328   5.509  16.596  0.3197  0.8625  1.1471
18198TIP3    H276086   4.202   5.574  16.649 -1.9285 -2.2339 -0.2567
18199TIP3   OH276087   5.224   1.154   4.242 -0.7646 -0.3423 -0.0426
18199TIP3    H176088   5.299   1.187   4.292  0.0594 -0.6876 -1.0407
18199TIP3    H276089   5.183   1.232   4.207 -0.1337 -0.2165 -0.5233
18200TIP3   OH276090   1.320   5.221   3.899  0.6563 -0.3106 -0.1499
18200TIP3    H176091   1.373   5.297   3.923  0.7988 -0.1093 -1.0942
18200TIP3    H276092   1.366   5.181   3.826  0.3920 -1.1102  0.1144
18201TIP3   OH276093   2.838   6.726   0.426  0.7754  0.2237  0.4561
18201TIP3    H176094   2.874   6.783   0.494 -0.1106 -0.1988  1.2856
18201TIP3    H276095   2.903   6.730   0.355  2.5155 -0.6241  1.9725
18202TIP3   OH276096   0.148   6.726   5.129 -0.1936  0.4083  0.3925
18202TIP3    H176097   0.131   6.673   5.207 -0.0670 -0.8780 -0.4418
18202TIP3    H276098   0.218   6.786   5.155  1.2409 -1.3380  0.7046
18203TIP3   OH276099   4.749   0.541   3.545  0.0309 -0.1552 -0.7018
18203TIP3    H176100   4.794   0.586   3.617 -0.8066 -0.3701 -0.0288
18203TIP3    H276101   4.814   0.535   3.476 -0.1871  3.1401 -1.2618
18204TIP3   OH276102   3.281   4.920  15.526  0.4910  0.0313 -0.5013
18204TIP3    H176103   3.244   4.989  15.471 -0.7763 -0.5650 -0.4232
18204TIP3    H276104   3.374   4.920  15.506  0.4006  1.3271 -0.9839
18205TIP3   OH276105   4.139   5.722   2.554  0.0286 -0.3788 -0.0163
18205TIP3    H176106   4.195   5.789   2.515  1.0422 -0.2599  1.6178
18205TIP3    H276107   4.053   5.764   2.558  0.6319  0.8229  0.9238
18206TIP3   OH276108   3.286   6.442  15.303 -0.7458 -0.0044 -0.0693
18206TIP3    H176109   3.217   6.378  15.319 -1.0172  0.6533  1.5463
18206TIP3    H276110   3.324   6.416  15.219 -2.2945 -0.9562 -0.5003
18207TIP3   OH276111   0.753   2.792  11.693 -0.2097 -0.0540  0.6764
18207TIP3    H176112   0.686   2.829  11.635 -0.0527  0.0922  0.5846
18207TIP3    H276113   0.780   2.866  11.748 -1.8454 -0.6907  2.3801
18208TIP3   OH276114   4.360   1.984  12.731  0.0795  0.4460 -0.0939
18208TIP3    H176115   4.338   2.072  12.699  0.3606  1.2628  1.8738
18208TIP3    H276116   4.301   1.926  12.682  0.6065  1.5985 -2.1739
18209TIP3   OH276117   3.067   2.524   5.720  0.2239  0.5124 -0.7335
18209TIP3    H176118   3.112   2.506   5.802  1.4260  2.1734 -1.0299
18209TIP3    H276119   3.016   2.444   5.704 -2.7131  1.3833  3.3312
18210TIP3   OH276120   5.748   2.574  13.251  0.1536  0.1469 -0.5206
18210TIP3    H176121   5.717   2.652  13.205 -0.2970 -0.3402 -1.0468
18210TIP3    H276122   5.687   2.505  13.226  0.7943 -0.4771 -0.3930
18211TIP3   OH276123   1.257   6.241  12.938  0.5715  0.1877  0.0478
18211TIP3    H176124   1.268   6.168  12.998  1.9231  1.9065  1.9795
18211TIP3    H276125   1.315   6.222  12.865  0.2828 -1.0513  0.1381
18212TIP3   OH276126   0.177   4.631   3.084  0.3316 -0.9417 -0.0886
18212TIP3    H176127   0.193   4.687   3.008  2.7822 -0.9863  0.3672
18212TIP3    H276128   0.216   4.678   3.158 -2.0732 -0.8718  1.1920
18213TIP3   OH276129   4.315   5.325  14.216  0.3128 -0.0050  0.5245
18213TIP3    H176130   4.308   5.358  14.127  0.0114  0.1159  0.5884
18213TIP3    H276131   4.358   5.240  14.208 -0.4911 -0.3923  0.1686
18214TIP3   OH276132   1.339   0.569  15.863 -0.6032 -0.2042  0.0607
18214TIP3    H176133   1.422   0.608  15.836 -1.0699  0.4637 -0.4368
18214TIP3    H276134   1.345   0.563  15.959  0.1590 -0.5049 -0.0015
18215TIP3   OH276135   3.839   4.519   3.222  0.1075 -0.1620  0.2973
18215TIP3    H176136   3.846   4.600   3.173 -1.9269 -1.4802 -2.3148
18215TIP3    H276137   3.887   4.454   3.169  0.0713 -1.0821  1.3617
18216TIP3   OH276138   5.017   0.208   2.286  0.0104 -0.0960 -0.7690
18216TIP3    H176139   5.012   0.114   2.302  0.2806  0.2389  1.3847
18216TIP3    H276140   5.078   0.241   2.351 -0.1789  1.5955 -1.4155
18217TIP3   OH276141   1.100   1.134   4.359 -0.3512 -0.5779 -0.3849
18217TIP3    H176142   1.163   1.062   4.353 -0.0591 -0.2519 -1.2138
18217TIP3    H276143   1.069   1.147   4.269 -0.3692  0.3643 -0.2470
18218TIP3   OH276144   2.521   4.971   5.339  0.2371 -0.5594  0.2759
18218TIP3    H176145   2.492   5.054   5.303  1.1194 -1.0757 -1.7655
18218TIP3    H276146   2.442   4.919   5.348 -0.5166  0.9618  2.9642
18219TIP3   OH276147   4.171   5.021   4.192  0.2402  0.3200  0.2404
18219TIP3    H176148   4.262   4.997   4.174 -0.2938 -1.6325  0.0099
18219TIP3    H276149   4.121   4.980   4.121 -0.8501  1.2263  0.4694
18220TIP3   OH276150   5.985   3.531   0.903  0.4089  0.0784 -0.6061
18220TIP3    H176151   6.031   3.545   0.820  0.0070  1.2092 -0.6428
18220TIP3    H276152   5.992   3.437   0.918  0.7353 -0.0968 -1.7797
18221TIP3   OH276153   0.722   2.761   4.916 -0.2542 -0.3946 -0.5111
18221TIP3    H176154   0.694   2.768   5.007 -1.4936  1.4001 -1.0105
18221TIP3    H276155   0.735   2.851   4.888  1.1162 -0.9736 -1.8205
18222TIP3   OH276156   6.273   2.257   2.952 -0.1318  0.6106 -0.4187
18222TIP3    H176157   6.214   2.317   2.997 -0.1561  0.1235  0.2122
18222TIP3    H276158   6.283   2.183   3.013  2.3245  1.3663  0.1713
18223TIP3   OH276159   2.285   4.364  15.637  0.9295 -0.2928 -0.0509
18223TIP3    H176160   2.360   4.354  15.696 -0.6380  1.2380  2.3032
18223TIP3    H276161   2.243   4.278  15.637  2.8114 -1.2392 -1.6091
18224TIP3   OH276162   0.930   0.325  14.244  0.0071 -0.1445  0.1603
18224TIP3    H176163   0.934   0.391  14.175 -1.9461 -0.4618 -0.3070
18224TIP3    H276164   0.938   0.242  14.198 -0.8943 -0.3429  0.3467
18225TIP3   OH276165   0.712   3.154   0.619 -0.6308 -0.4345 -0.2567
18225TIP3    H176166   0.692   3.062   0.631 -0.0997 -0.8575 -2.3732
18225TIP3    H276167   0.694   3.171   0.526  1.4874  0.9876 -0.4553
18226TIP3   OH276168   3.225   0.688   0.904  0.1026  0.1916 -1.3786
18226TIP3    H176169   3.191   0.630   0.972  2.3456 -0.4996 -0.7681
18226TIP3    H276170   3.174   0.667   0.826 -1.5093 -0.0531 -0.2799
18227TIP3   OH276171   2.194   5.315   3.398  0.5034 -0.0114 -0.1791
18227TIP3    H176172   2.169   5.361   3.477  0.2944  0.8385 -0.7335
18227TIP3    H276173   2.195   5.223   3.423 -0.9861  0.1183  0.4445
18228TIP3   OH276174   5.928   1.974  12.258 -0.2084 -0.3918 -0.8038
18228TIP3    H176175   5.878   2.005  12.182 -0.5429  0.4626 -0.2428
18228TIP3    H276176   5.863   1.959  12.326  0.2674  0.5773 -0.1154
18229TIP3   OH276177   1.408   0.484  11.052  0.1917  0.3814 -0.1188
18229TIP3    H176178   1.367   0.435  11.123  0.5356  1.0804  0.5736
18229TIP3    H276179   1.459   0.419  11.004  0.3642  0.0033  0.5773
18230TIP3   OH276180   0.025   4.996   1.327  0.1300  0.1685  0.4610
18230TIP3    H176181   0.062   4.949   1.402  2.9600  0.5516 -0.6562
18230TIP3    H276182   0.002   5.082   1.361  1.2920  0.3016  0.9403
18231TIP3   OH276183   3.774   2.222  15.712  0.6557 -0.1647  0.2455
18231TIP3    H176184   3.821   2.272  15.646  1.5813 -0.5349  0.6125
18231TIP3    H276185   3.801   2.131  15.697 -1.3889 -0.6434 -0.7444
18232TIP3   OH276186   4.846   3.034   5.975 -0.3259 -0.9358  0.0521
18232TIP3    H176187   4.939   3.026   5.957 -0.7435  1.1225 -3.3770
18232TIP3    H276188   4.837   3.118   6.021 -0.4401 -1.4969  1.0857
18233TIP3   OH276189   5.046   3.820  15.365  0.1547  0.2239  0.1619
18233TIP3    H176190   5.070   3.800  15.455  0.7530  0.3236  0.0290
18233TIP3    H276191   4.958   3.856  15.371  0.0490 -0.1053  0.6663
18234TIP3   OH276192   6.660   1.520   5.901  0.0482 -0.1797 -1.0370
18234TIP3    H176193   6.721   1.594   5.895 -0.0068 -0.0313  0.2464
18234TIP3    H276194   6.669   1.488   5.990 -2.4823  0.4752 -0.5092
18235TIP3   OH276195   6.750   0.765   1.135 -0.5054  0.1419  0.6812
18235TIP3    H176196   6.768   0.843   1.188 -3.8210  0.4979  1.3965
18235TIP3    H276197   6.691   0.796   1.067 -0.7627 -1.4932  0.1464
18236TIP3   OH276198   4.198   1.422  13.114 -0.3518  0.4239 -0.2847
18236TIP3    H176199   4.117   1.391  13.155  0.5108 -0.6294  0.6292
18236TIP3    H276200   4.168   1.471  13.036 -1.9633  1.7365  1.1136
18237TIP3   OH276201   2.168   2.137  16.796 -0.4535 -0.2831  0.2313
18237TIP3    H176202   2.117   2.186  16.861 -0.4789 -0.4389  0.3269
18237TIP3    H276203   2.145   2.178  16.713 -1.7942 -1.2590  0.1157
18238TIP3   OH276204   2.705   5.639   4.425  0.0676 -0.3325  0.3973
18238TIP3    H176205   2.738   5.724   4.399 -2.2334  0.6875  0.6887
18238TIP3    H276206   2.683   5.648   4.517 -0.1290 -1.2647  0.4536
18239TIP3   OH276207   5.969   1.730   6.038  0.2684  0.8378 -0.0966
18239TIP3    H176208   5.954   1.718   5.944 -1.7379 -1.2525  0.4290
18239TIP3    H276209   5.889   1.772   6.069  0.2826  0.1239  0.9139
18240TIP3   OH276210   3.032   0.814  12.692 -0.1526 -0.1752  0.2611
18240TIP3    H176211   2.955   0.761  12.676 -1.4839  2.6331 -3.2234
18240TIP3    H276212   3.106   0.758  12.666 -1.1694 -1.8164  0.8338
18241TIP3   OH276213   2.793   1.014  13.868 -0.5478  0.0682  0.4050
18241TIP3    H176214   2.852   1.085  13.844 -1.6690  1.1645  0.8607
18241TIP3    H276215   2.851   0.940  13.886  0.6681  1.0621  0.6244
18242TIP3   OH276216   5.093   3.865   3.826 -0.1442  0.4262 -0.6840
18242TIP3    H176217   5.070   3.812   3.750  2.0601 -0.2637 -0.8934
18242TIP3    H276218   5.059   3.952   3.806 -2.3694 -0.4826 -1.0397
18243TIP3   OH276219   5.602   0.777   3.973 -0.1636  0.1909 -0.1654
18243TIP3    H176220   5.694   0.779   4.000 -0.1531  1.7906 -0.2499
18243TIP3    H276221   5.554   0.766   4.054  0.1136 -1.1196 -0.1689
18244TIP3   OH276222   1.688   5.259   0.213 -0.2077  0.3511 -0.3629
18244TIP3    H176223   1.742   5.312   0.271 -0.9322  0.3983  0.2707
18244TIP3    H276224   1.598   5.281   0.237 -0.5110 -0.2037 -0.9741
18245TIP3   OH276225   0.938   6.026  15.296  0.2952 -0.2093  0.1934
18245TIP3    H176226   1.007   5.961  15.310  1.1491  0.1455 -2.1200
18245TIP3    H276227   0.926   6.028  15.201 -2.7761 -0.1074  0.5377
18246TIP3   OH276228   4.262   5.391  15.530 -0.3233 -0.5634 -0.6448
18246TIP3    H176229   4.188   5.344  15.568 -1.0067  0.7485 -0.3330
18246TIP3    H276230   4.233   5.413  15.441 -0.4125  0.2006 -0.4255
18247TIP3   OH276231   2.939   3.654  13.360  0.0569 -0.6777  0.7785
18247TIP3    H176232   3.010   3.658  13.296  0.3023  1.2615  1.1305
18247TIP3    H276233   2.982   3.670  13.444 -0.5355 -1.3561  1.2163
18248TIP3   OH276234   1.025   3.225   2.983 -0.1451  0.6928 -0.0741
18248TIP3    H176235   1.104   3.227   3.036 -1.0468  1.0760  1.2802
18248TIP3    H276236   1.052   3.183   2.901  0.7558 -2.0008  1.5291
18249TIP3   OH276237   6.382   1.705  13.682  0.1475  0.2277 -0.5624
18249TIP3    H176238   6.290   1.717  13.660 -0.1213 -1.7880 -0.5986
18249TIP3    H276239   6.429   1.724  13.600 -0.4354 -1.3954 -1.2917
18250TIP3   OH276240   4.399   1.933  13.310 -0.5164  0.4915  0.2487
18250TIP3    H176241   4.347   2.006  13.344  1.1379  1.5052  0.6524
18250TIP3    H276242   4.378   1.859  13.367 -1.4052  0.9317  0.4863
18251TIP3   OH276243   1.290   1.156   2.180  0.4294  0.3095 -0.3730
18251TIP3    H176244   1.279   1.225   2.114  2.0721  0.5924 -0.3565
18251TIP3    H276245   1.226   1.178   2.248 -1.0432  0.2089 -1.6891
18252TIP3   OH276246   5.354   3.910   4.766  0.5087 -0.0724  0.9433
18252TIP3    H176247   5.290   3.845   4.796  0.5998 -0.8147 -0.4499
18252TIP3    H276248   5.301   3.979   4.726  0.5890 -1.1174 -1.0404
18253TIP3   OH276249   1.048   4.182   5.622  0.7550  0.3097  0.3101
18253TIP3    H176250   1.054   4.088   5.609 -0.4458  0.0534  1.5272
18253TIP3    H276251   0.958   4.198   5.650 -0.2001  2.2950 -3.4819
18254TIP3   OH276252   6.730   3.993  12.087 -0.4054 -0.2434  0.0768
18254TIP3    H176253   6.776   3.914  12.058  1.7369  0.7324  0.7292
18254TIP3    H276254   6.748   3.997  12.181 -0.4331  1.0472  0.0271
18255TIP3   OH276255   0.729   2.784   5.231  0.5469  0.0258 -0.2963
18255TIP3    H176256   0.696   2.755   5.316  0.3624  0.6655 -0.1398
18255TIP3    H276257   0.823   2.796   5.245  0.3448  1.1984  0.1376
18256TIP3   OH276258   4.383   6.595   1.050  0.7815 -0.3711  0.0766
18256TIP3    H176259   4.368   6.540   0.974  0.8922  1.3200 -1.1871
18256TIP3    H276260   4.296   6.627   1.074  0.9682  0.4962 -0.4074
18257TIP3   OH276261   4.784   4.453  16.330  0.1680 -0.3233  0.5638
18257TIP3    H176262   4.699   4.459  16.286  1.2182  0.9719 -1.3648
18257TIP3    H276263   4.839   4.516  16.284  2.1612 -1.0901  1.8437
18258TIP3   OH276264   6.645   4.348  17.028  0.2643  0.5199  0.4152
18258TIP3    H176265   6.713   4.282  17.012 -0.6959 -0.3694  0.0020
18258TIP3    H276266   6.661   4.415  16.961  0.3323 -0.0010 -0.0928
18259TIP3   OH276267   4.276   6.548  15.241 -0.1137  0.2019  0.9598
18259TIP3    H176268   4.328   6.476  15.277  0.7007 -0.3868 -1.2939
18259TIP3    H276269   4.225   6.508  15.171  1.7732  2.1582 -1.5932
18260TIP3   OH276270   2.344   3.442   1.420 -0.5836 -0.2251 -0.2504
18260TIP3    H176271   2.364   3.356   1.383 -0.9435  0.0334 -1.0481
18260TIP3    H276272   2.429   3.486   1.427 -0.3518 -0.7751  0.5064
18261TIP3   OH276273   0.665   3.742  14.830  0.2940 -0.0043  0.3021
18261TIP3    H176274   0.716   3.728  14.750  1.4398 -1.6156  1.2492
18261TIP3    H276275   0.609   3.665  14.836  1.0230 -0.4569  1.6006
18262TIP3   OH276276   3.826   5.206   3.788 -0.0116 -0.2813  0.1568
18262TIP3    H176277   3.764   5.267   3.747 -0.3565 -0.7254  0.0152
18262TIP3    H276278   3.793   5.195   3.877  0.7945  0.7617  0.5954
18263TIP3   OH276279   0.324   0.717  12.990  0.4016  0.0771  0.4236
18263TIP3    H176280   0.339   0.796  13.043 -0.1396  0.7392 -0.4008
18263TIP3    H276281   0.293   0.750  12.906  1.3869 -0.9659 -0.3631
18264TIP3   OH276282   1.411   2.323  15.847  0.3455 -0.2696  0.3019
18264TIP3    H176283   1.493   2.346  15.891  0.1469 -0.2849  0.6836
18264TIP3    H276284   1.344   2.334  15.914 -0.1640  1.3038 -0.4530
18265TIP3   OH276285   5.973   4.333  14.812  0.2398  0.2084  0.3885
18265TIP3    H176286   6.006   4.366  14.895 -0.3290 -0.0500  0.7218
18265TIP3    H276287   6.010   4.245  14.804 -0.0700  0.0562  0.5937
18266TIP3   OH276288   1.241   6.146   3.018  0.4460 -0.5131  0.8040
18266TIP3    H176289   1.168   6.201   3.045 -0.9231 -2.5560  1.3901
18266TIP3    H276290   1.214   6.057   3.041  2.7178 -1.4121  0.1522
18267TIP3   OH276291   6.073   4.734   3.981  0.0012 -0.1856 -0.3427
18267TIP3    H176292   5.993   4.704   3.939  0.0075 -0.9259  0.1545
18267TIP3    H276293   6.101   4.809   3.929 -0.0807 -0.9750 -1.5556
18268TIP3   OH276294   0.851   6.521   3.721  0.4441  0.2307 -0.4843
18268TIP3    H176295   0.786   6.583   3.691  1.1372  1.0850 -0.2560
18268TIP3    H276296   0.801   6.445   3.751 -0.3621  0.3677 -1.4882
18269TIP3   OH276297   1.117   0.826  16.112  0.9292 -0.6624 -0.3855
18269TIP3    H176298   1.104   0.798  16.021  1.9827  0.2099 -0.8098
18269TIP3    H276299   1.059   0.769  16.162 -1.0094  0.0395 -1.7748
18270TIP3   OH276300   1.020   6.587  13.524  0.2955  0.2261  0.1933
18270TIP3    H176301   1.102   6.619  13.487 -0.1142  1.7594  0.5947
18270TIP3    H276302   1.046   6.516  13.583  1.4065  1.1825  0.8725
18271TIP3   OH276303   4.629   4.946  14.349  0.3853  0.1236  0.4129
18271TIP3    H176304   4.597   5.005  14.418  1.1472  0.8880  0.1289
18271TIP3    H276305   4.652   5.004  14.277  2.3240 -0.3924  0.5758
18272TIP3   OH276306   6.439   1.523  11.731  0.4409  0.0740 -0.2993
18272TIP3    H176307   6.371   1.485  11.674 -0.3033 -0.5737  1.0030
18272TIP3    H276308   6.393   1.587  11.785  0.6924 -0.9399  1.1514
18273TIP3   OH276309   6.436   0.780  15.448  0.2568 -0.2145 -0.6018
18273TIP3    H176310   6.527   0.798  15.426  0.2370  0.3952 -0.1800
18273TIP3    H276311   6.435   0.774  15.543 -0.4827  1.6440 -0.4691
18274TIP3   OH276312   3.684   3.746   5.988  0.4285 -0.6329  0.0628
18274TIP3    H176313   3.726   3.663   5.964 -0.0402 -0.5058 -1.2405
18274TIP3    H276314   3.591   3.726   5.988  0.4428 -0.8452  2.7051
18275TIP3   OH276315   0.025   3.452  15.198 -0.1390  0.5398  0.2235
18275TIP3    H176316  -0.008   3.469  15.286  1.7257  0.8464  0.8881
18275TIP3    H276317   0.104   3.398  15.212 -0.3589 -0.2151 -1.3066
18276TIP3   OH276318   3.208   5.088   5.214  0.3962  0.1854 -0.2046
18276TIP3    H176319   3.294   5.125   5.195  1.0433 -0.6997  0.9141
18276TIP3    H276320   3.220   5.043   5.297 -1.4257  0.9148  0.4622
18277TIP3   OH276321   2.426   5.856   1.015 -0.5087  0.1515  0.2615
18277TIP3    H176322   2.331   5.858   1.005 -0.6934 -0.4518  1.8176
18277TIP3    H276323   2.455   5.793   0.950 -1.3192 -0.7751  0.7834
18278TIP3   OH276324   3.001   1.842  12.315  0.8344  0.1659 -0.1821
18278TIP3    H176325   3.065   1.817  12.382  2.0517  1.6907 -0.7266
18278TIP3    H276326   3.046   1.909  12.263 -1.3000  1.4532 -0.4406
18279TIP3   OH276327   4.619   3.893   0.037 -0.6163 -0.4842  0.1047
18279TIP3    H176328   4.551   3.940   0.085 -0.3895 -1.5614  1.5062
18279TIP3    H276329   4.640   3.950  -0.037 -2.0588  0.4869  0.4310
18280TIP3   OH276330   3.484   1.687  12.104 -0.1136  0.3303  0.2187
18280TIP3    H176331   3.403   1.675  12.154  0.0585 -1.5551  0.0578
18280TIP3    H276332   3.552   1.694  12.171  0.0049 -1.3417  0.2875
18281TIP3   OH276333   5.307   6.249   4.778 -0.2227  0.2084 -0.2065
18281TIP3    H176334   5.324   6.342   4.795  0.4144  0.0320  0.1072
18281TIP3    H276335   5.211   6.242   4.783 -0.3885  1.1461 -1.7565
18282TIP3   OH276336   1.946   5.877   4.915  0.2677 -0.4771  0.1978
18282TIP3    H176337   1.923   5.964   4.882 -3.3135 -1.7501 -0.8920
18282TIP3    H276338   1.969   5.891   5.007  0.6717  1.7329 -0.2138
18283TIP3   OH276339   5.685   2.310  10.744  0.4066 -0.8439  0.1642
18283TIP3    H176340   5.592   2.331  10.734  1.0150  1.1321 -1.7967
18283TIP3    H276341   5.723   2.390  10.781  1.6905 -0.7685 -1.2524
18284TIP3   OH276342   5.716   4.839   0.308  0.4484 -0.3407  0.4455
18284TIP3    H176343   5.732   4.888   0.389  0.7715 -0.0198  0.1881
18284TIP3    H276344   5.661   4.897   0.255  0.2487 -0.5460  0.4272
18285TIP3   OH276345   4.750   3.013  13.989  0.3111 -0.1785 -0.5887
18285TIP3    H176346   4.737   2.999  13.895 -0.6272  0.2826 -0.5349
18285TIP3    H276347   4.666   2.989  14.028  0.2070  1.0505 -0.0220
18286TIP3   OH276348   4.561   0.538  16.848  0.1336  0.2310 -0.0216
18286TIP3    H176349   4.477   0.560  16.888 -0.3463  1.5313 -1.6820
18286TIP3    H276350   4.597   0.622  16.819  1.7612 -0.3724  0.1602
18287TIP3   OH276351   5.520   1.525  13.974 -0.0055  0.5328 -0.6688
18287TIP3    H176352   5.468   1.524  13.894  0.1231  1.2366 -0.7612
18287TIP3    H276353   5.475   1.463  14.032 -0.7737  0.9074 -0.8623
18288TIP3   OH276354   1.124   0.214  16.410  0.3184 -0.4423 -0.2413
18288TIP3    H176355   1.142   0.121  16.420 -2.3339 -1.0937 -1.0839
18288TIP3    H276356   1.086   0.240  16.494  2.3027  0.2312  0.4808
18289TIP3   OH276357   4.501   4.733   0.899  0.2100 -0.1574 -0.2793
18289TIP3    H176358   4.407   4.738   0.914  0.3685  0.2498  0.6336
18289TIP3    H276359   4.510   4.710   0.807 -0.7814 -0.0488 -0.4049
18290TIP3   OH276360   5.679   6.731  13.710  0.5594 -0.5188 -0.0507
18290TIP3    H176361   5.686   6.825  13.696 -0.4896 -0.5474 -0.8369
18290TIP3    H276362   5.673   6.694  13.622  2.6604 -1.4732  0.1914
18291TIP3   OH276363   0.906   2.400   0.706 -0.6150  0.4197  0.2986
18291TIP3    H176364   0.843   2.367   0.770 -2.8308  1.3097 -1.3557
18291TIP3    H276365   0.917   2.328   0.643  1.5489 -0.4503  1.5880
18292TIP3   OH276366   1.403   3.326   5.233  0.2589 -0.2369  0.6177
18292TIP3    H176367   1.483   3.281   5.207  0.6106 -0.6392  2.3148
18292TIP3    H276368   1.393   3.396   5.168  2.1503  0.0102  0.5398
18293TIP3   OH276369   4.004   4.218   6.393 -0.6841  0.1088  0.0075
18293TIP3    H176370   3.994   4.293   6.453 -0.4099 -1.1951  1.7255
18293TIP3    H276371   4.070   4.247   6.330 -1.3838  1.7279 -0.0139
18294TIP3   OH276372   2.498   3.179   3.313 -0.1821  0.1729  0.1820
18294TIP3    H176373   2.561   3.174   3.241 -0.7451 -0.9759 -0.2422
18294TIP3    H276374   2.456   3.264   3.302  0.9199  0.7241  0.1518
18295TIP3   OH276375   5.672   1.373  13.038  0.4740  0.4128 -0.2679
18295TIP3    H176376   5.618   1.430  12.983 -1.5440 -0.5748  0.5984
18295TIP3    H276377   5.685   1.295  12.985  0.7419  0.5070 -0.3384
18296TIP3   OH276378   0.830   2.883   6.637 -0.1570  0.5439  0.6690
18296TIP3    H176379   0.871   2.817   6.580 -3.9337 -1.1233 -0.2614
18296TIP3    H276380   0.830   2.963   6.584  0.7074  0.2319  0.1841
18297TIP3   OH276381   2.469   1.203   6.752 -0.6537 -0.1847  0.4416
18297TIP3    H176382   2.488   1.284   6.704  0.2426  0.4848  1.8667
18297TIP3    H276383   2.461   1.136   6.685  0.2105  0.7935 -0.6643
18298TIP3   OH276384   3.998   0.682  15.094 -0.0675  0.2519 -0.7151
18298TIP3    H176385   3.951   0.760  15.068 -0.2099 -0.2115 -1.8431
18298TIP3    H276386   4.043   0.652  15.015  1.1260 -0.0125  0.0365
18299TIP3   OH276387   0.619   4.951   4.404  0.4442  0.0950 -0.2176
18299TIP3    H176388   0.541   4.896   4.402  0.9265 -0.6492  1.1006
18299TIP3    H276389   0.585   5.041   4.399 -0.4229 -0.2564 -0.7291
18300TIP3   OH276390   1.523   4.361  11.270  0.0070 -0.1855 -0.5552
18300TIP3    H176391   1.485   4.294  11.214 -1.1908  1.5428 -1.8499
18300TIP3    H276392   1.448   4.410  11.304  0.6863 -1.2560  2.6828
18301TIP3   OH276393   4.535   3.623   3.152 -0.2066  0.0790 -0.0527
18301TIP3    H176394   4.597   3.680   3.107 -0.2747  0.2988  0.1279
18301TIP3    H276395   4.514   3.555   3.089  1.0154 -0.5808  0.2445
18302TIP3   OH276396   3.688   3.318   0.519 -0.3719  0.0112  0.2065
18302TIP3    H176397   3.593   3.329   0.519 -0.3933 -0.0585  1.7237
18302TIP3    H276398   3.717   3.361   0.439 -1.6814  0.0099 -0.2830
18303TIP3   OH276399   5.312   1.361  16.260  0.1842  0.6682 -0.0732
18303TIP3    H176400   5.406   1.344  16.265  0.0994 -0.0895 -0.9837
18303TIP3    H276401   5.278   1.292  16.203 -0.7112  1.7752 -0.8982
18304TIP3   OH276402   6.661   0.322  15.304 -0.2787  0.5224 -0.6637
18304TIP3    H176403   6.576   0.279  15.305 -0.3864  0.7525  0.6206
18304TIP3    H276404   6.688   0.324  15.396  1.2767  0.1203 -1.0961
18305TIP3   OH276405   4.530   0.038  11.146  0.1443 -0.1814 -0.2778
18305TIP3    H176406   4.484   0.117  11.120 -0.5667 -0.1515  1.0427
18305TIP3    H276407   4.508  -0.026  11.078  1.2245  0.9165 -1.6809
18306TIP3   OH276408   0.885   2.968  13.176 -0.4417 -0.1325 -0.7476
18306TIP3    H176409   0.863   2.913  13.251 -2.6019 -0.5979 -1.6887
18306TIP3    H276410   0.864   2.915  13.100 -1.4264  1.5247 -1.6767
18307TIP3   OH276411   2.705   1.170  15.073  0.6136 -0.8671  0.6834
18307TIP3    H176412   2.799   1.157  15.073  0.6233 -0.8249 -0.1094
18307TIP3    H276413   2.670   1.092  15.029  0.3093 -0.7098  0.6402
18308TIP3   OH276414   4.731   4.223  13.257  0.0305  0.7061 -0.1683
18308TIP3    H176415   4.778   4.301  13.285  1.3101  0.2470 -0.9866
18308TIP3    H276416   4.800   4.162  13.229 -1.0632  0.1884 -1.8116
18309TIP3   OH276417   5.137   0.427  14.386 -0.2149 -0.2528 -0.3488
18309TIP3    H176418   5.095   0.500  14.431  0.6098 -0.1684  0.3046
18309TIP3    H276419   5.075   0.355  14.394 -0.4862  0.0274  0.0936
18310TIP3   OH276420   3.905   5.905  10.824 -0.3695 -0.3321 -0.0489
18310TIP3    H176421   3.977   5.843  10.830 -0.5749 -0.4935  0.9572
18310TIP3    H276422   3.842   5.863  10.765 -0.6143 -1.2003  0.8143
18311TIP3   OH276423   2.691   6.413   4.091 -0.4619  0.0992 -0.2519
18311TIP3    H176424   2.690   6.497   4.045  1.9766  0.1786 -0.2715
18311TIP3    H276425   2.714   6.435   4.181  0.0442 -0.5203 -0.2249
18312TIP3   OH276426   3.564   2.146  10.867 -0.3348  0.3043  0.4948
18312TIP3    H176427   3.582   2.150  10.773  1.9675 -1.4624  0.8013
18312TIP3    H276428   3.489   2.203  10.880 -0.5742  0.7122 -2.3957
18313TIP3   OH276429   3.958   2.849   1.554  0.4043 -0.0203 -0.4933
18313TIP3    H176430   3.874   2.893   1.572  0.4646  0.3020 -0.9823
18313TIP3    H276431   3.981   2.877   1.465  0.2133 -1.4055 -0.9972
18314TIP3   OH276432   1.678   5.447   6.396  0.1208 -0.3436  0.3312
18314TIP3    H176433   1.641   5.534   6.412 -0.4063 -0.6750  0.9246
18314TIP3    H276434   1.607   5.399   6.353  0.5614 -0.3509 -0.4047
18315TIP3   OH276435   2.489   1.971  15.379  0.1699 -0.2912  0.0863
18315TIP3    H176436   2.489   2.060  15.414 -0.0798  0.4526 -1.6983
18315TIP3    H276437   2.437   1.920  15.441  1.3126  0.5454  1.7452
18316TIP3   OH276438   3.737   5.130  14.722 -0.4380 -0.0872 -0.6059
18316TIP3    H176439   3.768   5.132  14.631 -2.2922 -0.3307 -1.2675
18316TIP3    H276440   3.656   5.079  14.718 -1.2393  1.0412  0.9807
18317TIP3   OH276441   0.001   3.215  17.034 -0.1691 -0.1826 -0.3105
18317TIP3    H176442  -0.051   3.251  17.105 -0.9028  0.3708 -1.1171
18317TIP3    H276443   0.072   3.279  17.021  0.5310 -0.7729  0.5698
18318TIP3   OH276444   5.495   4.173   2.239 -0.0080  0.6612  0.5010
18318TIP3    H176445   5.447   4.098   2.274 -0.8275  1.1926  0.5284
18318TIP3    H276446   5.566   4.187   2.301  0.7572 -0.7187 -0.0375
18319TIP3   OH276447   0.398   0.188   3.693  0.5524 -0.1601 -0.4040
18319TIP3    H176448   0.439   0.274   3.699 -0.1533  0.0367  2.3464
18319TIP3    H276449   0.304   0.205   3.699  0.4689 -1.2021  1.6605
18320TIP3   OH276450   2.065   2.305   1.799 -0.5676 -0.7138  0.0008
18320TIP3    H176451   2.021   2.268   1.876  0.8077  1.0860  1.7054
18320TIP3    H276452   2.076   2.398   1.820  1.0277 -0.4733 -1.7921
18321TIP3   OH276453   6.249   6.133  15.688  0.1781 -0.2027 -0.3847
18321TIP3    H176454   6.240   6.050  15.735  0.2585 -0.6226 -1.0951
18321TIP3    H276455   6.343   6.152  15.690  0.3681 -0.9442 -1.5748
18322TIP3   OH276456   1.819   6.552   1.529  0.7342  0.2549 -0.1275
18322TIP3    H176457   1.772   6.620   1.577  3.1199  1.6939  0.2499
18322TIP3    H276458   1.882   6.599   1.475  1.0913 -1.5651 -1.3573
18323TIP3   OH276459   0.798   0.445   2.321  0.6220  0.7699 -0.1679
18323TIP3    H176460   0.793   0.518   2.382  1.9736  0.0585  0.8304
18323TIP3    H276461   0.875   0.465   2.267  0.0891  0.8400 -0.9142
18324TIP3   OH276462   4.759   3.341   1.923 -0.4095  0.0060  0.2362
18324TIP3    H176463   4.732   3.398   1.851 -0.5301  1.4873  1.4540
18324TIP3    H276464   4.763   3.253   1.883  0.0537  0.8813 -1.6967
18325TIP3   OH276465   6.610   5.602  13.563  0.2935 -0.5195 -0.2399
18325TIP3    H176466   6.523   5.570  13.588 -0.7045  2.7470  0.6551
18325TIP3    H276467   6.652   5.625  13.645  1.0825  0.1740 -0.8285
18326TIP3   OH276468   3.570   6.254   0.739  0.3498  0.4877 -0.8077
18326TIP3    H176469   3.592   6.324   0.677 -1.3787  1.2078 -0.6414
18326TIP3    H276470   3.622   6.179   0.710  2.2124  1.8133 -1.0043
18327TIP3   OH276471   4.020   3.265  14.896 -0.2269 -0.6712 -0.0892
18327TIP3    H176472   3.939   3.278  14.845 -0.4203 -2.0289 -0.1421
18327TIP3    H276473   4.085   3.239  14.831 -0.0663 -0.8267  0.1343
18328TIP3   OH276474   5.320   1.919  16.397 -0.2453 -0.1136  0.3728
18328TIP3    H176475   5.391   1.856  16.410 -0.1789 -0.3533 -0.9987
18328TIP3    H276476   5.362   2.005  16.407 -0.0571 -0.2725  0.9492
18329TIP3   OH276477   5.773   0.102   0.495  0.2251  0.4068 -0.0873
18329TIP3    H176478   5.853   0.106   0.443 -0.0985  1.1781 -0.5318
18329TIP3    H276479   5.795   0.046   0.569  0.2860 -1.8908 -1.7895
18330TIP3   OH276480   4.744   0.537  11.892 -0.1757  0.5004  0.1625
18330TIP3    H176481   4.739   0.467  11.827  0.1069 -1.0664  1.7814
18330TIP3    H276482   4.689   0.607  11.856  0.0552 -0.2845 -1.7861
18331TIP3   OH276483   1.514   2.666   5.486 -0.0823 -0.0220 -0.0694
18331TIP3    H176484   1.608   2.651   5.495  0.1955  2.4484  1.3726
18331TIP3    H276485   1.482   2.674   5.576 -1.9606 -2.2726 -0.4705
18332TIP3   OH276486   3.778   0.931   3.782  0.4098 -0.2393 -0.5256
18332TIP3    H176487   3.824   0.990   3.841 -0.5964 -1.3146  1.3831
18332TIP3    H276488   3.802   0.843   3.812 -0.6346 -0.8019 -1.2981
18333TIP3   OH276489   3.421   1.635   1.230  0.5623  0.1566  0.2509
18333TIP3    H176490   3.355   1.606   1.168  1.2597  0.5579 -0.6886
18333TIP3    H276491   3.445   1.557   1.280 -0.1904 -0.1050  0.1938
18334TIP3   OH276492   1.084   1.850  14.604  0.2716  0.0288  0.2592
18334TIP3    H176493   1.018   1.798  14.558 -1.9113 -0.0279  3.2830
18334TIP3    H276494   1.111   1.795  14.677 -0.9990  2.4636  2.6608
18335TIP3   OH276495   5.639   0.538   4.363  0.0818  0.4159 -0.5195
18335TIP3    H176496   5.644   0.517   4.457 -1.2716 -1.1475 -0.7715
18335TIP3    H276497   5.697   0.613   4.353 -1.4724  2.0330  1.9669
18336TIP3   OH276498   6.670   4.594   0.802 -0.4595  0.6653 -0.2585
18336TIP3    H176499   6.720   4.641   0.869  0.5636 -0.1526 -0.4270
18336TIP3    H276500   6.578   4.607   0.826 -0.0899 -0.0434  1.5885
18337TIP3   OH276501   1.810   2.879  16.194  0.6909  0.4318 -0.2021
18337TIP3    H176502   1.858   2.809  16.239 -0.7707 -1.8969 -2.1414
18337TIP3    H276503   1.865   2.902  16.119  0.2011 -0.1496 -0.7494
18338TIP3   OH276504   2.653   3.828   5.378  0.5676 -0.0776  0.4720
18338TIP3    H176505   2.667   3.797   5.288 -0.6410  2.2688 -0.5636
18338TIP3    H276506   2.645   3.923   5.370  0.9334  0.2111  3.1459
18339TIP3   OH276507   6.231   0.832  11.568 -0.0007  0.3580  0.4553
18339TIP3    H176508   6.151   0.883  11.582  0.3442  0.8813  0.5508
18339TIP3    H276509   6.299   0.883  11.612  0.1884 -0.6721  1.3564
18340TIP3   OH276510   3.741   1.179   1.479  1.1263  0.2173  0.7057
18340TIP3    H176511   3.702   1.117   1.417  0.6122 -0.0132  1.2576
18340TIP3    H276512   3.792   1.125   1.539  0.2983  0.2749  1.4711
18341TIP3   OH276513   2.641   0.013  15.047  0.0376 -0.2193 -0.3374
18341TIP3    H176514   2.727   0.010  15.005  0.2165 -0.8912  0.0658
18341TIP3    H276515   2.649  -0.046  15.122 -0.9421 -0.7122 -0.6130
18342TIP3   OH276516   5.868   2.063   5.241 -0.1227  0.0178  0.4691
18342TIP3    H176517   5.855   2.148   5.199 -0.4997  1.0486  2.6235
18342TIP3    H276518   5.802   2.007   5.201 -0.7421  1.0808 -0.0355
18343TIP3   OH276519   2.228   5.857  17.058 -0.8473 -0.1597  0.7024
18343TIP3    H176520   2.194   5.769  17.042  0.8637 -0.3618 -2.2422
18343TIP3    H276521   2.307   5.843  17.110 -1.6593 -0.2035  1.9257
18344TIP3   OH276522   2.642   1.746   4.862  0.4200  0.0094  0.3011
18344TIP3    H176523   2.712   1.758   4.926  0.8739 -2.0446  0.2196
18344TIP3    H276524   2.587   1.676   4.899 -0.8949  0.7515 -0.2225
18345TIP3   OH276525   0.681   6.391   5.531  0.2933 -0.5562  0.6088
18345TIP3    H176526   0.695   6.456   5.463 -0.6363 -0.7863  0.1889
18345TIP3    H276527   0.594   6.356   5.514 -0.1459 -0.2928  2.1805
18346TIP3   OH276528   6.464   6.272  16.262 -0.7057  0.7748  0.1587
18346TIP3    H176529   6.440   6.220  16.338  1.4791  1.0220  1.0781
18346TIP3    H276530   6.400   6.343  16.260 -1.4110  0.1769  1.1463
18347TIP3   OH276531   5.307   0.219  11.033 -0.2466  0.0665  0.2138
18347TIP3    H176532   5.305   0.293  10.972  1.6484 -0.8816 -1.0557
18347TIP3    H276533   5.264   0.149  10.985  2.3002 -1.0276 -0.5729
18348TIP3   OH276534   5.164   6.620   5.849 -0.1308 -0.3486  0.3129
18348TIP3    H176535   5.154   6.590   5.940 -1.3379  0.0649  0.3217
18348TIP3    H276536   5.099   6.569   5.800 -0.7618  0.7632 -0.0126
18349TIP3   OH276537   5.609   5.968   3.360 -0.4779 -0.0364 -0.3638
18349TIP3    H176538   5.591   6.014   3.442  1.9814 -0.1109  0.2453
18349TIP3    H276539   5.537   5.994   3.302 -1.2452  1.4671  1.2234
18350TIP3   OH276540   3.422   4.443   1.287  0.1100 -0.1883 -0.7438
18350TIP3    H176541   3.464   4.466   1.370  0.4711  0.0953 -1.0045
18350TIP3    H276542   3.355   4.510   1.276  0.6249  0.2710 -1.1008
18351TIP3   OH276543   0.555   0.009   5.903  0.6049  0.3910 -0.1013
18351TIP3    H176544   0.533   0.074   5.836  0.2672 -0.3222 -0.6838
18351TIP3    H276545   0.480   0.009   5.962 -0.1497 -0.6950 -1.0483
18352TIP3   OH276546   2.081   3.071  13.705  0.6440  0.2588 -0.0084
18352TIP3    H176547   2.029   3.147  13.731  1.1028  0.9532 -1.1352
18352TIP3    H276548   2.019   2.998  13.708 -0.3427  1.0355 -1.0596
18353TIP3   OH276549   5.194   3.457  16.996 -0.4735 -0.0760  0.4064
18353TIP3    H176550   5.161   3.536  16.953 -1.1929 -0.9780 -0.7185
18353TIP3    H276551   5.285   3.450  16.967 -0.6861 -0.1750 -0.2400
18354TIP3   OH276552   4.296   2.470   3.960 -0.1022  0.0126 -0.2665
18354TIP3    H176553   4.366   2.526   3.996  0.3361 -1.0060  0.4862
18354TIP3    H276554   4.225   2.476   4.024  0.5819 -1.5999  0.6804
18355TIP3   OH276555   3.476   3.842   4.217 -0.1175 -0.0132 -0.5520
18355TIP3    H176556   3.437   3.780   4.278 -2.5252 -0.4540 -2.4840
18355TIP3    H276557   3.440   3.927   4.243  0.6308  0.1299  0.0400
18356TIP3   OH276558   3.285   5.617  14.038 -0.0604  0.0700 -0.3844
18356TIP3    H176559   3.319   5.581  13.956 -0.3096  0.4467 -0.6541
18356TIP3    H276560   3.363   5.640  14.088  0.0976 -0.6573 -0.2925
18357TIP3   OH276561   2.143   3.799   4.391 -0.4027  0.6382 -0.2034
18357TIP3    H176562   2.115   3.713   4.360  0.2335  0.2648  0.2554
18357TIP3    H276563   2.199   3.833   4.321  0.1952  0.2364  0.0824
18358TIP3   OH276564   5.686   5.050   4.670 -0.4634  0.1387 -0.5744
18358TIP3    H176565   5.749   5.105   4.716  0.8026 -0.1636 -1.8934
18358TIP3    H276566   5.717   4.960   4.684 -0.3506  0.0151 -1.5748
18359TIP3   OH276567   3.761   5.911  14.716  0.6641 -0.6276  0.6094
18359TIP3    H176568   3.847   5.906  14.675 -0.5975  1.9205 -2.5705
18359TIP3    H276569   3.726   5.822  14.709  2.8446 -1.5892  1.5703
18360TIP3   OH276570   4.184   4.296  12.345  0.0504  0.7508 -0.0717
18360TIP3    H176571   4.278   4.278  12.356 -0.2172 -0.9154 -0.4898
18360TIP3    H276572   4.178   4.337  12.259  0.2834  0.0820 -0.4059
18361TIP3   OH276573   2.165   4.380   4.216 -0.2645  0.2892  0.2118
18361TIP3    H176574   2.250   4.347   4.245  0.1248  0.7757 -0.3479
18361TIP3    H276575   2.143   4.327   4.139  0.7083  1.7773 -1.1314
18362TIP3   OH276576   3.294   5.574  16.763  0.3585  0.6539 -0.4023
18362TIP3    H176577   3.257   5.505  16.709  0.1946  0.4093  0.0178
18362TIP3    H276578   3.267   5.656  16.720 -0.2914  0.4723 -0.3416
18363TIP3   OH276579   3.481   4.230  16.861  0.2064 -0.4046  0.0538
18363TIP3    H176580   3.401   4.283  16.853  1.4403  1.4098 -0.5746
18363TIP3    H276581   3.468   4.158  16.800 -1.6639 -1.0575  1.1869
18364TIP3   OH276582   2.032   4.022  16.871  0.0287  0.3278  0.5891
18364TIP3    H176583   1.981   4.053  16.796 -1.7778 -1.9735  0.8141
18364TIP3    H276584   1.966   3.993  16.934  1.6053 -1.0749  1.6120
18365TIP3   OH276585   0.361   4.285   2.290 -0.1323  0.3245 -0.0582
18365TIP3    H176586   0.275   4.313   2.321 -0.8641  1.5244 -2.9448
18365TIP3    H276587   0.343   4.245   2.205  2.0247 -0.4957 -0.1480
18366TIP3   OH276588   0.029   0.018   3.065  0.5042 -0.4520  0.2958
18366TIP3    H176589   0.109   0.003   3.014  0.1115 -0.9533 -0.1771
18366TIP3    H276590   0.059   0.058   3.146  1.2226 -0.5100  0.0590
18367TIP3   OH276591   3.441   6.391  15.529 -0.3032  0.4565  0.2959
18367TIP3    H176592   3.506   6.349  15.473 -0.5769  0.3848  0.0351
18367TIP3    H276593   3.372   6.419  15.470 -1.6980 -1.6927  0.8769
18368TIP3   OH276594   3.015   4.227  15.423  0.8624  0.0775  0.0440
18368TIP3    H176595   2.975   4.313  15.407  0.3172 -0.0793  0.5383
18368TIP3    H276596   2.950   4.164  15.393  1.5299 -0.1653 -0.9278
18369TIP3   OH276597   1.442   5.324  14.355 -0.3887  0.5254  0.5787
18369TIP3    H176598   1.489   5.302  14.435  2.2537  1.2218 -0.7196
18369TIP3    H276599   1.505   5.306  14.285 -1.8958  2.0051 -1.2058
18370TIP3   OH276600   0.339   1.467  11.373 -0.2301 -0.0270  0.6813
18370TIP3    H176601   0.400   1.526  11.416 -0.5698  1.2348 -0.5399
18370TIP3    H276602   0.255   1.511  11.379 -0.5627 -0.5842  0.1394
18371TIP3   OH276603   6.234   0.443  11.702  0.1546 -0.3321  0.2710
18371TIP3    H176604   6.293   0.367  11.706  1.1164  0.4475  0.9705
18371TIP3    H276605   6.267   0.495  11.629 -0.5248 -0.5893 -0.2269
18372TIP3   OH276606   5.589   2.862   4.201 -0.9645 -0.3868  0.3459
18372TIP3    H176607   5.547   2.776   4.196 -2.3206  0.1644  2.0746
18372TIP3    H276608   5.632   2.862   4.286  1.6748 -0.5146 -0.9406
18373TIP3   OH276609   4.852   1.637   2.806 -0.1343  0.5498  0.1466
18373TIP3    H176610   4.924   1.698   2.823  0.1437 -0.0217  1.0724
18373TIP3    H276611   4.874   1.559   2.856 -0.9379  0.0172 -0.3118
18374TIP3   OH276612   1.865   0.209   0.377 -0.4605  0.4980  0.1841
18374TIP3    H176613   1.875   0.304   0.381 -1.7360  0.6353  0.3585
18374TIP3    H276614   1.886   0.179   0.465  1.4169  0.4432 -0.2437
18375TIP3   OH276615   1.385   2.552  13.496 -0.1500 -0.2562  0.0403
18375TIP3    H176616   1.315   2.500  13.534 -0.2539 -0.5257 -0.5191
18375TIP3    H276617   1.341   2.619  13.444 -0.0160  0.3488  0.7017
18376TIP3   OH276618   1.278   6.692   3.066  0.2528  0.4004 -0.4745
18376TIP3    H176619   1.252   6.645   2.986  1.2730 -0.5729 -0.2430
18376TIP3    H276620   1.313   6.624   3.123 -1.3234  0.9490  1.1868
18377TIP3   OH276621   2.231   0.383  16.004  0.4257  0.1381  0.2962
18377TIP3    H176622   2.290   0.458  16.007  0.5690  0.0048  0.8600
18377TIP3    H276623   2.179   0.397  15.925  2.0223 -0.3616 -0.8686
18378TIP3   OH276624   4.463   0.366   0.729  0.0335  0.4353 -0.4101
18378TIP3    H176625   4.542   0.413   0.701 -0.8764  1.7792 -0.7200
18378TIP3    H276626   4.473   0.355   0.823  2.6328 -3.2041 -0.9920
18379TIP3   OH276627   2.623   3.536  15.508 -0.0462  0.0830  0.0475
18379TIP3    H176628   2.718   3.539  15.498  0.0160  0.2895  0.6479
18379TIP3    H276629   2.598   3.449  15.477  0.1456  0.6326 -1.6815
18380TIP3   OH276630   4.017   5.388   5.589 -0.2277  1.1310  0.0801
18380TIP3    H176631   4.103   5.392   5.631  0.7596  0.5890 -1.7955
18380TIP3    H276632   3.990   5.479   5.579 -0.0427  1.2889  0.9987
18381TIP3   OH276633   0.911   2.398   2.227  0.6047  0.5079 -0.0088
18381TIP3    H176634   0.918   2.475   2.283 -1.0727  0.5025  0.2166
18381TIP3    H276635   0.939   2.429   2.141 -0.6135  1.5376 -0.0574
18382TIP3   OH276636   1.682   2.959  12.733  0.2947 -0.2436  0.0851
18382TIP3    H176637   1.657   3.031  12.675 -0.2845 -1.7742 -1.5987
18382TIP3    H276638   1.733   3.001  12.803 -1.5335  2.0396  0.1061
18383TIP3   OH276639   5.434   1.989  14.995  0.8744  0.2663  0.1378
18383TIP3    H176640   5.433   1.968  15.088 -0.9643  0.5426  0.2081
18383TIP3    H276641   5.470   1.911  14.952  1.3644 -0.0027  1.0419
18384TIP3   OH276642   3.919   5.369  14.819 -0.4171  0.0657 -0.1649
18384TIP3    H176643   4.002   5.341  14.782 -1.3014  0.6078 -2.6328
18384TIP3    H276644   3.855   5.356  14.749 -2.0822  1.4039  1.0576
18385TIP3   OH276645   1.171   5.632   0.311  0.1321  0.2873  0.0387
18385TIP3    H176646   1.106   5.566   0.337  0.5239 -0.2003 -0.2046
18385TIP3    H276647   1.251   5.605   0.356 -0.0839  1.4644  1.1466
18386TIP3   OH276648   4.292   1.664   0.732 -0.2045 -0.2175  0.5870
18386TIP3    H176649   4.222   1.621   0.780 -0.6285 -0.1809 -0.0004
18386TIP3    H276650   4.366   1.666   0.794 -0.0959 -2.0153  0.5256
18387TIP3   OH276651   4.262   5.728  12.229  0.7204 -0.0848 -0.4697
18387TIP3    H176652   4.172   5.700  12.214  1.0709 -0.5678 -1.7798
18387TIP3    H276653   4.256   5.822  12.244 -0.0430 -0.1949 -0.0731
18388TIP3   OH276654   0.374   4.029   3.522 -0.5599 -0.2115 -0.3929
18388TIP3    H176655   0.416   3.947   3.549 -1.1399 -0.5830 -0.6078
18388TIP3    H276656   0.432   4.064   3.454  1.3619  1.1777  1.9320
18389TIP3   OH276657   0.583   5.699  17.047 -0.1259 -0.1427 -0.0281
18389TIP3    H176658   0.535   5.771  17.090  1.6359  0.6591  0.6292
18389TIP3    H276659   0.568   5.714  16.953 -0.6541  0.4689  0.1443
18390TIP3   OH276660   0.671   5.593  15.307 -0.4748 -0.4113  0.3052
18390TIP3    H176661   0.605   5.594  15.376 -1.3074 -1.3217 -0.4542
18390TIP3    H276662   0.654   5.672  15.255  0.1063  0.2334  1.0818
18391TIP3   OH276663   0.339   0.156  11.818  0.1897  0.4951 -0.3906
18391TIP3    H176664   0.255   0.198  11.837  0.3790  0.4335  0.6173
18391TIP3    H276665   0.326   0.064  11.842  1.2931  0.9644  2.1680
18392TIP3   OH276666   6.168   6.730   4.217 -0.2198  0.1240 -1.0872
18392TIP3    H176667   6.251   6.778   4.220 -0.5552  0.6037  0.9857
18392TIP3    H276668   6.103   6.792   4.250 -0.5349 -1.9617  2.3595
18393TIP3   OH276669   1.741   3.899   5.400 -0.6072  0.1457 -0.7799
18393TIP3    H176670   1.819   3.935   5.359 -0.1811  0.5517  0.3778
18393TIP3    H276671   1.774   3.833   5.462 -1.1777  0.2402 -0.3652
18394TIP3   OH276672   3.546   5.311   3.000 -0.1394  0.3209 -0.2908
18394TIP3    H176673   3.460   5.348   2.983 -0.2061 -1.0134 -3.2006
18394TIP3    H276674   3.591   5.314   2.915  2.2266 -0.1310  0.9033
18395TIP3   OH276675   5.103   4.844   5.718  0.2893  0.0820  0.5309
18395TIP3    H176676   5.040   4.789   5.764  2.0433 -2.9874 -0.4947
18395TIP3    H276677   5.055   4.879   5.643 -0.9121 -0.0355  1.2436
18396TIP3   OH276678   3.187   2.161   4.348 -0.3797 -0.2184  0.0558
18396TIP3    H176679   3.120   2.174   4.415  0.3952 -1.4499  1.0855
18396TIP3    H276680   3.238   2.242   4.350 -0.9890  0.1716  0.2126
18397TIP3   OH276681   2.430   4.893  11.598 -0.7515 -0.5767  0.2951
18397TIP3    H176682   2.442   4.822  11.661  0.3680  0.8176  1.6981
18397TIP3    H276683   2.368   4.953  11.641  0.8856  0.9507  0.5906
18398TIP3   OH276684   3.337   0.549  15.304 -0.1495 -0.2905  0.0400
18398TIP3    H176685   3.352   0.588  15.218 -1.2084 -0.1499 -0.0895
18398TIP3    H276686   3.262   0.597  15.339  0.6448  0.0523  1.2863
18399TIP3   OH276687   1.591   3.407   2.565  0.2007 -0.7482 -0.5009
18399TIP3    H176688   1.641   3.454   2.632 -2.1236  3.1878 -1.3383
18399TIP3    H276689   1.620   3.446   2.483 -0.7131 -1.8618 -1.3506
18400TIP3   OH276690   5.027   5.726  14.280 -0.5450  0.2607 -0.4244
18400TIP3    H176691   5.022   5.773  14.363 -0.0568  0.4913 -0.5274
18400TIP3    H276692   4.944   5.678  14.275 -0.5121  0.1374  0.2568
18401TIP3   OH276693   0.772   0.941   2.457 -0.4647 -0.5033 -0.4697
18401TIP3    H176694   0.676   0.942   2.456 -0.4763  0.5729  0.7102
18401TIP3    H276695   0.796   0.895   2.376 -1.9711 -1.0349 -0.6383
18402TIP3   OH276696   2.745   1.826  12.684 -0.0154 -0.1163 -0.4581
18402TIP3    H176697   2.733   1.902  12.740  1.3366  0.2882 -0.6945
18402TIP3    H276698   2.664   1.776  12.694 -0.0253  0.2258  1.4123
18403TIP3   OH276699   5.360   2.055  12.270  0.4564 -0.2094  0.4237
18403TIP3    H176700   5.355   2.148  12.249 -1.5915 -0.2924  0.4487
18403TIP3    H276701   5.350   2.051  12.365 -1.6802 -0.5913  0.1963
18404TIP3   OH276702   1.875   4.552  15.098 -0.3798  0.3183 -0.2734
18404TIP3    H176703   1.951   4.493  15.100 -0.4784  0.0359 -2.9960
18404TIP3    H276704   1.800   4.494  15.085 -1.0456  0.6482  1.9343
18405TIP3   OH276705   2.161   2.189  16.044 -0.4222 -0.6354  0.7674
18405TIP3    H176706   2.233   2.174  16.106  0.2752 -1.1909 -0.1672
18405TIP3    H276707   2.088   2.218  16.099  0.1457 -1.2530  1.8730
18406TIP3   OH276708   5.140   0.577  17.079  0.0871 -0.0729 -0.6923
18406TIP3    H176709   5.087   0.623  17.144 -1.4401  1.6344 -3.0770
18406TIP3    H276710   5.076   0.532  17.024  1.2774 -0.3754 -1.8375
18407TIP3   OH276711   6.731   6.056  16.173 -0.2529  0.0377  0.2722
18407TIP3    H176712   6.825   6.072  16.169 -0.4713  1.6951  1.4405
18407TIP3    H276713   6.698   6.082  16.087  0.4270 -1.1201 -0.3486
18408TIP3   OH276714   1.987   6.008   0.440  0.1355  0.5223 -0.3465
18408TIP3    H176715   2.003   6.037   0.530  0.2993  1.5812 -0.7086
18408TIP3    H276716   1.991   6.088   0.388 -1.9836  0.2083 -1.0376
18409TIP3   OH276717   1.945   5.042   1.611  0.5007  0.0969 -0.2343
18409TIP3    H176718   2.004   5.015   1.540  0.4838  0.4400 -0.3794
18409TIP3    H276719   1.917   4.960   1.651  0.7314 -0.0875 -0.4463
18410TIP3   OH276720   2.290   4.100   3.600  0.2130 -0.3473 -0.3900
18410TIP3    H176721   2.261   4.133   3.515  1.5890  0.1256 -0.6993
18410TIP3    H276722   2.351   4.029   3.578  1.4839  0.5465  0.1436
18411TIP3   OH276723   1.896   6.075  14.017  0.0685  0.1050 -0.1752
18411TIP3    H176724   1.917   6.120  13.935 -0.1640 -1.2474 -0.9988
18411TIP3    H276725   1.960   6.004  14.022  0.8106  0.8817  1.4057
18412TIP3   OH276726   2.819   4.784  16.722  0.3416  0.2068 -0.4047
18412TIP3    H176727   2.728   4.813  16.728  0.5989  0.7881  1.0413
18412TIP3    H276728   2.870   4.858  16.757  1.3590 -0.1488 -1.0997
18413TIP3   OH276729   2.728   0.788   5.766 -0.4026  0.2647 -0.0605
18413TIP3    H176730   2.718   0.881   5.786 -0.8066  0.5168 -1.4283
18413TIP3    H276731   2.795   0.784   5.698  0.5730 -0.5630  0.9044
18414TIP3   OH276732   5.133   4.611  12.588 -0.1536 -0.5228 -0.0633
18414TIP3    H176733   5.076   4.688  12.592  0.4265 -0.1362  1.2567
18414TIP3    H276734   5.222   4.647  12.583  0.0306 -1.1156 -1.2486
18415TIP3   OH276735   0.940   4.035  16.543  0.2051 -0.3609  0.2098
18415TIP3    H176736   0.961   4.114  16.593 -0.5750 -0.5385  0.8274
18415TIP3    H276737   0.974   3.963  16.596  3.1309 -0.3315 -1.5169
18416TIP3   OH276738   5.090   2.669   0.155 -0.2728 -0.1867  0.7089
18416TIP3    H176739   5.083   2.661   0.060  1.1798  2.5058  0.3288
18416TIP3    H276740   5.024   2.735   0.178 -0.0607 -0.2394  1.4685
18417TIP3   OH276741   2.200   2.770   0.303  0.0000 -0.2313  0.7249
18417TIP3    H176742   2.237   2.707   0.242 -0.6280  0.1315 -0.0341
18417TIP3    H276743   2.205   2.854   0.257 -2.6794 -0.3209  0.1874
18418TIP3   OH276744   2.084   5.870  12.921 -0.3512 -0.3024  0.0351
18418TIP3    H176745   2.013   5.807  12.932 -0.3639 -0.4581 -0.8612
18418TIP3    H276746   2.100   5.904  13.008 -0.9946 -0.8495  0.3719
18419TIP3   OH276747   5.976   0.023  13.221 -0.8432 -0.3141 -0.7420
18419TIP3    H176748   6.058   0.032  13.268 -1.3669 -2.1488  0.5762
18419TIP3    H276749   5.971   0.101  13.165  1.4136  0.1683 -0.2941
18420TIP3   OH276750   5.523   1.834   5.386  0.0799 -0.2376 -0.1019
18420TIP3    H176751   5.475   1.894   5.442  1.1294  0.3988  0.1396
18420TIP3    H276752   5.503   1.863   5.297 -2.1185 -1.6625 -0.1032
18421TIP3   OH276753   0.679   2.707   1.422  0.6381  0.0309 -0.2883
18421TIP3    H176754   0.649   2.710   1.512 -1.0676  0.9185 -0.8634
18421TIP3    H276755   0.645   2.788   1.382  0.3148 -0.9404 -2.0411
18422TIP3   OH276756   6.089   4.091  15.620 -0.0352 -0.2493 -0.1322
18422TIP3    H176757   6.078   4.008  15.574 -0.2560 -0.0341 -0.4722
18422TIP3    H276758   6.077   4.070  15.712 -2.2280 -0.2303 -0.3761
18423TIP3   OH276759   3.055   0.749   2.540 -0.2079 -0.8245  0.0273
18423TIP3    H176760   3.074   0.784   2.453 -0.9444 -0.9188 -0.1780
18423TIP3    H276761   3.082   0.818   2.601  0.9749 -1.0455 -0.2374
18424TIP3   OH276762   2.405   3.758   1.851  0.0543 -0.3731 -0.1347
18424TIP3    H176763   2.497   3.741   1.873 -0.2058 -1.3382  0.2157
18424TIP3    H276764   2.399   3.739   1.757 -0.4694 -3.3258  0.4503
18425TIP3   OH276765   4.648   0.364   1.255 -0.2111 -0.7890  0.4911
18425TIP3    H176766   4.712   0.366   1.183  0.3173 -0.9797  0.9451
18425TIP3    H276767   4.690   0.310   1.322 -0.6741 -0.5621  0.9675
18426TIP3   OH276768   3.145   1.485   4.436 -0.5032  0.3231 -0.2535
18426TIP3    H176769   3.219   1.444   4.391 -1.7758 -0.7937 -1.3717
18426TIP3    H276770   3.109   1.546   4.372 -0.6452  0.7580  0.2372
18427TIP3   OH276771   5.631   2.807  13.423  0.2698 -0.4017  0.6688
18427TIP3    H176772   5.616   2.729  13.475  0.9227 -0.3483  0.9508
18427TIP3    H276773   5.553   2.861  13.436  1.4574  0.7167  3.5797
18428TIP3   OH276774   5.998   6.545   6.178  0.3813 -1.0266  0.4635
18428TIP3    H176775   5.954   6.520   6.097 -0.4154  0.3202  0.4660
18428TIP3    H276776   5.931   6.592   6.228  1.1120 -1.1248  1.5384
18429TIP3   OH276777   6.708   0.650  11.705  0.0342  0.4708  0.2942
18429TIP3    H176778   6.800   0.669  11.720  0.0845 -0.0637  0.6463
18429TIP3    H276779   6.699   0.556  11.717 -0.4379  0.4211 -0.3711
18430TIP3   OH276780   6.691   6.664   4.075  0.0436 -0.6761  0.1955
18430TIP3    H176781   6.689   6.629   4.164  0.3797 -0.2362  0.3779
18430TIP3    H276782   6.661   6.592   4.020 -0.6696 -0.7800  0.7152
18431TIP3   OH276783   2.756   3.576  10.816  0.8544  0.2550 -0.6322
18431TIP3    H176784   2.725   3.503  10.763 -0.8005  1.2105 -1.0268
18431TIP3    H276785   2.810   3.628  10.756 -0.7459  1.1583 -1.3255
18432TIP3   OH276786   2.514   1.790   5.691  0.4618  0.4678  0.2134
18432TIP3    H176787   2.574   1.778   5.765  1.5539  0.4778 -0.6700
18432TIP3    H276788   2.477   1.703   5.677 -1.1464  0.8400  1.9464
18433TIP3   OH276789   0.967   5.382  13.504 -0.1711  0.0425 -0.0954
18433TIP3    H176790   1.033   5.410  13.441  0.1666  1.6853  0.9618
18433TIP3    H276791   1.002   5.300  13.540  0.2236 -0.2505 -1.1145
18434TIP3   OH276792   3.102   0.975  17.189  0.2307 -0.1112 -0.1772
18434TIP3    H176793   3.165   1.039  17.156 -0.8309  1.0658  0.0439
18434TIP3    H276794   3.149   0.930  17.259  0.9238  0.5594 -0.2019
18435TIP3   OH276795   1.780   1.121   4.582  0.5913  0.0858 -0.2490
18435TIP3    H176796   1.738   1.193   4.630  3.6548  0.9439  1.3129
18435TIP3    H276797   1.799   1.055   4.649 -1.2337 -1.7650 -1.4980
18436TIP3   OH276798   6.334   1.104  13.213 -0.1388  0.1376 -0.7724
18436TIP3    H176799   6.428   1.118  13.204  0.3183 -2.1221  0.1433
18436TIP3    H276800   6.294   1.176  13.165  2.0423  1.9219  0.0014
18437TIP3   OH276801   0.535   4.826  13.268 -0.2398 -0.0767  0.4256
18437TIP3    H176802   0.474   4.762  13.231  1.2909 -1.6717  0.6358
18437TIP3    H276803   0.524   4.903  13.213 -0.8011 -1.1125 -0.9511
18438TIP3   OH276804   2.665   5.482  11.353 -0.2526  0.0203 -0.4120
18438TIP3    H176805   2.571   5.466  11.365 -0.4792  1.0668 -0.7527
18438TIP3    H276806   2.671   5.523  11.267  0.3877  1.1056  0.1471
18439TIP3   OH276807   4.159   1.312  11.995 -0.4779 -0.4580 -0.2155
18439TIP3    H176808   4.115   1.231  11.970  0.2265 -0.5590 -1.1440
18439TIP3    H276809   4.200   1.292  12.079 -2.7547 -0.1506  0.9959
18440TIP3   OH276810   3.128   5.785   6.253 -0.0199  0.3364 -0.3537
18440TIP3    H176811   3.199   5.730   6.287  0.5297  1.7947  0.9576
18440TIP3    H276812   3.049   5.733   6.264  0.3915  0.0957  1.5858
18441TIP3   OH276813   0.262   0.214   3.079  0.2893 -0.3394  0.1553
18441TIP3    H176814   0.263   0.187   3.171 -0.1374 -1.5204 -0.1914
18441TIP3    H276815   0.273   0.133   3.030  1.4490  0.3895 -0.8238
18442TIP3   OH276816   1.798   4.069  12.863 -0.2633 -0.4410  0.0556
18442TIP3    H176817   1.864   4.122  12.907 -0.5947 -0.4556  0.5830
18442TIP3    H276818   1.787   3.993  12.920 -0.9684 -0.2740  0.1502
18443TIP3   OH276819   4.411   0.056  14.413 -0.1457  0.1566  0.5172
18443TIP3    H176820   4.348   0.125  14.390  0.7262  0.6704 -0.3583
18443TIP3    H276821   4.441   0.080  14.500 -1.9377 -0.6675  1.3808
18444TIP3   OH276822   6.155   0.135  14.582  0.7404 -0.2505 -0.0468
18444TIP3    H176823   6.149   0.140  14.677  0.2806  0.5628 -0.1179
18444TIP3    H276824   6.243   0.099  14.566  0.4731 -1.2537  0.6967
18445TIP3   OH276825   6.289   6.556  16.274  0.5812 -0.1286 -0.4720
18445TIP3    H176826   6.276   6.529  16.365  0.2880 -2.2471 -1.1127
18445TIP3    H276827   6.311   6.649  16.280 -2.3783  0.5247  1.5337
18446TIP3   OH276828   4.991   3.151  14.731 -0.4005  0.5169 -0.0976
18446TIP3    H176829   5.071   3.184  14.773 -1.1601  2.2253  0.0732
18446TIP3    H276830   4.939   3.115  14.803 -0.0409 -0.0460 -0.1224
18447TIP3   OH276831   4.103   5.340   1.636 -0.5117 -0.1953  0.2418
18447TIP3    H176832   4.190   5.300   1.637 -0.1521  0.5846  1.2916
18447TIP3    H276833   4.120   5.434   1.647 -1.3877  0.1679 -1.3661
18448TIP3   OH276834   6.081   0.417   0.694  0.3588 -0.6101 -0.3216
18448TIP3    H176835   6.107   0.488   0.752 -0.6844  0.7581 -1.4977
18448TIP3    H276836   6.041   0.352   0.752 -1.2339  1.0168  0.4413
18449TIP3   OH276837   4.718   3.696   2.943  0.1573 -0.6681 -0.2462
18449TIP3    H176838   4.712   3.765   2.876  0.2737 -0.5070 -0.0909
18449TIP3    H276839   4.745   3.742   3.022  0.4729 -0.9300 -0.2007
18450TIP3   OH276840   4.781   2.869  14.264  0.5527 -0.2062  0.1984
18450TIP3    H176841   4.707   2.917  14.226  0.2770 -0.4884  0.3754
18450TIP3    H276842   4.857   2.896  14.211  0.4899  0.7918  0.6045
18451TIP3   OH276843   0.213   1.433   5.709  0.4259  0.3371 -0.1355
18451TIP3    H176844   0.219   1.367   5.778 -1.3557  0.1122 -0.1565
18451TIP3    H276845   0.122   1.427   5.678  0.8647  1.2543 -1.6791
18452TIP3   OH276846   5.783   2.277  15.440 -0.2246  0.1328 -0.0002
18452TIP3    H176847   5.872   2.281  15.475 -0.7331  0.8586  1.2273
18452TIP3    H276848   5.735   2.223  15.503 -0.8186  0.3134 -0.2959
18453TIP3   OH276849   3.415   0.596  13.306  1.1458 -0.2041 -0.3620
18453TIP3    H176850   3.397   0.689  13.291 -0.5246 -0.1887  1.4684
18453TIP3    H276851   3.509   0.592  13.324  1.0904  1.2674  0.3717
18454TIP3   OH276852   1.760   1.604  14.852 -0.4928  0.1583 -0.9186
18454TIP3    H176853   1.756   1.642  14.940 -1.9178  1.5027 -1.5319
18454TIP3    H276854   1.841   1.638  14.814 -1.0030  1.3994 -0.9159
18455TIP3   OH276855   3.115   2.898  11.578 -0.0807  0.5400  0.5986
18455TIP3    H176856   3.088   2.873  11.490 -1.3762  0.4015  1.0129
18455TIP3    H276857   3.136   2.991  11.573 -1.0641  0.7531  0.3412
18456TIP3   OH276858   3.111   6.441   4.977 -0.3619 -0.7477  0.1095
18456TIP3    H176859   3.052   6.462   4.906  1.1786  1.7907 -0.5036
18456TIP3    H276860   3.054   6.417   5.050 -2.2332  2.2391 -0.2618
18457TIP3   OH276861   3.342   4.681  13.178 -0.0519  0.3848  0.2245
18457TIP3    H176862   3.252   4.650  13.193  0.0023 -0.2027 -0.6017
18457TIP3    H276863   3.331   4.772  13.150 -0.5609 -0.3520 -2.0625
18458TIP3   OH276864   0.489   6.509  11.244  0.7346 -0.7228 -0.2928
18458TIP3    H176865   0.418   6.462  11.201  1.8031 -1.6508 -1.1106
18458TIP3    H276866   0.567   6.485  11.193  1.5629  0.6014  0.3161
18459TIP3   OH276867   0.340   3.879   1.108 -0.5323  0.1658 -0.4169
18459TIP3    H176868   0.357   3.962   1.064  0.0837  0.3639  0.1910
18459TIP3    H276869   0.311   3.904   1.196 -0.1991 -0.2615 -0.1833
18460TIP3   OH276870   3.979   6.540  13.511  0.2667  0.5386  0.2945
18460TIP3    H176871   4.011   6.462  13.465  0.0290  0.6211 -0.0154
18460TIP3    H276872   3.884   6.531  13.512  0.2974  0.2803  1.2478
18461TIP3   OH276873   0.595   2.379   2.515 -0.3542 -0.3014  0.4471
18461TIP3    H176874   0.679   2.423   2.530 -1.3702  1.3813  1.3291
18461TIP3    H276875   0.593   2.365   2.420  0.7925 -0.1051  0.3758
18462TIP3   OH276876   4.594   3.622   2.476  0.1000 -0.2192 -0.0062
18462TIP3    H176877   4.626   3.541   2.516  2.2688  0.7663  0.3124
18462TIP3    H276878   4.502   3.627   2.502 -0.4056 -3.1566 -0.9863
18463TIP3   OH276879   5.552   4.372   4.437 -0.3690  0.6179 -0.2514
18463TIP3    H176880   5.593   4.454   4.408  0.3271  0.1900 -0.4940
18463TIP3    H276881   5.553   4.378   4.533 -0.6026  1.0303 -0.2736
18464TIP3   OH276882   5.807   2.410  15.113 -0.1319 -0.3637 -0.3457
18464TIP3    H176883   5.713   2.405  15.094 -0.1550 -0.1012 -0.3022
18464TIP3    H276884   5.830   2.321  15.140 -1.1529  0.4274  3.3588
18465TIP3   OH276885   2.856   5.733  11.238  0.2416  0.6456 -0.3607
18465TIP3    H176886   2.840   5.756  11.147  0.4020 -1.5607 -0.9710
18465TIP3    H276887   2.892   5.813  11.277  0.0454  1.6458 -2.1909
18466TIP3   OH276888   2.353   5.062   4.791 -0.5219  0.1592  0.4955
18466TIP3    H176889   2.266   5.037   4.760 -0.8839 -0.2378  1.7961
18466TIP3    H276890   2.406   5.068   4.712 -2.3509  2.8958 -0.5888
18467TIP3   OH276891   3.899   4.504  13.908  0.0938 -0.2474  0.0080
18467TIP3    H176892   3.892   4.574  13.972  0.1349  1.4908 -1.8151
18467TIP3    H276893   3.810   4.494  13.874 -0.0671 -1.6477  0.8570
18468TIP3   OH276894   0.013   5.734  11.604 -0.1718  0.7176 -0.5238
18468TIP3    H176895   0.014   5.646  11.566 -3.7223 -0.1373  1.1080
18468TIP3    H276896   0.078   5.730  11.674  0.1607 -0.3973 -0.8820
18469TIP3   OH276897   3.941   1.015   2.143 -0.2171  0.3210 -0.4052
18469TIP3    H176898   3.952   1.100   2.100  1.0992  1.2137  1.6226
18469TIP3    H276899   3.978   0.952   2.082  1.6693  1.5697 -0.5852
18470TIP3   OH276900   3.920   3.697  17.074 -0.0662 -0.5974 -0.1688
18470TIP3    H176901   3.920   3.793  17.067  1.1466 -0.2789  2.9698
18470TIP3    H276902   3.829   3.675  17.095 -0.0035  0.0795  0.8997
18471TIP3   OH276903   3.621   0.337  13.613  0.0689  0.2909 -0.2458
18471TIP3    H176904   3.619   0.246  13.643  1.4084  0.4321  0.3102
18471TIP3    H276905   3.713   0.352  13.591 -0.1898  1.4464 -0.5135
18472TIP3   OH276906   6.222   1.836   0.642 -0.1380  0.0140  0.3971
18472TIP3    H176907   6.256   1.772   0.705  0.1524  0.2463  0.4782
18472TIP3    H276908   6.223   1.790   0.558 -1.0395 -0.4801  0.6499
18473TIP3   OH276909   3.505   5.315  16.494  0.4579  0.3135  0.3226
18473TIP3    H176910   3.411   5.332  16.499  0.2279 -0.8235 -0.0702
18473TIP3    H276911   3.520   5.291  16.402  0.6650 -2.2438  1.0057
18474TIP3   OH276912   3.877   4.930  12.475  0.1597  0.1536  0.3528
18474TIP3    H176913   3.804   4.992  12.473  1.7357  2.0688 -0.2947
18474TIP3    H276914   3.908   4.933  12.565  1.8630  2.3821 -0.2394
18475TIP3   OH276915   5.402   3.051   4.240 -0.7387 -0.1075 -0.6526
18475TIP3    H176916   5.334   2.984   4.236 -2.7168  1.9099 -1.7564
18475TIP3    H276917   5.480   3.007   4.205 -1.2923 -2.6068  1.1519
18476TIP3   OH276918   1.147   2.147  17.155 -0.2473 -0.4028 -0.0846
18476TIP3    H176919   1.189   2.077  17.204 -2.9819 -2.6162 -0.7170
18476TIP3    H276920   1.094   2.193  17.219 -0.9661 -0.9966 -0.2347
18477TIP3   OH276921   0.107   2.663  15.633  0.4132  0.0288  1.2400
18477TIP3    H176922   0.199   2.678  15.615  0.0935  0.3430 -0.2046
18477TIP3    H276923   0.106   2.602  15.707  1.7720 -0.1994  1.0755
18478TIP3   OH276924   2.310   0.822  15.329  0.1362 -0.7079  0.3317
18478TIP3    H176925   2.337   0.730  15.321  0.2570 -0.8518  2.2159
18478TIP3    H276926   2.384   0.871  15.294  1.1913 -1.2494  1.7297
18479TIP3   OH276927   3.108   2.761   2.588 -0.6759  0.0631 -0.1187
18479TIP3    H176928   3.082   2.704   2.660  0.5177  1.0972  1.1727
18479TIP3    H276929   3.202   2.745   2.578 -0.2967  1.8438  0.3322
18480TIP3   OH276930   3.887   2.202   3.505 -0.5597  0.5775  0.4404
18480TIP3    H176931   3.866   2.147   3.581 -0.0582  0.6375  0.6229
18480TIP3    H276932   3.815   2.266   3.502 -1.1855 -0.1358  0.1783
18481TIP3   OH276933   1.078   1.427   0.883  0.2765 -0.6383  0.2882
18481TIP3    H176934   1.081   1.505   0.939 -0.3426  0.9530 -1.8498
18481TIP3    H276935   1.162   1.427   0.837 -0.2280 -0.5005 -0.6492
18482TIP3   OH276936   4.238   4.225   0.039  0.2703  0.1429 -0.0146
18482TIP3    H176937   4.199   4.203   0.123 -0.1347 -3.5300 -1.0833
18482TIP3    H276938   4.327   4.254   0.060  0.2663 -1.0440  1.6470
18483TIP3   OH276939   3.397   6.561   4.871  0.6047  0.4770 -0.1227
18483TIP3    H176940   3.301   6.565   4.869  0.6169  0.9577  0.1452
18483TIP3    H276941   3.424   6.650   4.891  1.2165  0.9870 -3.0330
18484TIP3   OH276942   5.227   3.475  14.376 -0.5964  0.5311 -0.0727
18484TIP3    H176943   5.215   3.544  14.311  1.3240  3.5255  2.6521
18484TIP3    H276944   5.322   3.466  14.384 -0.8179 -1.5816  0.5641
18485TIP3   OH276945   4.108   2.200   2.145  0.0848  0.4693  0.1149
18485TIP3    H176946   4.039   2.236   2.088 -0.4697  2.3782  1.9536
18485TIP3    H276947   4.186   2.250   2.123 -0.0915  1.0985  0.8948
18486TIP3   OH276948   6.443   5.975  13.415  0.4205  0.1483 -0.3659
18486TIP3    H176949   6.515   5.921  13.383 -0.4701  0.9547 -3.9637
18486TIP3    H276950   6.485   6.044  13.466  2.1179 -0.0291 -1.5070
18487TIP3   OH276951   1.825   2.132  11.790  0.0127  0.0105  0.5931
18487TIP3    H176952   1.841   2.196  11.720 -1.3185  1.2383  1.3804
18487TIP3    H276953   1.730   2.132  11.801  0.2035 -0.0728  2.4822
18488TIP3   OH276954   1.597   4.569   4.779  0.0836 -0.4417  0.1059
18488TIP3    H176955   1.626   4.635   4.716  1.7426 -0.4231  0.8479
18488TIP3    H276956   1.573   4.493   4.726 -0.2277  0.1830 -0.6514
18489TIP3   OH276957   1.291   1.926  15.963  0.1865 -0.4913  0.1030
18489TIP3    H176958   1.329   1.973  16.038 -1.2380 -0.0689  0.5736
18489TIP3    H276959   1.283   1.835  15.994  0.6803 -0.5578  0.0455
18490TIP3   OH276960   2.353   3.901   1.236  0.1460 -0.1628  0.2968
18490TIP3    H176961   2.427   3.847   1.209  0.2376 -1.0208  2.1239
18490TIP3    H276962   2.391   3.970   1.290 -0.1276  0.8703 -0.8286
18491TIP3   OH276963   4.596   0.309   2.137  0.3299  0.3162 -0.0793
18491TIP3    H176964   4.569   0.297   2.046 -2.3912 -0.6965  0.8130
18491TIP3    H276965   4.529   0.367   2.174  2.3958  2.2022  0.8437
18492TIP3   OH276966   4.388   6.658   4.452 -0.1083 -0.1510  0.1037
18492TIP3    H176967   4.384   6.566   4.425  2.2994 -0.9172  2.2276
18492TIP3    H276968   4.340   6.660   4.535 -0.3386  0.5536 -0.0471
18493TIP3   OH276969   0.566   2.007  16.016 -0.3187 -0.0374  0.4238
18493TIP3    H176970   0.565   2.100  15.992  0.3563 -0.7774 -2.6966
18493TIP3    H276971   0.557   2.007  16.111  0.2286  3.2399  0.5466
18494TIP3   OH276972   5.725   0.409  11.636  0.2502  0.1093 -0.7616
18494TIP3    H176973   5.706   0.503  11.641  1.1394  0.2563 -0.0539
18494TIP3    H276974   5.678   0.379  11.558 -0.1339  1.1151 -0.9259
18495TIP3   OH276975   1.809   5.636   1.651  0.5932  0.3196  0.2306
18495TIP3    H176976   1.791   5.658   1.560 -0.6172 -1.0182  0.1252
18495TIP3    H276977   1.808   5.720   1.698  1.3816  1.0246 -1.0003
18496TIP3   OH276978   0.913   4.113   0.481  0.2506  0.4383  0.0049
18496TIP3    H176979   0.821   4.127   0.459  0.1019  2.0785  1.5738
18496TIP3    H276980   0.959   4.122   0.398 -0.8871  0.5432 -0.6312
18497TIP3   OH276981   3.570   3.589   5.082  0.4974  0.3633  0.1482
18497TIP3    H176982   3.610   3.668   5.046  0.7363  0.5078  0.7278
18497TIP3    H276983   3.606   3.518   5.029  0.4546  0.6182 -0.2280
18498TIP3   OH276984   3.753   3.279   0.780 -0.4199 -0.1840 -0.1103
18498TIP3    H176985   3.745   3.285   0.685 -1.2301  0.4956 -0.0007
18498TIP3    H276986   3.663   3.281   0.812 -0.0733  2.5675  0.8367
18499TIP3   OH276987   4.879   5.630   1.968  0.3743  0.7938  0.1275
18499TIP3    H176988   4.920   5.548   1.997  0.1011  0.2502 -1.0127
18499TIP3    H276989   4.929   5.698   2.012  1.3164  0.0606  0.2190
18500TIP3   OH276990   4.284   1.586   1.987  0.4606  0.1160  0.7740
18500TIP3    H176991   4.321   1.623   2.067  1.5046  0.2308  0.2352
18500TIP3    H276992   4.196   1.625   1.981  0.2073 -0.2337  2.0888
18501TIP3   OH276993   1.554   4.081  11.461 -0.1647  0.5425  0.3030
18501TIP3    H176994   1.610   4.004  11.446 -0.2328 -0.3168  3.9875
18501TIP3    H276995   1.610   4.142  11.510 -1.1699  1.4381  0.3438
18502TIP3   OH276996   3.839   3.212  16.598 -0.2587  0.0799  0.1345
18502TIP3    H176997   3.821   3.179  16.511 -2.2312  0.2587  0.4652
18502TIP3    H276998   3.878   3.138  16.645 -3.3801 -1.4261  0.4542
18503TIP3   OH276999   3.996   1.655  13.854  0.2078 -0.1276  0.1358
18503TIP3    H177000   4.042   1.669  13.771  1.2917 -1.4082  0.4951
18503TIP3    H277001   4.032   1.721  13.913  1.3923 -0.8997  0.3157
18504TIP3   OH277002   4.103   5.654  11.815  0.1490  0.0768 -0.3364
18504TIP3    H177003   4.165   5.722  11.841  0.7542 -0.7297  0.3524
18504TIP3    H277004   4.017   5.689  11.837  0.3180  1.3732 -1.6665
18505TIP3   OH277005   1.149   2.624   5.514  0.1204 -0.3987 -0.5072
18505TIP3    H177006   1.055   2.633   5.498  0.0056  0.1173  0.3783
18505TIP3    H277007   1.184   2.585   5.435 -1.3481 -3.5882  0.3637
18506TIP3   OH277008   6.191   5.911   2.302 -0.5969 -0.1636  0.7475
18506TIP3    H177009   6.140   5.837   2.270  0.2588 -0.6376  0.4633
18506TIP3    H277010   6.279   5.876   2.317 -0.0851  0.8712  0.2602
18507TIP3   OH277011   1.897   4.611  15.686 -0.2877  0.4020 -0.3356
18507TIP3    H177012   1.855   4.525  15.680  1.2748 -0.5789  1.9760
18507TIP3    H277013   1.834   4.671  15.648 -2.3078 -1.4976 -0.0869
18508TIP3   OH277014   2.007   4.092   5.582 -0.0105 -0.1887  0.1064
18508TIP3    H177015   1.915   4.118   5.580 -0.0578 -0.3496  0.2045
18508TIP3    H277016   2.010   4.019   5.644  0.2112 -0.0727  0.2316
18509TIP3   OH277017   2.255   0.370   4.048  0.1426  0.3587 -0.3572
18509TIP3    H177018   2.266   0.464   4.064  0.7736  0.4229 -1.0930
18509TIP3    H277019   2.187   0.343   4.109  0.8374  1.0450  0.7375
18510TIP3   OH277020   3.514   4.636   3.966 -0.4773  0.3599 -0.0673
18510TIP3    H177021   3.488   4.559   4.018 -2.2096  2.5352  2.4048
18510TIP3    H277022   3.568   4.688   4.026 -1.3229  2.2320 -0.9044
18511TIP3   OH277023   2.306   4.225   0.394 -0.0272 -0.3358  0.3585
18511TIP3    H177024   2.244   4.262   0.456  1.2522  1.9752  0.2851
18511TIP3    H277025   2.310   4.288   0.322  0.1768 -1.9058 -1.0561
18512TIP3   OH277026   6.153   3.262  12.924 -0.1210 -0.0150 -0.3415
18512TIP3    H177027   6.100   3.185  12.946 -2.1242  1.0147 -1.3756
18512TIP3    H277028   6.205   3.278  13.003 -0.8863 -1.4583  0.4939
18513TIP3   OH277029   6.518   0.619  15.924 -0.2889 -0.1277 -0.4241
18513TIP3    H177030   6.483   0.664  15.847 -2.2776 -1.2165 -0.2063
18513TIP3    H277031   6.440   0.594  15.974  0.8577 -2.1739  0.3798
18514TIP3   OH277032   1.198   0.685   1.510  0.1979 -0.0536 -0.3345
18514TIP3    H177033   1.188   0.645   1.597 -1.0379  0.0808 -0.4113
18514TIP3    H277034   1.182   0.778   1.525  0.5997  0.0584 -0.6003
18515TIP3   OH277035   1.376   5.697  14.492 -0.2627 -0.6808 -0.3478
18515TIP3    H177036   1.415   5.675  14.407  0.5556  0.5452 -0.3074
18515TIP3    H277037   1.448   5.736  14.541 -0.8453 -0.9888  0.7598
18516TIP3   OH277038   3.677   6.526   3.113 -0.3495  0.2613 -0.1607
18516TIP3    H177039   3.652   6.588   3.182 -1.0476 -1.8393  1.5389
18516TIP3    H277040   3.739   6.574   3.059  0.7758  1.7573  2.3706
18517TIP3   OH277041   4.183   0.131   4.451  0.0299 -0.3254 -0.1584
18517TIP3    H177042   4.272   0.104   4.429  1.2698  0.9999  2.8810
18517TIP3    H277043   4.135   0.049   4.464  0.9887 -1.0351 -1.0610
18518TIP3   OH277044   0.973   1.537  11.416  0.5460 -0.4673 -0.4922
18518TIP3    H177045   1.046   1.477  11.426  1.6865  1.0324  0.4784
18518TIP3    H277046   0.895   1.481  11.415  1.6928 -2.0757 -1.5082
18519TIP3   OH277047   0.519   3.340   0.144 -0.5412  0.5887 -0.2444
18519TIP3    H177048   0.530   3.365   0.235 -3.1081 -0.6185  0.4510
18519TIP3    H277049   0.436   3.380   0.117 -0.2887  0.1509 -1.7326
18520TIP3   OH277050   0.139   2.977  17.070 -0.7326 -0.2145  0.0873
18520TIP3    H177051   0.112   3.065  17.098 -0.1420 -0.3976  1.2348
18520TIP3    H277052   0.198   2.993  16.996 -0.8773  0.3384  0.0850
18521TIP3   OH277053   3.423   0.547  12.300  0.3193 -0.1290 -0.3448
18521TIP3    H177054   3.510   0.575  12.329 -0.3391  0.6090  0.9359
18521TIP3    H277055   3.400   0.609  12.231  0.0023  0.8683  0.6465
18522TIP3   OH277056   2.778   6.649  12.664 -0.1848 -0.1312  0.1973
18522TIP3    H177057   2.683   6.658  12.668 -0.2265 -0.2053 -0.5153
18522TIP3    H277058   2.804   6.704  12.590  0.3935  0.3956  0.7860
18523TIP3   OH277059   2.355   5.236  11.870  0.3432 -0.2421  0.3486
18523TIP3    H177060   2.404   5.272  11.796 -1.1193 -0.5053 -0.7799
18523TIP3    H277061   2.421   5.193  11.924  1.2142 -1.6923 -1.7846
18524TIP3   OH277062   4.543   6.366  13.394  0.3622 -0.3566  0.2815
18524TIP3    H177063   4.463   6.314  13.396  0.9272 -1.2227  1.0742
18524TIP3    H277064   4.518   6.449  13.434 -0.5148 -0.0611 -0.8654
18525TIP3   OH277065   1.913   5.166  16.858  0.1243 -0.2892  0.1288
18525TIP3    H177066   1.979   5.230  16.831  1.7527 -1.3599  1.4855
18525TIP3    H277067   1.960   5.083  16.863 -1.5510 -1.2626  0.1839
18526TIP3   OH277068   2.690   0.114  15.506  0.7730 -0.9045  0.2595
18526TIP3    H177069   2.630   0.186  15.486 -1.5313 -2.3021  1.7895
18526TIP3    H277070   2.776   0.147  15.483 -0.2355  2.3186  0.8253
18527TIP3   OH277071   4.979   6.423   3.978  0.0458 -0.0930 -0.4394
18527TIP3    H177072   4.988   6.515   3.953  0.1867 -0.5430 -2.1191
18527TIP3    H277073   5.063   6.401   4.016 -0.7460  1.0798  2.1377
18528TIP3   OH277074   1.754   3.655  12.767  0.6684 -0.0452  0.0553
18528TIP3    H177075   1.667   3.635  12.801  0.8318 -1.2444 -0.1860
18528TIP3    H277076   1.738   3.681  12.676  0.4917  0.5196  0.2460
18529TIP3   OH277077   0.508   0.383   2.945  0.5332  0.6746  0.4542
18529TIP3    H177078   0.424   0.336   2.946  0.9799 -0.1298  0.8158
18529TIP3    H277079   0.557   0.346   3.018  0.6206  2.2405  1.1959
18530TIP3   OH277080   2.557   6.158  11.613  0.0973  0.3917 -0.2988
18530TIP3    H177081   2.545   6.248  11.642  0.9590  0.7638 -1.0837
18530TIP3    H277082   2.611   6.165  11.534  0.4946 -0.8358 -0.1452
18531TIP3   OH277083   5.506   0.862  11.627  0.6015 -0.0668 -0.3760
18531TIP3    H177084   5.452   0.788  11.653  1.5972 -0.1008  1.6922
18531TIP3    H277085   5.595   0.827  11.625  1.1284  1.1287  0.9680
18532TIP3   OH277086   0.710   2.243  14.756 -0.4920  0.4402  0.6463
18532TIP3    H177087   0.628   2.272  14.717  0.3455  0.1333 -1.4208
18532TIP3    H277088   0.747   2.320  14.798 -1.1573  0.9160  0.3485
18533TIP3   OH277089   1.304   1.212  11.097 -0.3840 -0.5749  0.2812
18533TIP3    H177090   1.300   1.127  11.140  0.4691 -0.7628 -0.0039
18533TIP3    H277091   1.397   1.234  11.096 -0.3728 -0.6809 -1.6822
18534TIP3   OH277092   5.195   0.104  15.959  0.0239  0.2862 -0.0576
18534TIP3    H177093   5.211   0.140  16.046  0.6439 -0.4344  0.1447
18534TIP3    H277094   5.135   0.031  15.974 -0.1596  0.3911 -0.2822
18535TIP3   OH277095   5.618   2.085  15.566 -0.4781  0.1664 -0.1361
18535TIP3    H177096   5.535   2.081  15.613 -0.5399  0.1462 -0.2474
18535TIP3    H277097   5.599   2.048  15.480 -0.6318  1.1771 -0.5531
18536TIP3   OH277098   2.744   0.411   1.273  0.0298  0.0047 -0.3589
18536TIP3    H177099   2.690   0.332   1.277  0.3828 -0.2141  0.2052
18536TIP3    H277100   2.801   0.396   1.197 -0.8726  0.3564 -1.1152
18537TIP3   OH277101   0.058   5.125   0.462 -0.3311  0.8153  0.1018
18537TIP3    H177102   0.063   5.067   0.386 -0.4239 -0.3388  0.9732
18537TIP3    H277103   0.142   5.115   0.505 -0.1689  1.6980 -0.0029
18538TIP3   OH277104   5.863   5.234   4.799  0.1090 -0.7177  0.0136
18538TIP3    H177105   5.924   5.224   4.872 -1.7576 -1.6647  1.5004
18538TIP3    H277106   5.826   5.322   4.811  0.2449 -0.6409 -0.1351
18539TIP3   OH277107   4.537   0.049   4.713 -0.0132  0.3217  0.0356
18539TIP3    H177108   4.475   0.099   4.766 -1.6342 -1.0628 -0.4838
18539TIP3    H277109   4.549  -0.033   4.761  2.5990  1.1721  0.8710
18540TIP3   OH277110   0.335   2.967  11.090 -0.1488  0.2943  0.4517
18540TIP3    H177111   0.399   2.908  11.130 -1.8484 -1.5594  0.5435
18540TIP3    H277112   0.387   3.039  11.056  2.2731 -2.2208 -1.4417
18541TIP3   OH277113   5.935   2.796   3.594  0.2211  0.2145 -0.4092
18541TIP3    H177114   6.003   2.845   3.641 -2.0051  1.3911  1.6769
18541TIP3    H277115   5.857   2.850   3.603 -1.8218 -2.7388  0.1407
18542TIP3   OH277116   5.903   6.424   5.943  0.5147 -0.1273 -0.5759
18542TIP3    H177117   5.855   6.431   5.861 -0.4503 -3.1207 -0.3055
18542TIP3    H277118   5.956   6.345   5.934  1.2203  0.1029  1.2750
18543TIP3   OH277119   3.954   6.254   1.814 -0.2332 -0.0359 -0.2943
18543TIP3    H177120   3.892   6.226   1.746 -2.3843  0.4231  1.3967
18543TIP3    H277121   3.937   6.194   1.887  1.1351  0.2853  0.3039
18544TIP3   OH277122   2.878   1.686   0.624  0.6224 -0.9246 -0.7287
18544TIP3    H177123   2.797   1.667   0.577 -0.3685  3.3905 -1.0196
18544TIP3    H277124   2.941   1.708   0.555  0.3160  1.4717 -0.2807
18545TIP3   OH277125   3.595   0.353   3.618 -1.0310  1.0648  0.6058
18545TIP3    H177126   3.571   0.414   3.548 -3.1761  1.3994  1.5970
18545TIP3    H277127   3.689   0.338   3.605 -1.9861 -1.8590 -4.6795
18546TIP3   OH277128   6.256   1.328   4.302 -0.1569 -0.3865  0.0453
18546TIP3    H177129   6.277   1.408   4.351 -0.0667 -1.0872  1.1757
18546TIP3    H277130   6.244   1.358   4.212  1.9677  0.5799  0.0594
18547TIP3   OH277131   2.165   6.747  11.716  0.1419  0.3911 -0.3039
18547TIP3    H177132   2.191   6.659  11.689  0.5061  0.4345 -0.0876
18547TIP3    H277133   2.247   6.792  11.738 -0.1703  0.2169  1.3078
18548TIP3   OH277134   0.781   2.648   4.636 -0.0121 -0.0569 -0.3073
18548TIP3    H177135   0.763   2.682   4.548  0.2380 -1.4921 -0.9273
18548TIP3    H277136   0.846   2.708   4.672  0.9852 -0.2854 -1.6756
18549TIP3   OH277137   6.023   4.906   4.420  0.2754 -0.0418  0.0400
18549TIP3    H177138   6.030   4.976   4.485 -2.2680 -1.2056  1.6400
18549TIP3    H277139   6.073   4.833   4.457  1.2607  0.2378 -0.7051
18550TIP3   OH277140   1.090   6.419   3.633  0.0083  0.7237 -0.4549
18550TIP3    H177141   0.996   6.420   3.650  0.3074 -1.4410  1.5383
18550TIP3    H277142   1.130   6.435   3.718  1.4796  1.3088 -1.2292
18551TIP3   OH277143   2.459   1.876   2.480 -0.4027  0.4050  0.6017
18551TIP3    H177144   2.488   1.837   2.563  1.7354 -0.5432 -0.5463
18551TIP3    H277145   2.539   1.886   2.429 -1.7180  0.7734 -1.4457
18552TIP3   OH277146   0.342   0.577   2.297  0.0663 -0.4895 -0.2254
18552TIP3    H177147   0.305   0.609   2.380  1.7037 -0.3438  0.4654
18552TIP3    H277148   0.266   0.559   2.242 -1.1065 -1.9661  1.8232
18553TIP3   OH277149   4.805   6.316   6.124  0.0138  0.3057 -0.2733
18553TIP3    H177150   4.894   6.291   6.102 -0.8050 -3.3797  0.1559
18553TIP3    H277151   4.752   6.240   6.097 -2.5040  0.8895  2.7520
18554TIP3   OH277152   3.463   0.520   0.771 -0.0105  0.5777 -0.2792
18554TIP3    H177153   3.393   0.582   0.749 -0.4523  0.4081  0.6163
18554TIP3    H277154   3.420   0.434   0.769  0.6391  0.2737 -1.6859
18555TIP3   OH277155   4.178   4.668   5.494 -0.1803  0.1370  0.2631
18555TIP3    H177156   4.112   4.700   5.432  0.1548  3.1055  1.3543
18555TIP3    H277157   4.184   4.737   5.560  3.9285 -0.1183  0.2791
18556TIP3   OH277158   1.922   4.578   2.290 -0.7162  0.0196  0.4670
18556TIP3    H177159   1.916   4.609   2.200 -1.9270 -1.2567  0.0854
18556TIP3    H277160   1.834   4.548   2.312  0.0052 -1.5617  1.3735
18557TIP3   OH277161   2.853   1.141  16.007 -0.1667  0.3516 -0.5312
18557TIP3    H177162   2.808   1.211  15.959  3.8357  2.6385 -1.2128
18557TIP3    H277163   2.904   1.095  15.940 -1.1134 -1.8691  0.2577
18558TIP3   OH277164   4.027   5.055  13.268 -0.0990  0.3019  0.5425
18558TIP3    H177165   3.974   5.123  13.227  0.0945 -0.0888 -0.3555
18558TIP3    H277166   4.014   5.069  13.362  0.4772  2.0001  0.3915
18559TIP3   OH277167   6.704   2.555  10.400  0.1725  0.4896 -0.1636
18559TIP3    H177168   6.637   2.593  10.343 -0.3821 -0.5717 -0.2362
18559TIP3    H277169   6.720   2.468  10.363  0.1572 -0.0240  1.0248
18560TIP3   OH277170   4.061   2.650   2.172  0.6706 -0.2070  0.1614
18560TIP3    H177171   4.149   2.621   2.147  0.4837 -0.8921  0.2846
18560TIP3    H277172   4.076   2.712   2.242  1.1462  0.9365 -0.9359
18561TIP3   OH277173   5.873   5.411  11.671  0.2267 -0.2589 -1.0977
18561TIP3    H177174   5.879   5.504  11.649  1.2412  0.1275  0.7195
18561TIP3    H277175   5.866   5.409  11.767 -1.8512 -1.9760 -1.2465
18562TIP3   OH277176   3.562   2.152   2.381 -0.1629  0.0664  0.2039
18562TIP3    H177177   3.641   2.206   2.377 -0.1393  0.0612  0.5865
18562TIP3    H277178   3.581   2.076   2.326 -0.2569  0.5304 -0.4641
18563TIP3   OH277179   4.990   0.472  14.124  0.4915 -0.3975  0.6826
18563TIP3    H177180   5.050   0.546  14.114  0.0047 -0.0713  0.1595
18563TIP3    H277181   4.984   0.459  14.219  1.5614 -0.5771  0.7322
18564TIP3   OH277182   3.924   0.920   0.994  0.2927 -0.3239  0.9668
18564TIP3    H177183   4.004   0.872   0.974  0.5212  0.8279 -0.9595
18564TIP3    H277184   3.900   0.890   1.082  3.0842 -0.3323  1.7694
18565TIP3   OH277185   4.897   3.287  12.270 -0.4513 -0.5227  0.4661
18565TIP3    H177186   4.978   3.237  12.274 -0.1972 -0.0590  1.1335
18565TIP3    H277187   4.902   3.335  12.187 -1.4460 -2.8699 -0.9950
18566TIP3   OH277188   6.283   5.464   1.624  0.0766 -0.0367 -0.0831
18566TIP3    H177189   6.208   5.418   1.661 -0.0027 -1.3253 -1.7788
18566TIP3    H277190   6.326   5.398   1.569  0.9485  1.4416 -1.2026
18567TIP3   OH277191   5.261   2.718  14.024 -0.0350  0.0891  0.2826
18567TIP3    H177192   5.283   2.720  14.117  0.5677 -2.3165  0.2401
18567TIP3    H277193   5.168   2.740  14.020 -0.0040  0.4346  1.4225
18568TIP3   OH277194   1.032   3.748  16.552  0.7675 -0.1320  0.5509
18568TIP3    H177195   1.057   3.767  16.461  0.5397  0.1340  0.5408
18568TIP3    H277196   1.112   3.716  16.593  1.0729  0.4933  0.4618
18569TIP3   OH277197   3.354   3.761  16.758  0.3208  0.0916  0.2682
18569TIP3    H177198   3.296   3.752  16.833  0.0217 -0.8842 -0.0670
18569TIP3    H277199   3.374   3.671  16.732  1.2139  0.4157 -0.2137
18570TIP3   OH277200   3.034   1.154   2.814 -0.2203  0.5172  0.1422
18570TIP3    H177201   2.994   1.076   2.854  0.2923  0.1176 -0.1164
18570TIP3    H277202   2.980   1.173   2.738 -1.8246  1.8982  1.5862
18571TIP3   OH277203   1.044   6.422   4.184 -0.3105 -0.2298  0.1383
18571TIP3    H177204   1.127   6.468   4.169 -0.6439  0.2448 -0.2735
18571TIP3    H277205   1.016   6.395   4.097 -0.2321 -1.0116  0.3589
18572TIP3   OH277206   3.747   3.620  10.610 -0.3295  0.2573  0.7821
18572TIP3    H177207   3.831   3.666  10.609 -0.5108  0.5808  0.0009
18572TIP3    H277208   3.759   3.548  10.548 -0.0318 -0.7776  2.0377
18573TIP3   OH277209   3.766   1.277  10.854  0.4879 -0.1257  0.3396
18573TIP3    H177210   3.717   1.198  10.831  1.3720 -0.5476 -0.1300
18573TIP3    H277211   3.825   1.291  10.780  1.7755 -0.1888  1.3432
18574TIP3   OH277212   1.741   2.240  14.091  0.2085 -0.5208  0.0012
18574TIP3    H177213   1.701   2.242  14.004 -0.7146  0.4134  0.4350
18574TIP3    H277214   1.718   2.154  14.126 -0.1166 -0.5842 -0.3627
18575TIP3   OH277215   4.398   5.901   4.557 -0.2812 -0.3493  0.7783
18575TIP3    H177216   4.333   5.933   4.494  1.4452  1.3655 -0.1642
18575TIP3    H277217   4.412   5.809   4.531  2.0922  0.9460 -2.8566
18576TIP3   OH277218   3.697   4.982   4.482 -0.1382 -0.6778 -0.8028
18576TIP3    H177219   3.617   5.035   4.477 -0.3172 -1.0521 -2.2375
18576TIP3    H277220   3.683   4.923   4.556 -0.9452 -0.3361 -0.6813
18577TIP3   OH277221   4.369   0.647   2.759 -0.0171  0.0364 -0.3027
18577TIP3    H177222   4.390   0.678   2.847  0.1085 -1.0928  0.0743
18577TIP3    H277223   4.274   0.640   2.758 -0.1404  1.5488 -0.7816
18578TIP3   OH277224   4.728   3.826  14.912 -0.5691  0.4049 -0.3936
18578TIP3    H177225   4.663   3.890  14.941 -2.0101 -0.2654 -2.1039
18578TIP3    H277226   4.794   3.879  14.867 -1.2779  0.7957 -0.9749
18579TIP3   OH277227   6.589   5.523   1.054 -0.2331 -0.3304 -0.0042
18579TIP3    H177228   6.629   5.524   0.967  1.3664 -0.0550  0.7209
18579TIP3    H277229   6.560   5.613   1.068 -2.6487 -0.8769 -1.1999
18580TIP3   OH277230   6.511   5.323  16.442 -0.3396 -0.0668 -0.5292
18580TIP3    H177231   6.432   5.271  16.451 -0.8721  0.5509 -1.4987
18580TIP3    H277232   6.492   5.403  16.492 -0.5587  0.3322 -1.2493
18581TIP3   OH277233   0.742   0.823   2.754  0.2619  0.1564  0.1465
18581TIP3    H177234   0.696   0.753   2.801  0.2100 -1.1430 -1.8145
18581TIP3    H277235   0.701   0.903   2.786 -1.4709 -0.8367  0.4933
18582TIP3   OH277236   2.754   3.865  11.222  0.4117 -0.2010 -0.5565
18582TIP3    H177237   2.822   3.861  11.155 -1.1363 -0.5757 -2.1286
18582TIP3    H277238   2.759   3.782  11.268  0.7540 -0.3838 -0.9297
18583TIP3   OH277239   0.392   1.184   1.829 -0.0916  0.0004 -0.2166
18583TIP3    H177240   0.338   1.228   1.764  2.5839  0.7305 -2.0357
18583TIP3    H277241   0.408   1.097   1.793  0.6331  0.0787 -0.1019
18584TIP3   OH277242   4.495   2.591  12.517 -0.3900 -0.1876 -0.4064
18584TIP3    H177243   4.538   2.528  12.459  2.4239  1.8840 -0.6581
18584TIP3    H277244   4.413   2.613  12.472  0.9888  0.1492 -2.8280
18585TIP3   OH277245   1.276   2.576  16.853 -0.2609  0.4804  0.9939
18585TIP3    H177246   1.288   2.631  16.776 -0.6968 -0.2781  0.3755
18585TIP3    H277247   1.347   2.512  16.849 -2.3643 -1.8451 -0.7911
18586TIP3   OH277248   2.248   1.790   6.788 -0.5612 -0.3355  0.7278
18586TIP3    H177249   2.234   1.867   6.732 -1.7029  0.1162  1.6056
18586TIP3    H277250   2.190   1.723   6.752  0.2772 -0.7302  0.0924
18587TIP3   OH277251   4.655   5.571  14.031 -0.6099  0.6527  0.3125
18587TIP3    H177252   4.604   5.652  14.038 -2.8697 -0.7455  0.3045
18587TIP3    H277253   4.611   5.520  13.964 -0.9162 -1.7704  2.2719
18588TIP3   OH277254   3.953   2.662   0.280  0.2150 -0.2991  0.3104
18588TIP3    H177255   4.014   2.720   0.235  1.3620 -1.0000  0.9327
18588TIP3    H277256   3.870   2.675   0.235  1.2701 -0.7699 -1.8302
18589TIP3   OH277257   2.913   0.131   4.780  0.4604  0.0085 -0.5851
18589TIP3    H177258   3.000   0.139   4.740  0.3760  0.8419 -0.6086
18589TIP3    H277259   2.926   0.158   4.871  0.2868 -0.1677 -0.5083
18590TIP3   OH277260   2.282   2.995   4.670  0.4422  0.4727 -0.2563
18590TIP3    H177261   2.228   2.986   4.591 -1.2208 -2.5135  1.1300
18590TIP3    H277262   2.247   2.930   4.731  2.9607  1.3432  2.2499
18591TIP3   OH277263   2.034   0.687   3.942  0.1935 -0.2504 -0.0154
18591TIP3    H177264   2.014   0.628   3.869 -0.1328  1.0973 -1.0352
18591TIP3    H277265   2.057   0.770   3.901  0.1562  0.4920  1.4115
18592TIP3   OH277266   3.736   6.318  11.913 -0.0655 -0.1768 -0.6301
18592TIP3    H177267   3.713   6.226  11.906  1.8596 -0.8570  1.4726
18592TIP3    H277268   3.773   6.340  11.828  1.5581 -1.9616 -0.4103
18593TIP3   OH277269   3.495   4.480  13.057 -0.1634  0.1729 -0.2863
18593TIP3    H177270   3.445   4.534  12.996 -0.5000  0.3842  0.1685
18593TIP3    H277271   3.466   4.509  13.144  0.0604 -0.3528 -0.0318
18594TIP3   OH277272   2.622   2.793  12.464  0.0291 -0.4568  0.0914
18594TIP3    H177273   2.623   2.819  12.372 -0.8235  3.9735  1.2285
18594TIP3    H277274   2.714   2.782  12.488  0.3490  0.4504 -0.7334
18595TIP3   OH277275   6.141   6.507   0.784  0.2424 -0.1284 -0.1812
18595TIP3    H177276   6.162   6.594   0.819  1.2036  0.4367 -2.1010
18595TIP3    H277277   6.141   6.519   0.689 -2.5234 -1.5776 -0.4207
18596TIP3   OH277278   1.478   2.925   0.773 -0.0229  0.3113  0.1626
18596TIP3    H177279   1.444   2.839   0.748 -0.0612  0.8283 -1.6661
18596TIP3    H277280   1.485   2.922   0.868  0.1189 -1.7767  0.1068
18597TIP3   OH277281   1.981   3.470   3.350  0.0507 -0.1789 -0.1550
18597TIP3    H177282   2.073   3.472   3.325 -0.3731  0.0400 -1.7616
18597TIP3    H277283   1.981   3.432   3.438  1.6663 -0.1623 -0.1324
18598TIP3   OH277284   4.105   4.645  10.785  1.1590 -0.2016 -0.3090
18598TIP3    H177285   4.012   4.625  10.776  0.7741  1.4751 -0.3081
18598TIP3    H277286   4.149   4.568  10.750 -0.2430 -0.3712 -1.8058
18599TIP3   OH277287   1.009   2.863  16.424  0.5056 -0.1744 -0.2441
18599TIP3    H177288   0.926   2.815  16.424  0.3875  0.0277 -0.2397
18599TIP3    H277289   1.045   2.850  16.511  0.6984 -0.6439 -0.3910
18600TIP3   OH277290   6.084   3.060   1.167 -0.0325 -0.3150 -0.0414
18600TIP3    H177291   6.027   3.116   1.219  0.5851  0.6109 -0.3574
18600TIP3    H277292   6.024   2.997   1.126 -0.8334  0.6868 -0.4239
18601TIP3   OH277293   2.463   4.102  13.255  0.0778  0.5411 -0.3464
18601TIP3    H177294   2.485   4.009  13.262  0.6287  0.6008 -1.1780
18601TIP3    H277295   2.461   4.119  13.161 -1.8724  0.9525 -0.2592
18602TIP3   OH277296   5.616   0.080   1.852  0.5598 -0.3845  0.7381
18602TIP3    H177297   5.562   0.130   1.914  0.0638 -1.4637  1.1935
18602TIP3    H277298   5.553   0.042   1.791  0.8354 -1.3477  1.0513
18603TIP3   OH277299   0.282   3.172  13.648  0.1207 -0.0518  0.9501
18603TIP3    H177300   0.328   3.135  13.723  1.6284 -0.1848 -0.0113
18603TIP3    H277301   0.351   3.187  13.583 -1.0005  1.0507 -0.0115
18604TIP3   OH277302   4.480   5.627  15.308 -0.2145 -0.0008 -0.0212
18604TIP3    H177303   4.455   5.681  15.233 -0.6977 -0.0644  0.0905
18604TIP3    H277304   4.433   5.666  15.382  0.4844  0.2392  0.3042
18605TIP3   OH277305   3.173   2.375   2.209  0.6445 -0.3120  0.3942
18605TIP3    H177306   3.244   2.311   2.214  1.8415  1.1525  2.6871
18605TIP3    H277307   3.198   2.445   2.269 -1.2449  1.7468 -1.1061
18606TIP3   OH277308   2.244   5.759   2.610  0.2763  0.8069  0.2622
18606TIP3    H177309   2.269   5.748   2.518 -1.3508  1.0166 -0.2222
18606TIP3    H277310   2.308   5.708   2.658 -2.7482 -5.0745 -1.4245
18607TIP3   OH277311   0.578   0.671   3.204  0.5165  0.5718 -0.2583
18607TIP3    H177312   0.581   0.576   3.195  0.6823  0.6316 -0.8600
18607TIP3    H277313   0.495   0.689   3.247  0.7578  0.1134  0.4025
18608TIP3   OH277314   4.989   3.676  14.661 -0.4221  0.5161 -0.1675
18608TIP3    H177315   5.033   3.596  14.631 -1.0298 -0.0100  0.3321
18608TIP3    H277316   5.050   3.746  14.639 -0.4677  0.0576 -1.8331
18609TIP3   OH277317   2.114   2.236  15.760  0.7630  0.0968 -0.4022
18609TIP3    H177318   2.156   2.230  15.846 -2.3145  1.6359  1.2923
18609TIP3    H277319   2.126   2.328  15.735 -0.3850  0.2074 -0.5330
18610TIP3   OH277320   5.145   5.601  15.506  0.4962 -0.1713  0.2988
18610TIP3    H177321   5.239   5.597  15.492  0.6822 -1.0108  1.7056
18610TIP3    H277322   5.134   5.660  15.582  0.0132 -1.4446  1.2321
18611TIP3   OH277323   0.483   4.860   1.237 -0.2201  0.6328  0.6170
18611TIP3    H177324   0.489   4.950   1.270  0.0264  1.0753 -0.5789
18611TIP3    H277325   0.451   4.870   1.147 -1.1284 -0.5434  0.7963
18612TIP3   OH277326   2.864   0.193   0.097 -0.4338 -0.1390  0.0350
18612TIP3    H177327   2.803   0.253   0.140  0.5508  1.1034 -0.2694
18612TIP3    H277328   2.809   0.122   0.065 -1.5473  0.3215  0.8938
18613TIP3   OH277329   2.271   2.549  14.178  0.5101 -0.1545 -0.4802
18613TIP3    H177330   2.348   2.593  14.215  1.8212 -1.4447 -1.6162
18613TIP3    H277331   2.218   2.620  14.140  2.2066  0.5384 -1.6076
18614TIP3   OH277332   5.881   2.439  12.785  0.3044  0.3850 -0.6155
18614TIP3    H177333   5.895   2.519  12.835 -0.2698  0.0464  0.0896
18614TIP3    H277334   5.794   2.408  12.812  0.9965 -1.0850 -0.0426
18615TIP3   OH277335   6.253   1.063  12.755 -0.0479 -0.5343 -0.0006
18615TIP3    H177336   6.245   1.158  12.751  2.6655 -0.1432  2.5512
18615TIP3    H277337   6.323   1.042  12.693  1.1017 -0.5679  1.2811
18616TIP3   OH277338   6.733   4.555  16.823 -0.1048 -1.2275 -0.1225
18616TIP3    H177339   6.752   4.469  16.785  0.4341 -0.7993 -0.8585
18616TIP3    H277340   6.773   4.617  16.761 -1.7205 -0.3858 -0.3480
18617TIP3   OH277341   1.874   6.446   1.938 -0.6891 -0.0086 -1.3581
18617TIP3    H177342   1.937   6.422   1.870  0.4832 -0.3424 -0.1776
18617TIP3    H277343   1.805   6.380   1.931 -0.7049  0.1076 -2.3785
18618TIP3   OH277344   5.419   1.646  11.680  0.2538 -0.4088  0.1914
18618TIP3    H177345   5.412   1.734  11.644 -2.1690 -0.5024  0.3633
18618TIP3    H277346   5.473   1.598  11.616  0.8223  0.9356 -0.3524
18619TIP3   OH277347   1.681   1.507  11.625 -0.1423  0.1289  0.0857
18619TIP3    H177348   1.595   1.466  11.615 -1.3985  2.2450  1.8172
18619TIP3    H277349   1.691   1.559  11.545  0.5763 -1.8624 -1.1737
18620TIP3   OH277350   0.463   0.263   0.412 -0.2192  0.8559 -0.3350
18620TIP3    H177351   0.446   0.303   0.327 -0.0370 -0.4901 -1.0002
18620TIP3    H277352   0.489   0.173   0.393 -1.6703  0.0619  1.2141
18621TIP3   OH277353   0.097   1.879  14.547 -0.3722  0.1265 -0.0940
18621TIP3    H177354   0.151   1.801  14.565 -0.0549 -0.1327 -2.0542
18621TIP3    H277355   0.008   1.852  14.571  0.0183 -0.1865  1.0594
18622TIP3   OH277356   6.351   0.969  16.385 -1.1126  0.3600 -0.4319
18622TIP3    H177357   6.357   1.062  16.366  1.4731  0.7251  1.7170
18622TIP3    H277358   6.318   0.930  16.305 -0.1794  2.8892 -2.1265
18623TIP3   OH277359   4.104   1.604   1.164 -0.4276  0.0586 -0.4548
18623TIP3    H177360   4.056   1.567   1.238 -0.3400  0.2971 -0.2789
18623TIP3    H277361   4.150   1.529   1.125 -1.7653 -0.3704 -1.2611
18624TIP3   OH277362   6.438   1.954  14.484 -0.0848 -0.2988  0.4764
18624TIP3    H177363   6.448   2.049  14.480 -0.3468 -0.3409 -1.9049
18624TIP3    H277364   6.432   1.926  14.392  0.9821 -2.7133  1.0824
18625TIP3   OH277365   2.350   6.491  13.552  0.0770 -0.2058 -0.3221
18625TIP3    H177366   2.342   6.397  13.569 -1.3337  0.1612  1.1726
18625TIP3    H277367   2.444   6.504  13.538  0.1866 -1.9644 -1.4770
18626TIP3   OH277368   2.069   6.500   5.635  0.2354  0.5086 -0.2758
18626TIP3    H177369   2.078   6.503   5.539  0.5327 -2.9044 -0.3980
18626TIP3    H277370   1.975   6.504   5.650  0.2350  2.3082 -0.6178
18627TIP3   OH277371   6.529   0.286  16.644  0.1280 -0.3129  0.2837
18627TIP3    H177372   6.612   0.332  16.635  0.8253 -1.7278 -0.6934
18627TIP3    H277373   6.481   0.336  16.710  1.7563  0.4970  0.8860
18628TIP3   OH277374   6.247   0.067  13.349 -0.1741  0.3064  0.2558
18628TIP3    H177375   6.228   0.108  13.433 -1.7057  1.9795 -0.8703
18628TIP3    H277376   6.301   0.131  13.303  1.0546 -0.8006  0.1305
18629TIP3   OH277377   6.473   6.371  13.344  0.4165 -0.1441 -0.1875
18629TIP3    H177378   6.474   6.352  13.250 -1.5314 -0.7178 -0.1131
18629TIP3    H277379   6.530   6.304  13.383  0.2514 -0.6567 -0.8305
18630TIP3   OH277380   2.038   1.836  13.968  0.0670 -0.9412 -0.1278
18630TIP3    H177381   2.011   1.811  14.056  1.5424  1.5657  1.0949
18630TIP3    H277382   2.123   1.792  13.956  0.7067  0.1230  0.4165
18631TIP3   OH277383   3.542   3.246   3.936  0.0959 -0.4087 -0.0682
18631TIP3    H177384   3.511   3.330   3.970 -0.1780 -0.5833  0.1113
18631TIP3    H277385   3.616   3.223   3.992  0.9311  0.2865 -0.8503
18632TIP3   OH277386   4.281   6.241   1.039 -0.1693  0.1864  0.8402
18632TIP3    H177387   4.310   6.153   1.015  2.5451  1.0831  0.6025
18632TIP3    H277388   4.259   6.235   1.132  1.8299 -0.3146  1.2975
18633TIP3   OH277389   2.754   3.355  17.049 -0.1157 -0.5674  0.4662
18633TIP3    H177390   2.725   3.267  17.028 -0.3313 -0.2991 -0.3761
18633TIP3    H277391   2.709   3.411  16.986  2.1306 -0.1255 -0.8026
18634TIP3   OH277392   2.006   0.571  15.110  0.2469 -0.2689 -0.0162
18634TIP3    H177393   1.949   0.516  15.163 -0.2966  0.7870  0.4923
18634TIP3    H277394   2.003   0.657  15.151  0.1759  0.4505 -1.4763
18635TIP3   OH277395   0.224   5.364   3.807 -0.6701  0.4735 -0.0290
18635TIP3    H177396   0.312   5.384   3.776  0.0401 -0.5763  1.2584
18635TIP3    H277397   0.204   5.279   3.768 -0.5054  0.0035  0.9181
18636TIP3   OH277398   3.172   5.407   4.320  0.5085  0.3018 -0.0584
18636TIP3    H177399   3.188   5.365   4.405 -0.3160 -0.3290 -0.1989
18636TIP3    H277400   3.252   5.456   4.301  0.2812  1.3655  1.6126
18637TIP3   OH277401   3.362   4.405  13.904 -0.0045  0.5164 -0.6320
18637TIP3    H177402   3.400   4.448  13.980 -0.7822  0.3767 -0.1638
18637TIP3    H277403   3.429   4.414  13.836  0.9132  0.1760  0.2132
18638TIP3   OH277404   0.446   4.784   2.910 -0.2194  0.6108  0.4160
18638TIP3    H177405   0.395   4.707   2.882  0.9341 -0.4021  1.0599
18638TIP3    H277406   0.535   4.751   2.921  0.2610  2.0207  0.8358
18639TIP3   OH277407   2.089   5.747  15.246 -0.0326  0.8479 -0.1321
18639TIP3    H177408   2.019   5.796  15.289  0.1359  0.9197  0.0672
18639TIP3    H277409   2.170   5.785  15.282  0.0907 -0.2390  0.7892
18640TIP3   OH277410   2.062   1.966  15.727  1.0851  0.0017  0.4880
18640TIP3    H177411   2.089   2.051  15.761 -0.5932  0.6887  0.1564
18640TIP3    H277412   1.970   1.957  15.754  0.7165 -0.9080 -0.9824
18641TIP3   OH277413   4.553   1.957   1.459 -0.1624 -0.4657  0.3589
18641TIP3    H177414   4.631   1.903   1.455  1.5885  2.1197 -1.3470
18641TIP3    H277415   4.575   2.027   1.520 -1.9219 -0.8534  1.4977
18642TIP3   OH277416   2.247   3.542   2.450 -0.2857 -0.1999 -0.2220
18642TIP3    H177417   2.190   3.580   2.382  1.1017  1.5302 -0.4637
18642TIP3    H277418   2.204   3.566   2.532 -1.0944 -0.8653 -0.4412
18643TIP3   OH277419   3.527   4.843   3.763 -0.2229  0.0849  0.3714
18643TIP3    H177420   3.498   4.775   3.824  2.0740 -0.0181  1.3834
18643TIP3    H277421   3.622   4.830   3.756 -0.3668  0.3913 -2.8809
18644TIP3   OH277422   6.205   4.414   0.858  0.4540 -0.3999 -0.2442
18644TIP3    H177423   6.279   4.358   0.882  0.0496 -0.6015  0.5228
18644TIP3    H277424   6.165   4.439   0.941 -0.8526 -0.9713 -0.6924
18645TIP3   OH277425   4.686   6.741   6.361  0.1196 -0.2645 -0.2650
18645TIP3    H177426   4.705   6.779   6.447 -1.0066 -1.6716  0.6255
18645TIP3    H277427   4.721   6.805   6.298  1.2468  0.6198  1.2310
18646TIP3   OH277428   3.151   0.979   0.865 -0.0031  0.0148 -0.0413
18646TIP3    H177429   3.151   0.989   0.769  3.3876  0.0912 -0.0810
18646TIP3    H277430   3.145   0.885   0.879  2.7453 -0.2588 -0.4444
18647TIP3   OH277431   1.742   0.759  12.311 -0.2256  0.3020  0.4430
18647TIP3    H177432   1.694   0.761  12.394 -0.1102 -0.6337  0.5403
18647TIP3    H277433   1.820   0.707  12.331  0.9192  1.9474  0.3406
18648TIP3   OH277434   4.560   2.542   1.526 -0.4940  0.7762  0.1028
18648TIP3    H177435   4.643   2.502   1.552 -1.8090 -1.9820  0.2837
18648TIP3    H277436   4.584   2.625   1.486  2.3739 -0.1593 -0.1934
18649TIP3   OH277437   3.119   4.032  17.077 -0.0864  0.2201  0.0754
18649TIP3    H177438   3.181   4.015  17.006  1.1059  1.8858  0.6701
18649TIP3    H277439   3.037   4.053  17.033  0.2210 -0.3050 -0.7688
18650TIP3   OH277440   3.497   6.114   1.082  0.3390 -0.1218 -0.4731
18650TIP3    H177441   3.432   6.044   1.079  0.8365 -0.6515  0.7699
18650TIP3    H277442   3.510   6.139   0.991 -0.8819 -0.6843 -0.8051
18651TIP3   OH277443   2.740   4.791  12.567 -0.0095  0.1186  0.0320
18651TIP3    H177444   2.673   4.792  12.498  0.1637 -0.0735 -0.1388
18651TIP3    H277445   2.811   4.845  12.533  0.1911 -0.2002 -0.0557
18652TIP3   OH277446   5.814   0.967   4.129  0.2079 -0.2719 -0.1278
18652TIP3    H177447   5.851   1.010   4.052  1.1774 -1.1393 -0.1542
18652TIP3    H277448   5.814   1.035   4.197  2.5825 -0.4555  0.0972
18653TIP3   OH277449   2.097   0.825  12.213  0.1769  0.4550 -0.1695
18653TIP3    H177450   2.150   0.773  12.272 -1.3530  0.1555  0.9693
18653TIP3    H277451   2.070   0.764  12.144 -0.5900  0.0235  0.4998
18654TIP3   OH277452   4.026   3.218  15.697  0.2489 -0.4355 -0.2487
18654TIP3    H177453   4.101   3.262  15.657 -0.1559  0.1199 -0.3975
18654TIP3    H277454   4.004   3.147  15.636  0.7316 -0.6791 -0.1402
18655TIP3   OH277455   6.588   0.767  11.914 -0.5861 -0.0838 -0.2516
18655TIP3    H177456   6.631   0.739  11.833  0.7550 -1.6697  0.9644
18655TIP3    H277457   6.497   0.781  11.889 -0.0514  0.1053 -2.1728
18656TIP3   OH277458   3.419   0.102  14.651 -0.0771 -0.7659 -0.8214
18656TIP3    H177459   3.447   0.169  14.714 -1.4167  0.4293 -1.4384
18656TIP3    H277460   3.362   0.150  14.591 -1.0645 -2.4865 -1.2805
18657TIP3   OH277461   2.907   0.295  13.957 -0.0468  0.1200  1.1367
18657TIP3    H177462   2.814   0.293  13.977 -0.0543 -2.4948  1.0695
18657TIP3    H277463   2.944   0.226  14.012  1.7544  0.7641  0.7563
18658TIP3   OH277464   2.980   2.459   3.351  0.5676 -0.7030  0.2454
18658TIP3    H177465   2.985   2.543   3.306  0.0542 -0.7546  0.0867
18658TIP3    H277466   2.917   2.473   3.421 -1.0097 -1.4908 -0.9823
18659TIP3   OH277467   3.974   3.941   0.128  0.4782 -0.4572  0.6066
18659TIP3    H177468   3.903   3.990   0.170 -0.0239 -1.6977  1.2051
18659TIP3    H277469   4.054   3.987   0.153 -0.1466  1.4403 -0.7229
18660TIP3   OH277470   1.978   5.799   2.600 -0.0687  0.4507 -0.3645
18660TIP3    H177471   1.968   5.731   2.667  0.2250 -0.8610 -1.6286
18660TIP3    H277472   2.073   5.806   2.588 -0.1490  0.1891 -1.1362
18661TIP3   OH277473   4.983   6.152   3.907 -0.0162 -0.4779 -0.3895
18661TIP3    H177474   4.959   6.240   3.937 -0.2466 -0.3511 -0.9488
18661TIP3    H277475   5.048   6.166   3.838 -0.1612 -0.7391 -0.5815
18662TIP3   OH277476   2.764   4.730   5.728  0.2589  0.0826 -0.1060
18662TIP3    H177477   2.710   4.690   5.795  0.4462 -1.5964 -0.9199
18662TIP3    H277478   2.705   4.788   5.680  0.2694  1.8007  1.8620
18663TIP3   OH277479   0.024   0.382   5.460 -0.5680  0.2183 -0.0773
18663TIP3    H177480   0.050   0.313   5.399  0.4285  0.4752  0.0601
18663TIP3    H277481  -0.063   0.355   5.490 -1.2807  0.3384 -1.9809
18664TIP3   OH277482   1.215   5.622   0.034  0.2557 -0.3554 -0.5336
18664TIP3    H177483   1.310   5.623   0.032  0.2629  0.4081 -0.1319
18664TIP3    H277484   1.193   5.582   0.118  0.2411  0.4603 -0.1366
18665TIP3   OH277485   3.874   5.622  16.607  0.1384 -0.4323  0.1888
18665TIP3    H177486   3.856   5.533  16.577 -1.1155 -0.7794  1.8636
18665TIP3    H277487   3.931   5.611  16.684 -0.5936  0.1491  0.8312
18666TIP3   OH277488   1.339   3.761  13.166  0.8017  0.3996  0.7587
18666TIP3    H177489   1.262   3.800  13.208 -0.6654  0.3912 -1.8132
18666TIP3    H277490   1.374   3.830  13.111  2.2194  0.1730  1.3665
18667TIP3   OH277491   0.173   3.468   5.328 -0.1201  0.6882  0.1049
18667TIP3    H177492   0.254   3.500   5.368 -0.6546 -0.5713  2.2573
18667TIP3    H277493   0.196   3.384   5.290  0.4336  1.9665 -2.5246
18668TIP3   OH277494   5.512   1.463  15.207  0.1456  0.4131 -0.1471
18668TIP3    H177495   5.560   1.425  15.280  1.6845  1.3134 -0.6779
18668TIP3    H277496   5.531   1.557  15.212 -1.2458  0.7348 -0.6067
18669TIP3   OH277497   4.743   1.709  11.498  0.1645 -0.5605 -0.0868
18669TIP3    H177498   4.822   1.690  11.447 -0.3376  0.3375 -1.2309
18669TIP3    H277499   4.687   1.757  11.437 -1.1982 -1.0561  0.7688
18670TIP3   OH277500   5.822   5.724  15.109 -0.4079  0.4714  0.6182
18670TIP3    H177501   5.793   5.634  15.098 -0.1047  0.7853 -3.4831
18670TIP3    H277502   5.745   5.777  15.084 -0.1457  1.3374  1.6156
18671TIP3   OH277503   6.267   3.066   4.272  0.0649 -0.1464 -0.1822
18671TIP3    H177504   6.315   3.148   4.259  1.2534 -0.3799  2.4203
18671TIP3    H277505   6.236   3.071   4.362  3.1903 -4.0513  1.2181
18672TIP3   OH277506   3.062   1.805   2.822  0.1219  0.4703  0.4563
18672TIP3    H177507   3.105   1.887   2.843  0.7435  0.3776 -0.3947
18672TIP3    H277508   2.983   1.830   2.774 -0.1953  0.6002  1.0431
18673TIP3   OH277509   4.137   1.456   0.289 -0.2293  0.1352  0.2524
18673TIP3    H177510   4.129   1.493   0.201  2.9984  0.0887 -0.0999
18673TIP3    H277511   4.147   1.533   0.346  0.9602  0.0348  0.1817
18674TIP3   OH277512   4.152   1.544   3.133 -0.3867 -0.4223 -0.1336
18674TIP3    H177513   4.076   1.600   3.146  0.1529 -0.0003  1.3492
18674TIP3    H277514   4.225   1.594   3.171  0.0558 -2.2394  1.4548
18675TIP3   OH277515   3.229   4.966  11.696 -0.1722  0.5057  0.3812
18675TIP3    H177516   3.154   4.987  11.641  0.6179  0.5051 -0.7124
18675TIP3    H277517   3.194   4.963  11.785 -1.5106  0.2472 -0.1501
18676TIP3   OH277518   4.209   2.676  14.366 -0.7058 -0.0882  0.0921
18676TIP3    H177519   4.240   2.761  14.399 -1.8139  1.0049 -1.5863
18676TIP3    H277520   4.289   2.625  14.354 -0.0521  0.5653  1.5194
18677TIP3   OH277521   6.588   6.317  16.790 -0.3398 -0.1651  0.2176
18677TIP3    H177522   6.519   6.369  16.749  0.3934 -0.5428 -1.5346
18677TIP3    H277523   6.661   6.319  16.728  0.1193 -2.3066  0.6330
18678TIP3   OH277524   3.181   2.911   1.211  0.1359 -0.0670  0.1193
18678TIP3    H177525   3.087   2.932   1.209  0.2270  0.2254 -1.9812
18678TIP3    H277526   3.195   2.857   1.134  1.0963 -2.9198  2.2374
18679TIP3   OH277527   1.279   3.285  14.897  0.4825 -0.4616 -0.0828
18679TIP3    H177528   1.194   3.324  14.916 -0.0840 -1.3268 -0.7905
18679TIP3    H277529   1.315   3.339  14.826 -0.4837 -1.4413 -1.3551
18680TIP3   OH277530   2.066   3.741  15.211  0.1168 -0.0279 -0.0384
18680TIP3    H177531   1.995   3.678  15.207 -0.6775  0.8471  0.0870
18680TIP3    H277532   2.061   3.790  15.129  0.1127  0.5217  0.2845
18681TIP3   OH277533   5.395   0.173   5.462 -0.5558 -0.3104  0.1035
18681TIP3    H177534   5.323   0.169   5.525 -0.1914  1.2673  0.6670
18681TIP3    H277535   5.371   0.245   5.403 -0.4124 -1.1176 -0.9372
18682TIP3   OH277536   4.270   2.660   4.722 -0.0715 -0.1820 -0.3819
18682TIP3    H177537   4.254   2.566   4.711 -0.8152 -0.3742  1.9777
18682TIP3    H277538   4.269   2.695   4.633  1.5392 -2.5948 -1.4094
18683TIP3   OH277539   0.744   1.720   2.388  0.2553  0.0170  0.3893
18683TIP3    H177540   0.713   1.767   2.465 -0.9205 -0.9621  0.5105
18683TIP3    H277541   0.672   1.725   2.325  0.6436 -0.4693 -0.1053
18684TIP3   OH277542   0.086   5.616   5.950  0.0805 -0.1417 -0.0463
18684TIP3    H177543   0.028   5.670   5.896 -0.2879 -0.4375  0.0596
18684TIP3    H277544   0.033   5.588   6.024  0.1057 -1.1349 -0.3991
18685TIP3   OH277545   2.877   2.485  13.093  0.6778 -0.2399 -0.9692
18685TIP3    H177546   2.891   2.451  13.181 -1.1343 -3.3672 -1.8161
18685TIP3    H277547   2.819   2.560  13.105 -0.9601 -1.6676  0.4047
18686TIP3   OH277548   1.556   4.537  14.536 -0.7188 -0.0935  0.6666
18686TIP3    H177549   1.615   4.462  14.535 -0.5894  0.0128 -1.3769
18686TIP3    H277550   1.520   4.541  14.448 -0.4313  2.4577  0.6242
18687TIP3   OH277551   4.563   3.777   1.285 -0.5670 -0.5821  0.2339
18687TIP3    H177552   4.638   3.823   1.249 -0.3419  1.4619  3.1045
18687TIP3    H277553   4.487   3.831   1.261 -0.6497 -0.3864  0.9219
18688TIP3   OH277554   3.138   0.197   0.155 -0.2102  0.1507 -0.0508
18688TIP3    H177555   3.195   0.272   0.139  0.8242 -1.0996 -2.4681
18688TIP3    H277556   3.050   0.229   0.134 -0.2109  1.5749  1.9950
18689TIP3   OH277557   1.020   5.954  15.629  0.3277 -0.1159 -0.0265
18689TIP3    H177558   1.078   6.013  15.676  1.0041 -0.6483 -0.1819
18689TIP3    H277559   0.934   5.969  15.668  0.7833 -0.1625  1.0250
18690TIP3   OH277560   5.269   4.257  15.029 -0.0045 -0.6349  0.4610
18690TIP3    H177561   5.235   4.296  15.109  0.0822 -0.4090  0.3874
18690TIP3    H277562   5.314   4.329  14.984  0.5103 -0.9112  0.5253
18691TIP3   OH277563   6.416   6.299  14.222  0.3247  0.0235 -0.4662
18691TIP3    H177564   6.441   6.326  14.134  0.3839  2.1959  0.2034
18691TIP3    H277565   6.492   6.320  14.277  0.0089 -0.6347  0.2454
18692TIP3   OH277566   5.520   0.727   1.159  0.0003  0.8283  0.0408
18692TIP3    H177567   5.481   0.717   1.246 -0.7068  1.3837 -0.2078
18692TIP3    H277568   5.525   0.822   1.146  0.2312  0.7454 -0.4747
18693TIP3   OH277569   3.847   3.568  12.211 -0.1601 -0.0050 -0.3144
18693TIP3    H177570   3.928   3.585  12.163  0.6171 -1.1591  0.5489
18693TIP3    H277571   3.783   3.627  12.172  1.6121  2.4573  0.3999
18694TIP3   OH277572   5.351   4.506  13.835  0.2036 -0.5564  0.2902
18694TIP3    H177573   5.341   4.414  13.857 -1.8631 -1.1409 -2.7297
18694TIP3    H277574   5.411   4.506  13.760  0.4439  0.5941  0.4712
18695TIP3   OH277575   0.061   5.648  16.187 -0.2207 -0.2686 -0.0200
18695TIP3    H177576   0.154   5.664  16.203 -0.1111 -2.0473  1.3268
18695TIP3    H277577   0.060   5.575  16.125 -0.6984 -1.9128  1.8783
18696TIP3   OH277578   6.114   2.243  17.218 -0.4650 -0.4649  0.6290
18696TIP3    H177579   6.170   2.313  17.185 -2.1025  0.4933 -0.1259
18696TIP3    H277580   6.126   2.245  17.313 -1.3060  1.5175  0.6991
18697TIP3   OH277581   1.290   1.901  14.107  0.0355 -0.1701 -0.1342
18697TIP3    H177582   1.204   1.935  14.082 -1.0614 -1.6073  1.5388
18697TIP3    H277583   1.350   1.975  14.095 -1.4009  0.7970 -1.4814
18698TIP3   OH277584   0.907   4.973   1.987 -0.8922 -0.2695  0.1935
18698TIP3    H177585   0.984   4.932   1.947 -1.8953 -1.9875 -0.0326
18698TIP3    H277586   0.906   5.062   1.953 -0.6219 -1.1061 -2.0647
18699TIP3   OH277587   5.914   2.157  14.025  0.9456 -0.0554 -0.1712
18699TIP3    H177588   5.884   2.144  14.115 -0.5543 -0.7945 -0.7567
18699TIP3    H277589   5.927   2.252  14.018  0.3043  0.0996  0.5974
18700TIP3   OH277590   4.943   2.965  11.939 -0.0674 -0.2761  0.8640
18700TIP3    H177591   4.991   2.882  11.947 -0.1362 -0.2923  1.0920
18700TIP3    H277592   4.851   2.941  11.950 -0.1100 -0.2059  0.6766
18701TIP3   OH277593   2.162   6.709  16.548  0.2054 -0.4161  0.0036
18701TIP3    H177594   2.256   6.727  16.556  0.3363 -0.2471 -1.8018
18701TIP3    H277595   2.147   6.635  16.607  1.3101  0.0732  0.9188
18702TIP3   OH277596   2.816   1.989  15.689 -0.4261  0.1378  0.0924
18702TIP3    H177597   2.881   1.965  15.624  0.7763  2.2168  0.4790
18702TIP3    H277598   2.804   1.910  15.742 -1.1870 -1.4777 -2.4072
18703TIP3   OH277599   2.960   4.646  15.168 -0.4626 -1.1209  0.7378
18703TIP3    H177600   2.878   4.675  15.127  0.9039  0.5946 -0.8409
18703TIP3    H277601   2.993   4.579  15.108  1.2040  0.9209 -0.6877
18704TIP3   OH277602   0.275   2.165  13.353  1.0479 -0.1043 -0.1908
18704TIP3    H177603   0.187   2.201  13.343  0.1968 -1.7560  1.0798
18704TIP3    H277604   0.297   2.130  13.267  0.0323 -0.5652 -0.2759
18705TIP3   OH277605   1.960   2.043   0.254  0.0573 -0.3197 -0.5421
18705TIP3    H177606   2.010   1.973   0.295  1.1540  0.1764 -1.0162
18705TIP3    H277607   2.022   2.117   0.249 -0.5691  0.1430 -1.5839
18706TIP3   OH277608   2.770   4.944  11.676 -0.4183 -0.4026  0.3606
18706TIP3    H177609   2.846   4.976  11.627  0.0799 -2.5055 -0.3212
18706TIP3    H277610   2.702   5.008  11.658 -0.1096 -0.8334 -2.7905
18707TIP3   OH277611   6.749   4.773   1.182 -0.3937  0.0023 -0.9297
18707TIP3    H177612   6.708   4.786   1.096 -0.8820  0.6205 -0.6067
18707TIP3    H277613   6.781   4.860   1.206 -0.7547 -0.0593 -0.2335
18708TIP3   OH277614   5.365   5.308   1.843 -0.3612  0.1050 -0.6679
18708TIP3    H177615   5.384   5.390   1.799 -0.9632  1.2586  1.1371
18708TIP3    H277616   5.428   5.246   1.808 -0.4288  1.1376 -2.6434
18709TIP3   OH277617   0.979   6.282   2.747  0.4679  0.2234 -0.1779
18709TIP3    H177618   1.060   6.320   2.780  0.6303 -0.3741  0.1139
18709TIP3    H277619   0.959   6.333   2.668  1.5282 -0.1214 -0.6705
18710TIP3   OH277620   0.187   5.021  15.144  0.2913  0.1014  0.1269
18710TIP3    H177621   0.250   5.002  15.074 -2.1998 -0.5466 -1.9867
18710TIP3    H277622   0.184   5.117  15.147 -1.2764  0.1579 -2.2628
18711TIP3   OH277623   4.027   5.627  10.514  0.3742 -0.0912  0.4315
18711TIP3    H177624   4.098   5.689  10.531 -0.1932  0.4105  1.0000
18711TIP3    H277625   4.071   5.543  10.503  1.2412  0.5979 -1.4868
18712TIP3   OH277626   0.524   2.950  16.593 -0.0822  0.4465  0.4213
18712TIP3    H177627   0.601   3.006  16.579 -0.1865  0.2140 -1.2225
18712TIP3    H277628   0.561   2.862  16.608  0.0036  0.4685  0.3380
18713TIP3   OH277629   6.123   4.705  14.197 -0.4793  1.0543 -0.0558
18713TIP3    H177630   6.075   4.716  14.115  0.3317 -1.0985 -0.8540
18713TIP3    H277631   6.060   4.664  14.256  0.6807 -3.3089 -1.6022
18714TIP3   OH277632   4.921   3.882  15.936 -0.0581  0.3340  0.3095
18714TIP3    H177633   4.981   3.882  15.861  0.9050 -0.0637  1.0717
18714TIP3    H277634   4.892   3.791  15.943 -1.8134  0.7828 -0.8833
18715TIP3   OH277635   2.625   1.779  16.754 -0.1487 -0.5764  0.0087
18715TIP3    H177636   2.709   1.798  16.795 -0.6937  1.4035  0.2853
18715TIP3    H277637   2.573   1.738  16.823  0.3237 -1.0910  0.0641
18716TIP3   OH277638   1.207   0.283   5.721 -0.1865 -0.3677  0.2370
18716TIP3    H177639   1.270   0.215   5.748  1.4334  0.6036 -0.9827
18716TIP3    H277640   1.210   0.281   5.625 -1.5064  0.1736  0.1843
18717TIP3   OH277641   3.096   4.595   1.798  0.0090 -0.4422 -0.2578
18717TIP3    H177642   3.042   4.640   1.733 -0.8715 -2.3196 -0.8644
18717TIP3    H277643   3.170   4.561   1.748  0.0070 -0.7632 -0.0439
18718TIP3   OH277644   1.404   5.246   1.188 -0.0792 -0.3533 -0.1811
18718TIP3    H177645   1.378   5.154   1.184 -0.5131 -0.2761  0.7314
18718TIP3    H277646   1.344   5.290   1.127 -0.1295 -0.6166 -0.3241
18719TIP3   OH277647   6.660   5.679   3.227  0.3886 -0.2839 -0.5499
18719TIP3    H177648   6.613   5.597   3.216  1.3598 -0.8403 -0.5444
18719TIP3    H277649   6.593   5.747   3.212 -0.2666 -1.0573 -1.1626
18720TIP3   OH277650   5.780   5.655   5.626  0.0624  0.4327 -0.9214
18720TIP3    H177651   5.787   5.716   5.700 -0.7526  0.1938 -0.6401
18720TIP3    H277652   5.855   5.676   5.570 -0.2951  1.8072 -0.9041
18721TIP3   OH277653   3.204   6.634   3.407 -0.0711 -0.4340  0.1202
18721TIP3    H177654   3.224   6.567   3.342  2.5209  0.6036 -0.2128
18721TIP3    H277655   3.185   6.585   3.487  0.6796 -1.5943 -0.4026
18722TIP3   OH277656   4.845   3.368   4.489 -0.0781 -0.6153 -0.0339
18722TIP3    H177657   4.929   3.412   4.501 -0.0498 -1.1784  2.0347
18722TIP3    H277658   4.787   3.435   4.454  0.0490  1.0032  2.7641
18723TIP3   OH277659   2.897   0.509   4.196 -0.2811 -0.6078 -0.1286
18723TIP3    H177660   2.966   0.493   4.132 -0.6299 -0.1995 -0.6099
18723TIP3    H277661   2.944   0.539   4.274  0.1887 -1.6549  0.0064
18724TIP3   OH277662   6.020   5.832  13.478  0.1880  0.1367  0.5831
18724TIP3    H177663   6.002   5.801  13.389  2.0306  1.0901 -0.1721
18724TIP3    H277664   5.985   5.764  13.535 -1.8769 -0.0383 -0.8384
18725TIP3   OH277665   2.636   6.461   5.570 -0.0562 -0.4372 -0.2629
18725TIP3    H177666   2.681   6.471   5.654  0.7528  0.7994 -0.8317
18725TIP3    H277667   2.559   6.407   5.590  0.1617 -0.2027  1.2587
18726TIP3   OH277668   4.102   5.145  11.931 -0.0491  0.7139 -0.0882
18726TIP3    H177669   4.139   5.117  12.015 -0.4426  0.1343 -0.1103
18726TIP3    H277670   4.176   5.188  11.887  0.7019 -0.7121 -0.2610
18727TIP3   OH277671   2.634   1.269   5.991 -0.1397 -0.1930  0.2699
18727TIP3    H177672   2.579   1.344   5.965  1.4174  0.4679 -1.2267
18727TIP3    H277673   2.723   1.305   5.995  0.4365 -1.6682  0.8925
18728TIP3   OH277674   3.077   6.748   0.950  0.2372 -0.2218 -0.6893
18728TIP3    H177675   3.147   6.723   0.890  0.3101 -0.8878 -0.3331
18728TIP3    H277676   3.003   6.769   0.893 -0.1625 -2.3188 -0.9731
18729TIP3   OH277677   2.728   5.642   1.692  0.2109  0.3028 -0.7050
18729TIP3    H177678   2.680   5.667   1.613 -0.1320  1.7641 -0.0386
18729TIP3    H277679   2.684   5.563   1.723 -0.5515  0.5433 -1.1755
18730TIP3   OH277680   1.507   0.222  17.192 -0.3180 -0.4551  0.1429
18730TIP3    H177681   1.461   0.249  17.271  3.0054 -0.4415  2.1471
18730TIP3    H277682   1.525   0.129  17.205  3.7365  0.4046  1.3092
18731TIP3   OH277683   4.631   4.103  11.824 -0.2838 -0.1704  0.3949
18731TIP3    H177684   4.676   4.032  11.870  1.1722 -0.3851 -1.3093
18731TIP3    H277685   4.540   4.097  11.853  0.0534 -2.0243  1.1219
18732TIP3   OH277686   4.671   3.506   5.113  0.3856 -0.1340 -0.0761
18732TIP3    H177687   4.664   3.535   5.204  0.6679  1.1548 -0.4568
18732TIP3    H277688   4.617   3.568   5.064 -1.2318 -1.8817 -0.5781
18733TIP3   OH277689   6.340   1.377   1.030 -0.2123 -0.5105 -0.5342
18733TIP3    H177690   6.292   1.411   1.106  1.3340  2.3520 -0.7860
18733TIP3    H277691   6.277   1.384   0.958 -0.3558  0.6727 -0.3146
18734TIP3   OH277692   1.182   3.848   5.761  0.8068  0.6997  0.4954
18734TIP3    H177693   1.207   3.850   5.853  0.4841  1.8235  0.5632
18734TIP3    H277694   1.087   3.840   5.761  0.8502  0.1642  0.2565
18735TIP3   OH277695   5.307   4.975  12.987  0.7333  0.2859 -0.0441
18735TIP3    H177696   5.356   4.994  13.067  2.1556  0.8441 -1.0245
18735TIP3    H277697   5.355   4.903  12.946 -1.0664 -1.2652  0.5258
18736TIP3   OH277698   2.584   4.329   4.019  0.3875  0.4019  0.7863
18736TIP3    H177699   2.657   4.272   3.995 -0.1312 -1.6640  3.8263
18736TIP3    H277700   2.618   4.385   4.088 -0.1285  1.3216  0.2982
18737TIP3   OH277701   3.843   6.659   2.496  0.2886 -0.1142  0.3540
18737TIP3    H177702   3.796   6.625   2.572  0.6506 -0.6081  0.3538
18737TIP3    H277703   3.874   6.745   2.524 -0.3948  0.1122  0.4381
18738TIP3   OH277704   5.601   5.662   3.058 -0.3396  0.0776 -0.0225
18738TIP3    H177705   5.668   5.694   3.118 -0.7818 -2.0890  1.6938
18738TIP3    H277706   5.520   5.701   3.090 -0.4521 -0.3668  0.2297
18739TIP3   OH277707   1.845   0.089  12.285  0.3975  0.2030  0.4301
18739TIP3    H177708   1.763   0.101  12.236  0.4466  0.0523  0.3087
18739TIP3    H277709   1.899   0.035  12.227 -0.2668 -1.6068  1.4484
18740TIP3   OH277710   1.443   4.026   1.947  0.3274 -0.1231  0.0628
18740TIP3    H177711   1.367   4.081   1.961 -0.1503 -0.7129 -0.1784
18740TIP3    H277712   1.496   4.036   2.026 -0.5632 -0.6103  0.7227
18741TIP3   OH277713   6.592   0.727  16.754  0.3055 -0.5411  0.1903
18741TIP3    H177714   6.597   0.810  16.800 -2.3950  0.9093 -1.9773
18741TIP3    H277715   6.679   0.716  16.716  1.2812  0.2934  2.0999
18742TIP3   OH277716   3.981   2.206   4.593 -0.1893  0.5015 -0.1792
18742TIP3    H177717   3.945   2.239   4.511  0.0889  0.4577 -0.3204
18742TIP3    H277718   4.012   2.117   4.572  3.3865  1.8571 -1.0432
18743TIP3   OH277719   6.044   3.549   1.553 -0.0964  0.0949 -0.0412
18743TIP3    H177720   6.140   3.545   1.560 -0.0687 -0.2097 -0.5637
18743TIP3    H277721   6.026   3.636   1.518  0.0903 -0.4380 -1.4971
18744TIP3   OH277722   1.672   5.131   1.473 -0.1302  0.4557  0.2688
18744TIP3    H177723   1.676   5.058   1.410  0.2471  0.7555 -0.0540
18744TIP3    H277724   1.762   5.145   1.500 -0.2083  0.7794  0.3641
18745TIP3   OH277725   0.598   3.886   1.326  0.2059  0.3485 -0.0066
18745TIP3    H177726   0.572   3.920   1.240 -0.2325  0.7579  0.2837
18745TIP3    H277727   0.693   3.875   1.320  0.2902  1.1800 -0.2672
18746TIP3   OH277728   1.527   4.919   3.810  0.1359  0.4670  0.2719
18746TIP3    H177729   1.507   4.986   3.745 -0.2877 -1.0090 -1.1347
18746TIP3    H277730   1.619   4.932   3.830  0.4278  0.5493 -1.0739
18747TIP3   OH277731   5.728   0.283  11.939 -0.7480  0.6493 -0.8115
18747TIP3    H177732   5.724   0.213  11.874 -0.7842 -0.1991  0.0936
18747TIP3    H277733   5.772   0.355  11.893 -2.1287  0.6005 -2.2492
18748TIP3   OH277734   4.594   0.727   3.886  0.4092  0.4242  0.0567
18748TIP3    H177735   4.534   0.654   3.871  0.1943  0.2439  1.7735
18748TIP3    H277736   4.673   0.702   3.839  0.6576 -1.3417  1.3712
18749TIP3   OH277737   1.347   1.260  15.360 -0.2684  0.3041  0.0288
18749TIP3    H177738   1.393   1.329  15.313 -0.1491  0.3960  0.2794
18749TIP3    H277739   1.287   1.223  15.295  0.5829 -0.2228 -0.4765
18750TIP3   OH277740   0.694   2.712  14.735  0.5341  0.6699 -0.0573
18750TIP3    H177741   0.680   2.626  14.773  0.7538  0.3785 -0.6287
18750TIP3    H277742   0.721   2.767  14.809  0.2842  0.2790  0.3276
18751TIP3   OH277743   5.021   3.698  12.126  0.3732  0.6038  0.3505
18751TIP3    H177744   5.018   3.681  12.220 -1.8905  1.8801  0.5448
18751TIP3    H277745   5.113   3.722  12.109  0.4393  2.1140  2.5611
18752TIP3   OH277746   1.140   2.387  14.795 -0.1834  0.3996  0.6956
18752TIP3    H177747   1.101   2.460  14.843  0.9489  0.4802  1.5217
18752TIP3    H277748   1.170   2.425  14.712 -0.6431  0.6181  0.6293
18753TIP3   OH277749   3.877   4.068  16.713  0.7649  0.1184 -0.0397
18753TIP3    H177750   3.954   4.047  16.767  0.4634  0.0351  0.3591
18753TIP3    H277751   3.816   3.996  16.728  1.7652 -1.3127 -2.6224
18754TIP3   OH277752   3.781   4.552   1.274 -0.3377 -0.9568  0.0600
18754TIP3    H177753   3.719   4.590   1.212 -0.7988 -1.7572  0.0290
18754TIP3    H277754   3.760   4.459   1.275 -0.5328 -0.9105  1.6392
18755TIP3   OH277755   2.852   4.603  12.194  0.3080 -0.1120  0.1993
18755TIP3    H177756   2.851   4.520  12.146 -1.0190  0.4708 -0.8264
18755TIP3    H277757   2.798   4.586  12.272 -1.6859  0.3354 -1.0351
18756TIP3   OH277758   0.905   5.432  11.670  0.1416  0.0799  0.4136
18756TIP3    H177759   0.958   5.431  11.590  3.1057  1.9714  2.2571
18756TIP3    H277760   0.899   5.525  11.693 -0.2243 -0.4732  2.6671
18757TIP3   OH277761   1.271   6.062   5.059 -0.0488 -0.1525  0.1722
18757TIP3    H177762   1.310   5.998   5.119 -0.1698 -1.3575 -1.0109
18757TIP3    H277763   1.182   6.073   5.092 -0.2930 -1.2341 -0.0896
18758TIP3   OH277764   6.614   1.254  12.253 -0.2499 -0.3835 -0.2731
18758TIP3    H177765   6.527   1.290  12.271 -0.9903 -0.4853 -3.3917
18758TIP3    H277766   6.637   1.289  12.167  2.7983 -0.3978  0.4851
18759TIP3   OH277767   0.418   4.761   3.831 -0.0234  0.2184  0.0139
18759TIP3    H177768   0.441   4.838   3.779  0.4269  0.1455  0.1041
18759TIP3    H277769   0.458   4.688   3.785  1.0547  0.2424  0.8909
18760TIP3   OH277770   2.985   5.398  16.723 -0.0156 -0.3091 -0.0532
18760TIP3    H177771   2.934   5.323  16.693  0.9885 -1.0019 -0.0746
18760TIP3    H277772   3.013   5.374  16.812  1.7031 -0.6977 -0.6731
18761TIP3   OH277773   3.190   6.624  17.105  0.2474 -0.0486  0.1978
18761TIP3    H177774   3.168   6.714  17.127  1.0372  0.4560 -1.0645
18761TIP3    H277775   3.141   6.606  17.025  0.3612 -0.6232  0.2558
18762TIP3   OH277776   3.703   5.148  12.500  0.8400 -0.4898 -0.2981
18762TIP3    H177777   3.676   5.166  12.590  3.0913  0.5672  0.1886
18762TIP3    H277778   3.685   5.229  12.453  2.4383 -0.0046 -0.1175
18763TIP3   OH277779   5.452   4.499   0.991  0.3384  0.2477  0.3386
18763TIP3    H177780   5.476   4.497   0.898  0.5916  0.9546  0.3832
18763TIP3    H277781   5.361   4.529   0.992 -0.2073 -1.3329  0.2352
18764TIP3   OH277782   4.734   0.648   0.813 -0.1761 -0.2987  0.5435
18764TIP3    H177783   4.731   0.606   0.727  1.9720 -0.9275  0.7623
18764TIP3    H277784   4.648   0.628   0.851 -0.7914 -0.8225 -1.0579
18765TIP3   OH277785   3.154   6.461   6.381 -0.3493  0.4426 -0.0211
18765TIP3    H177786   3.200   6.394   6.432  0.0364 -0.1010 -1.0858
18765TIP3    H277787   3.061   6.442   6.396 -0.2430 -0.4904 -0.5214
18766TIP3   OH277788   0.174   5.575   0.579 -0.7502  0.1855  0.4314
18766TIP3    H177789   0.078   5.574   0.584 -0.7201 -1.8550  0.9536
18766TIP3    H277790   0.197   5.488   0.545  0.8940  0.8632 -0.2319
18767TIP3   OH277791   4.256   4.333   6.189  0.1730  0.3986  0.3215
18767TIP3    H177792   4.338   4.330   6.238 -0.4696 -0.7982  1.3858
18767TIP3    H277793   4.261   4.413   6.137  0.1504  2.7188  3.6828
18768TIP3   OH277794   6.739   4.965  16.711 -0.1106 -0.2318  0.6978
18768TIP3    H177795   6.736   5.036  16.775 -0.1622 -0.7736  1.3053
18768TIP3    H277796   6.648   4.936  16.702 -0.2679  0.5630 -0.4464
18769TIP3   OH277797   6.394   6.040   5.150  0.2374  0.2372  0.1112
18769TIP3    H177798   6.335   6.084   5.212  0.2399 -0.0095  0.2875
18769TIP3    H277799   6.463   6.003   5.204  1.0044  1.2292 -0.1707
18770TIP3   OH277800   5.517   6.819  10.818  0.5992  0.0537  0.0078
18770TIP3    H177801   5.467   6.743  10.848 -1.2226  0.7001 -1.2909
18770TIP3    H277802   5.608   6.796  10.835 -0.1411 -0.9431  2.9535
18771TIP3   OH277803   2.289   2.490   0.443 -0.5811  0.3592 -0.5419
18771TIP3    H177804   2.329   2.483   0.356 -0.4118 -0.8744 -0.3834
18771TIP3    H277805   2.345   2.550   0.491  1.5324 -1.8558 -0.1055
18772TIP3   OH277806   2.237   6.166  15.627  0.3112 -0.1533 -0.4113
18772TIP3    H177807   2.159   6.113  15.613  0.0328  0.4697 -1.2974
18772TIP3    H277808   2.229   6.237  15.563  1.1513  0.4173  0.1081
18773TIP3   OH277809   3.770   6.581  16.159  0.2049 -0.0212  0.4542
18773TIP3    H177810   3.695   6.628  16.122  1.5318 -0.0735 -2.4559
18773TIP3    H277811   3.731   6.506  16.203 -1.5188  0.3722 -0.3302
18774TIP3   OH277812   5.927   4.253   0.494  0.1539  0.1209 -0.0779
18774TIP3    H177813   5.965   4.219   0.413  0.5429 -1.7806  0.8745
18774TIP3    H277814   5.854   4.194   0.512  0.6016 -0.0002  1.3938
18775TIP3   OH277815   6.719   6.763  10.864  0.1937 -0.4336 -0.6019
18775TIP3    H177816   6.662   6.830  10.826 -0.6156 -1.7573 -1.7611
18775TIP3    H277817   6.674   6.680  10.847  1.4177 -1.3281  0.3822
18776TIP3   OH277818   0.988   5.736   4.555  0.2689  0.3223 -0.4089
18776TIP3    H177819   0.960   5.651   4.590  0.0241  1.1262  1.4283
18776TIP3    H277820   1.083   5.732   4.558  0.2941 -0.5992 -2.1221
18777TIP3   OH277821   3.422   1.450   4.326 -0.0294  0.4433  0.1948
18777TIP3    H177822   3.399   1.471   4.236  1.1901 -0.9909 -0.4691
18777TIP3    H277823   3.475   1.524   4.355 -1.3969  1.4644  0.1409
18778TIP3   OH277824   5.493   3.326  15.087  0.0897  0.1283  0.8396
18778TIP3    H177825   5.472   3.388  15.157  1.2760  1.2053  0.2829
18778TIP3    H277826   5.501   3.381  15.009 -1.4688 -1.0841 -0.2076
18779TIP3   OH277827   2.458   3.173  13.286  0.2059  0.1972  0.0820
18779TIP3    H177828   2.545   3.134  13.296 -0.3745 -0.7593  1.7333
18779TIP3    H277829   2.401   3.100  13.262 -0.0895  0.8699 -1.2722
18780TIP3   OH277830   2.762   4.636   2.424  0.6708  0.6686 -0.1930
18780TIP3    H177831   2.725   4.549   2.439  1.7212  0.2526  0.0536
18780TIP3    H277832   2.832   4.622   2.360 -0.5322  1.6630 -1.7592
18781TIP3   OH277833   1.097   2.712   3.964  0.3887 -0.4317 -0.1919
18781TIP3    H177834   1.080   2.627   4.005 -0.8408 -0.8837 -1.6140
18781TIP3    H277835   1.042   2.712   3.886 -0.2232  2.0065  0.2151
18782TIP3   OH277836   1.015   1.224   4.869  0.5039  0.3915 -0.5801
18782TIP3    H177837   1.067   1.163   4.817 -0.0292 -0.1800 -0.4563
18782TIP3    H277838   1.075   1.294   4.892  1.1747 -0.1775 -0.5899
18783TIP3   OH277839   2.065   1.556   5.403  0.2582 -0.2566  0.3039
18783TIP3    H177840   2.027   1.606   5.475 -0.6867 -0.6922  0.1131
18783TIP3    H277841   2.142   1.607   5.376 -0.6309  1.0268  0.1853
18784TIP3   OH277842   6.394   3.587   2.370  0.4133  0.0220  0.0218
18784TIP3    H177843   6.356   3.674   2.364 -2.5941 -1.1030  1.6793
18784TIP3    H277844   6.380   3.548   2.284 -0.7691  0.1838  0.1418
18785TIP3   OH277845   6.076   5.150  12.072 -0.2688 -0.0518  0.1818
18785TIP3    H177846   6.097   5.175  11.982  1.0116 -0.7129  0.2931
18785TIP3    H277847   6.013   5.078  12.062  0.0803 -0.3088 -0.1845
18786TIP3   OH277848   0.949   3.592   2.814 -0.4694  0.7449 -0.6045
18786TIP3    H177849   0.903   3.528   2.870  0.8828 -0.5977 -1.0031
18786TIP3    H277850   0.878   3.637   2.768 -1.4683 -0.3970 -0.2392
18787TIP3   OH277851   2.026   2.422  12.470  0.3434 -0.7791  0.9880
18787TIP3    H177852   2.027   2.489  12.538  0.2042  0.1419  0.1009
18787TIP3    H277853   1.966   2.457  12.403  2.0562 -0.6949 -0.5603
18788TIP3   OH277854   0.216   3.005   2.778  0.0505  0.2057  0.1255
18788TIP3    H177855   0.123   2.983   2.775  0.1696 -0.4466  0.9623
18788TIP3    H277856   0.219   3.097   2.802 -0.4423  0.9776 -2.7071
18789TIP3   OH277857   4.026   5.612  14.879  0.2396  0.3241  0.4558
18789TIP3    H177858   3.959   5.546  14.861 -0.5183  1.1593  0.1770
18789TIP3    H277859   4.065   5.630  14.794 -0.5745  1.3143  0.2827
18790TIP3   OH277860   1.426   0.933  14.131  0.0483  0.0691 -0.1324
18790TIP3    H177861   1.431   0.931  14.035 -0.2998  1.2280 -0.1838
18790TIP3    H277862   1.365   0.862  14.153 -0.3807  0.2188 -0.8120
18791TIP3   OH277863   6.540   4.851  13.316 -0.1896  0.2570 -0.1725
18791TIP3    H177864   6.526   4.777  13.258  1.9891 -0.1794 -0.1922
18791TIP3    H277865   6.570   4.922  13.259 -0.1372  0.4919  0.1415
18792TIP3   OH277866   2.674   0.146   2.216 -0.0236 -0.4244 -0.0168
18792TIP3    H177867   2.714   0.101   2.142 -0.2044 -0.3807 -0.1394
18792TIP3    H277868   2.624   0.218   2.178 -1.1787 -1.1777  0.0454
18793TIP3   OH277869   5.147   6.403  14.388 -0.5612 -0.2094  0.8184
18793TIP3    H177870   5.140   6.321  14.339 -1.0715  0.6913 -0.6547
18793TIP3    H277871   5.241   6.416  14.401 -0.3837 -0.1532 -0.4758
18794TIP3   OH277872   1.285   6.630   6.065  0.1978  0.2834 -0.3413
18794TIP3    H177873   1.381   6.632   6.055  0.2777  2.0721  0.5543
18794TIP3    H277874   1.267   6.696   6.132 -1.6354 -0.3585 -0.1878
18795TIP3   OH277875   4.628   4.998   1.614 -0.2018  0.8405  0.2531
18795TIP3    H177876   4.628   5.061   1.686  1.3400 -0.3031  1.3043
18795TIP3    H277877   4.638   4.913   1.657 -0.3913  0.0413 -1.2483
18796TIP3   OH277878   2.301   0.187  11.701 -0.4592  0.4590 -0.3663
18796TIP3    H177879   2.293   0.241  11.780 -1.8637  0.5202 -0.5407
18796TIP3    H277880   2.391   0.155  11.703  0.8213  3.7567 -0.8460
18797TIP3   OH277881   3.832   5.038   0.881 -0.4808 -0.1732  0.3187
18797TIP3    H177882   3.877   5.104   0.933 -2.1377 -0.2148  1.8847
18797TIP3    H277883   3.775   4.993   0.944 -1.8796 -0.8404 -1.3699
18798TIP3   OH277884   5.279   5.949   5.253 -0.2372 -0.0758 -0.2767
18798TIP3    H177885   5.239   5.862   5.248 -0.6795  0.0916  0.3061
18798TIP3    H277886   5.253   5.992   5.172 -2.5602  0.5891  0.7904
18799TIP3   OH277887   3.621   4.502  13.468 -0.7856  0.2557  0.1485
18799TIP3    H177888   3.580   4.417  13.453 -1.2880  0.8540 -2.0099
18799TIP3    H277889   3.709   4.493  13.430  0.2966 -0.2643  2.6708
18800TIP3   OH277890   2.888   5.697  13.117 -0.2904  0.5888 -0.1403
18800TIP3    H177891   2.801   5.737  13.121 -1.1197 -1.2853  0.8273
18800TIP3    H277892   2.885   5.639  13.041 -1.4491 -3.0151  2.5668
18801TIP3   OH277893   3.606   5.088   5.931  0.0425 -0.0971 -0.1419
18801TIP3    H177894   3.649   5.109   6.014  2.2216 -1.0532 -0.9945
18801TIP3    H277895   3.646   5.148   5.868 -1.4170  0.4480 -0.5703
18802TIP3   OH277896   5.582   2.534  10.479 -0.4793 -0.3337 -0.3958
18802TIP3    H177897   5.642   2.601  10.512  0.3458 -0.3183 -1.8781
18802TIP3    H277898   5.520   2.520  10.551  0.0822  1.1107  0.3978
18803TIP3   OH277899   0.045   1.971   0.113 -0.6454 -0.0617  0.1013
18803TIP3    H177900   0.019   1.924   0.034 -0.1756  0.2786 -0.2583
18803TIP3    H277901   0.140   1.969   0.113 -0.5759  1.9691 -0.5956
18804TIP3   OH277902   4.014   0.491   3.587  0.7516  0.0860  0.3020
18804TIP3    H177903   3.935   0.545   3.580  1.3100  0.7973 -0.5940
18804TIP3    H277904   4.051   0.514   3.672 -1.7201 -2.6425  2.2280
18805TIP3   OH277905   1.825   2.988  13.988 -0.5907  0.3713 -0.4365
18805TIP3    H177906   1.817   3.047  13.913 -1.5926 -0.3744 -0.9145
18805TIP3    H277907   1.868   2.910  13.953 -0.0686  0.4521  0.0067
18806TIP3   OH277908   6.672   3.455   6.058 -0.4481  0.3814  0.0562
18806TIP3    H177909   6.665   3.363   6.085  1.4860 -0.3587 -1.7651
18806TIP3    H277910   6.704   3.451   5.968 -0.7901  2.8498 -0.2165
18807TIP3   OH277911   4.783   2.613   0.924  0.1626  0.1655 -0.8816
18807TIP3    H177912   4.863   2.592   0.874  0.4657 -1.3528  0.1902
18807TIP3    H277913   4.794   2.566   1.007 -1.8097  0.0064 -0.6844
18808TIP3   OH277914   5.411   2.648   2.221  0.5703  0.1718 -0.2353
18808TIP3    H177915   5.417   2.736   2.260  1.1836  0.4115 -0.8619
18808TIP3    H277916   5.433   2.661   2.129  1.0120 -0.6969 -0.2568
18809TIP3   OH277917   0.476   3.832   3.717 -0.6002  0.0808  0.1327
18809TIP3    H177918   0.525   3.807   3.796 -2.2332  0.9010  1.4516
18809TIP3    H277919   0.437   3.750   3.686  0.6818 -0.3870 -0.3110
18810TIP3   OH277920   1.666   6.194   0.014 -0.2845 -0.4829  0.1364
18810TIP3    H177921   1.739   6.248  -0.017  0.7744 -1.3462  1.0624
18810TIP3    H277922   1.654   6.221   0.105 -1.4466 -0.0081 -0.1566
18811TIP3   OH277923   5.079   2.532   3.381 -0.0797 -0.9610  0.4094
18811TIP3    H177924   5.107   2.600   3.320  0.8745 -1.2061  0.5632
18811TIP3    H277925   5.155   2.476   3.391 -0.9152 -2.1482  0.1650
18812TIP3   OH277926   6.531   1.806  17.279 -0.3194  0.0430 -0.3238
18812TIP3    H177927   6.470   1.830  17.348 -0.1582  0.7873 -0.4374
18812TIP3    H277928   6.476   1.784  17.204 -0.4819 -0.3857 -0.0810
18813TIP3   OH277929   5.237   6.339   1.513 -0.1124  0.8165  0.1460
18813TIP3    H177930   5.300   6.269   1.529  0.5776  1.3356 -0.2715
18813TIP3    H277931   5.154   6.303   1.543  0.5535  0.5056  1.6661
18814TIP3   OH277932   0.348   6.196  16.140  0.0362  0.3837 -0.3823
18814TIP3    H177933   0.277   6.208  16.077 -2.1340  0.3470  1.9607
18814TIP3    H277934   0.322   6.120  16.191  1.6638  0.5284  0.6968
18815TIP3   OH277935   4.599   5.515  11.325 -0.3614  0.4322  0.3815
18815TIP3    H177936   4.516   5.470  11.315  0.0991 -0.4615  0.5251
18815TIP3    H277937   4.611   5.522  11.420 -0.6448  1.2670  0.3600
18816TIP3   OH277938   3.085   0.095  13.299  0.2054 -0.6874 -0.5414
18816TIP3    H177939   3.109   0.092  13.392  0.2647  2.9304 -0.3547
18816TIP3    H277940   3.160   0.137  13.257  0.1265 -2.2022 -2.2089
18817TIP3   OH277941   4.328   2.465   1.681 -0.2822  0.3330 -0.0358
18817TIP3    H177942   4.378   2.431   1.755 -0.6259  0.3465  0.2022
18817TIP3    H277943   4.393   2.508   1.625 -0.1237  0.9283  0.6059
18818TIP3   OH277944   1.039   3.613   0.061 -0.0055  0.3368 -0.9999
18818TIP3    H177945   1.017   3.705   0.044  1.6637  1.4430  2.4754
18818TIP3    H277946   0.958   3.576   0.098 -1.4924 -0.3434 -4.7086
18819TIP3   OH277947   6.674   4.810  12.157 -0.5115 -0.5072 -0.0149
18819TIP3    H177948   6.651   4.842  12.244  0.3356 -1.7332  0.6702
18819TIP3    H277949   6.760   4.770  12.168  1.3408  2.6041 -2.2029
18820TIP3   OH277950   1.839   5.779   0.793 -0.3476  0.1800 -0.1367
18820TIP3    H177951   1.868   5.747   0.707  0.6226  2.7071 -0.7848
18820TIP3    H277952   1.745   5.759   0.795 -0.2692 -0.4418 -1.5585
18821TIP3   OH277953   3.811   4.207  15.122 -0.2498 -0.2797 -0.0726
18821TIP3    H177954   3.753   4.259  15.067  0.4165  2.0201  1.3362
18821TIP3    H277955   3.769   4.206  15.209  0.5079 -0.8233  0.3021
18822TIP3   OH277956   5.809   5.818  12.449 -1.1311 -0.0084  0.2240
18822TIP3    H177957   5.834   5.802  12.540 -2.7434  0.2979  0.7307
18822TIP3    H277958   5.787   5.731  12.415 -1.5246  0.0161  0.4227
18823TIP3   OH277959   1.292   3.957  10.663 -0.0212 -0.1926  0.4754
18823TIP3    H177960   1.370   3.928  10.711  1.3456 -0.0032 -1.5369
18823TIP3    H277961   1.234   3.881  10.662  1.0833 -1.0416  0.1712
18824TIP3   OH277962   5.719   3.384  16.886 -0.2930  0.3804  0.5366
18824TIP3    H177963   5.725   3.474  16.854 -0.3396  0.4533  0.7342
18824TIP3    H277964   5.810   3.355  16.895 -0.2441 -0.9612 -3.3550
18825TIP3   OH277965   1.647   2.126  13.611  0.4678 -0.0173  0.0724
18825TIP3    H177966   1.710   2.129  13.539 -0.0859 -2.4395 -0.5326
18825TIP3    H277967   1.567   2.163  13.574  0.5069 -0.2236 -0.2195
18826TIP3   OH277968   1.105   6.478  16.457 -0.4186  0.8188  0.3649
18826TIP3    H177969   1.118   6.545  16.524  1.3408 -0.0650  0.9094
18826TIP3    H277970   1.164   6.407  16.481 -3.2463 -1.5511  0.5657
18827TIP3   OH277971   1.685   2.076   3.740  0.0920 -1.1218  0.0599
18827TIP3    H177972   1.614   2.025   3.778 -2.8588  2.3963 -0.5307
18827TIP3    H277973   1.669   2.166   3.768  3.4807  0.0230 -1.3570
18828TIP3   OH277974   5.997   6.399  12.353  1.0147  0.1919 -0.4229
18828TIP3    H177975   6.076   6.403  12.408  1.7156 -1.5672 -1.2786
18828TIP3    H277976   5.952   6.481  12.372  1.8833  0.2100  1.8203
18829TIP3   OH277977   1.538   4.245  13.617 -0.0332 -0.2117 -0.7321
18829TIP3    H177978   1.579   4.327  13.644 -1.1186 -0.9221  3.3151
18829TIP3    H277979   1.444   4.264  13.620 -0.2695 -1.4104 -0.5199
18830TIP3   OH277980   6.369   0.198   5.057  0.0521  0.2942  0.9326
18830TIP3    H177981   6.438   0.253   5.094  0.3027  0.1880  0.6227
18830TIP3    H277982   6.319   0.168   5.133 -0.1920  1.0934  1.0925
18831TIP3   OH277983   2.524   4.030  16.778  0.1307 -0.6917  0.0254
18831TIP3    H177984   2.447   4.075  16.812  0.2237  0.6533 -1.4788
18831TIP3    H277985   2.501   3.938  16.778 -1.6520 -0.2661 -0.8258
18832TIP3   OH277986   6.743   5.984  14.491  0.0200  0.2168  0.2578
18832TIP3    H177987   6.773   6.032  14.414 -0.8828  0.1949 -0.1153
18832TIP3    H277988   6.705   6.051  14.547  0.6125  0.2224  0.6564
18833TIP3   OH277989   4.188   2.168   1.115 -0.3362 -0.2263  0.6954
18833TIP3    H177990   4.275   2.166   1.156 -0.3396  0.3265  0.7212
18833TIP3    H277991   4.144   2.091   1.150  0.1777 -0.5660  0.6108
18834TIP3   OH277992   3.505   3.413   5.769 -0.4668  0.9889  0.8338
18834TIP3    H177993   3.579   3.402   5.828  0.5607 -1.3515 -0.8518
18834TIP3    H277994   3.430   3.377   5.818  0.3131 -0.6498  0.8404
18835TIP3   OH277995   1.965   5.308   1.649  0.6218  0.0499  0.0440
18835TIP3    H177996   1.945   5.217   1.625 -2.5031  0.8462 -0.5686
18835TIP3    H277997   1.998   5.347   1.569  1.9782 -0.5121  0.3091
18836TIP3   OH277998   1.061   4.086  13.502 -0.5969  0.0797 -0.5659
18836TIP3    H177999   1.075   4.089  13.408 -0.2474  0.6103 -0.5002
18836TIP3    H278000   0.970   4.059  13.512 -0.7470  0.4084 -1.0626
18837TIP3   OH278001   3.572   2.753  14.833 -0.5631  0.5490  0.2984
18837TIP3    H178002   3.613   2.773  14.917 -0.6106 -0.3168  0.5321
18837TIP3    H278003   3.628   2.795  14.768  0.8106 -0.7650  0.6019
18838TIP3   OH278004   2.456   3.343   2.552 -0.2803 -0.5471  0.0221
18838TIP3    H178005   2.462   3.311   2.462  0.3914  1.6478 -0.7390
18838TIP3    H278006   2.394   3.416   2.548  1.4173  0.9855  0.9132
18839TIP3   OH278007   1.155   3.961   4.656  0.2143 -0.2100 -0.3525
18839TIP3    H178008   1.117   3.883   4.615  1.7494 -0.7294 -0.8506
18839TIP3    H278009   1.177   3.933   4.745  1.0923 -0.4741 -0.6419
18840TIP3   OH278010   0.814   3.938  13.793 -0.2692 -0.1077  0.0940
18840TIP3    H178011   0.839   3.962  13.704  0.0789  0.1114  0.2499
18840TIP3    H278012   0.891   3.961  13.846 -0.9354  0.8896  0.6330
18841TIP3   OH278013   4.269   2.267   0.161 -0.1769  0.3475  0.0573
18841TIP3    H178014   4.291   2.284   0.069 -0.8820  4.3574  0.5585
18841TIP3    H278015   4.173   2.276   0.165 -0.1005  0.7090  1.2668
18842TIP3   OH278016   1.265   0.553  16.178  0.2745  0.2241  0.1671
18842TIP3    H178017   1.355   0.547  16.212 -0.5911 -1.5804  2.3036
18842TIP3    H278018   1.255   0.645  16.153  3.0246  0.2509 -1.0442
18843TIP3   OH278019   0.680   6.016  16.057  0.5206  0.3683 -0.3006
18843TIP3    H178020   0.741   6.074  16.104  0.2731  1.3132 -1.1207
18843TIP3    H278021   0.705   5.928  16.084  1.7095  0.7935  0.0317
18844TIP3   OH278022   5.222   0.198  11.972 -0.0973 -0.8007 -0.4889
18844TIP3    H178023   5.247   0.281  11.931  1.9760 -1.5589 -0.7994
18844TIP3    H278024   5.173   0.224  12.050  0.4947  0.7203 -0.6026
18845TIP3   OH278025   4.930   4.138   0.318  0.5160  0.1003  0.3794
18845TIP3    H178026   4.989   4.106   0.387  0.2326  1.4409  1.2577
18845TIP3    H278027   4.862   4.186   0.365  0.8298  1.8253 -0.8978
18846TIP3   OH278028   1.285   1.835   1.302 -0.0484  0.4402  0.4588
18846TIP3    H178029   1.346   1.901   1.270 -1.3147  0.3028 -2.3783
18846TIP3    H278030   1.324   1.751   1.276 -1.4790  0.3581 -1.5109
18847TIP3   OH278031   4.603   0.985  14.178  0.1025  0.1850  0.4452
18847TIP3    H178032   4.688   1.028  14.186  0.1185  0.3226 -0.3522
18847TIP3    H278033   4.623   0.899  14.140 -0.0959  0.1667  0.3784
18848TIP3   OH278034   0.829   4.262   4.332 -0.2008  0.4830  0.3176
18848TIP3    H178035   0.852   4.177   4.370 -1.4900  0.4834  1.1153
18848TIP3    H278036   0.738   4.253   4.306 -0.2983  1.5801  0.2649
18849TIP3   OH278037   4.055   1.198   0.024 -0.5007 -0.0383 -0.1738
18849TIP3    H178038   4.055   1.112  -0.016 -0.7974  0.0759 -0.4213
18849TIP3    H278039   4.135   1.200   0.077 -1.3413 -1.0946  1.1850
18850TIP3   OH278040   0.903   4.645   3.157 -0.2882  0.0845  0.8547
18850TIP3    H178041   0.995   4.646   3.133 -0.1998  1.7512  1.1727
18850TIP3    H278042   0.899   4.700   3.236 -1.9512  2.3662 -0.7436
18851TIP3   OH278043   6.386   6.492  11.074 -1.1265 -0.0364 -0.0486
18851TIP3    H178044   6.314   6.444  11.114 -2.8890  0.5167 -2.4510
18851TIP3    H278045   6.376   6.477  10.980  1.6728  0.3849 -0.4755
18852TIP3   OH278046   1.400   5.497   5.391 -0.1041  0.6229  0.2327
18852TIP3    H178047   1.382   5.405   5.411  0.1919  0.8186  1.4483
18852TIP3    H278048   1.317   5.532   5.360 -0.2128 -0.0556 -0.2526
18853TIP3   OH278049   2.956   0.161   0.529  0.6557  0.2661 -0.0440
18853TIP3    H178050   2.912   0.241   0.502 -0.6126 -0.6544 -0.7583
18853TIP3    H278051   3.045   0.170   0.494  0.0990  0.7172 -1.3843
18854TIP3   OH278052   4.015   6.139  12.465 -0.2923 -0.0704  0.5370
18854TIP3    H178053   3.921   6.159  12.464 -0.1919  0.3900 -0.8443
18854TIP3    H278054   4.058   6.224  12.456  0.2429 -0.3615  0.3167
18855TIP3   OH278055   4.552   6.152  15.197 -0.3416 -0.7318  0.8588
18855TIP3    H178056   4.635   6.190  15.169 -0.9536 -0.9777 -1.3375
18855TIP3    H278057   4.565   6.057  15.190 -1.5883 -0.7424 -1.9297
18856TIP3   OH278058   1.025   0.495  14.859  0.2798  0.3282  0.0250
18856TIP3    H178059   0.966   0.561  14.822  1.6478  0.5990 -1.7480
18856TIP3    H278060   0.971   0.417  14.868 -0.9064  1.1949  0.4568
18857TIP3   OH278061   1.894   1.790  11.291 -0.1124  0.3812  0.0393
18857TIP3    H178062   1.907   1.763  11.200  0.3763  0.8259 -0.0266
18857TIP3    H278063   1.825   1.732  11.323 -0.3680  0.2939 -0.6471
18858TIP3   OH278064   0.956   4.396   4.146 -0.3224  0.3434  0.2166
18858TIP3    H178065   0.897   4.360   4.212  0.9799 -1.3768  0.4722
18858TIP3    H278066   0.913   4.379   4.063  0.0418 -1.3986  0.3644
18859TIP3   OH278067   3.454   4.144  17.151 -0.0434  0.5391  0.1286
18859TIP3    H178068   3.523   4.081  17.171 -0.3327 -0.0441 -0.6864
18859TIP3    H278069   3.484   4.187  17.070 -0.9746 -0.2223 -0.6257
18860TIP3   OH278070   1.691   0.686   2.277  0.3177 -0.5035  0.1945
18860TIP3    H178071   1.599   0.658   2.278  0.0795  0.0832 -2.1817
18860TIP3    H278072   1.735   0.619   2.223  1.3080 -0.8260  1.3926
18861TIP3   OH278073   5.585   1.982   2.785  0.3960 -0.5043 -0.8167
18861TIP3    H178074   5.573   2.022   2.699 -2.5844 -0.1795 -0.3288
18861TIP3    H278075   5.608   2.056   2.842  0.7105 -0.4458 -1.0182
18862TIP3   OH278076   6.660   6.186  10.735 -0.0640  0.2910 -0.2216
18862TIP3    H178077   6.697   6.208  10.820  0.1650  2.1542 -0.7860
18862TIP3    H278078   6.603   6.111  10.752  1.6364 -0.7221  1.1750
18863TIP3   OH278079   1.925   2.846   5.208  0.4721 -0.8749  0.2591
18863TIP3    H178080   1.863   2.796   5.155  1.4836 -0.0582 -1.7399
18863TIP3    H278081   1.917   2.936   5.176  2.0533 -0.6091  0.5664
18864TIP3   OH278082   0.143   2.292  11.619 -0.0724 -0.4195  0.0382
18864TIP3    H178083   0.158   2.213  11.670  0.5055 -1.4507 -1.7086
18864TIP3    H278084   0.204   2.286  11.545  2.7509  3.4751  1.8339
18865TIP3   OH278085   1.149   1.072   0.371 -0.0975  0.0462 -0.4432
18865TIP3    H178086   1.144   1.005   0.302 -0.4933  0.2157 -0.5805
18865TIP3    H278087   1.085   1.138   0.345 -0.3169  0.0641  0.1385
18866TIP3   OH278088   3.335   5.885   6.467  0.3764  0.2344 -0.0096
18866TIP3    H178089   3.413   5.829   6.458  0.1544 -0.3138  1.2817
18866TIP3    H278090   3.262   5.823   6.469 -0.1814  0.8089 -2.1954
18867TIP3   OH278091   6.483   5.143  13.366 -0.7689  0.2986  0.7082
18867TIP3    H178092   6.397   5.111  13.339 -0.4033 -0.4832  0.4719
18867TIP3    H278093   6.520   5.073  13.420  0.1418  0.1877 -0.0391
18868TIP3   OH278094   1.688   2.163   5.730 -0.0665  0.1997  0.3938
18868TIP3    H178095   1.677   2.256   5.748  1.8291  0.5747 -0.2371
18868TIP3    H278096   1.734   2.160   5.646 -1.6571 -1.3393 -0.4638
18869TIP3   OH278097   6.193   2.611  15.016 -0.7474  0.4901  0.3585
18869TIP3    H178098   6.118   2.603  14.957  0.0069 -0.8863 -0.4545
18869TIP3    H278099   6.186   2.535  15.075  0.0876  0.2504  0.1634
18870TIP3   OH278100   2.353   1.281  12.009 -0.0515 -0.1596  0.2000
18870TIP3    H178101   2.317   1.356  11.961 -0.0367 -0.1670  0.1771
18870TIP3    H278102   2.439   1.266  11.969  0.2545  0.2751  0.6909
18871TIP3   OH278103   6.309   5.333   0.460  0.0941  0.3785  0.0429
18871TIP3    H178104   6.328   5.320   0.367  1.8793  0.1960  0.4301
18871TIP3    H278105   6.394   5.339   0.502 -0.6932 -0.7113  1.8614
18872TIP3   OH278106   3.817   4.552  10.785  0.5624  0.3123  0.1434
18872TIP3    H178107   3.816   4.467  10.828  0.2987 -0.1379 -0.7382
18872TIP3    H278108   3.765   4.540  10.706 -0.8557  1.7445  0.8316
18873TIP3   OH278109   4.266   1.410   2.897  0.2358  0.0456  0.1568
18873TIP3    H178110   4.321   1.488   2.887 -1.3828  1.1466 -0.2314
18873TIP3    H278111   4.224   1.420   2.982 -0.9562  0.2383 -0.4443
18874TIP3   OH278112   6.777   4.439  11.404 -0.2978  0.2370  0.0079
18874TIP3    H178113   6.867   4.409  11.394 -0.5221 -0.0587 -1.1190
18874TIP3    H278114   6.744   4.390  11.480  0.0363 -0.7045 -0.4540
18875TIP3   OH278115   6.814   2.170  13.375  0.4385 -0.2619 -0.3252
18875TIP3    H178116   6.796   2.207  13.461 -1.5572 -0.9961 -0.3770
18875TIP3    H278117   6.741   2.201  13.321  1.6249  0.1131 -1.7273
18876TIP3   OH278118   1.302   4.369   4.658  0.3665 -0.0458 -0.1012
18876TIP3    H178119   1.395   4.384   4.643  0.3378  0.6451  0.3922
18876TIP3    H278120   1.289   4.390   4.750 -0.5284  1.1030 -0.4833
18877TIP3   OH278121   6.434   4.672  15.949  0.2046  0.2240  0.2095
18877TIP3    H178122   6.522   4.645  15.924  0.4782 -0.9030  2.2638
18877TIP3    H278123   6.448   4.742  16.013 -0.3768 -0.0857  0.6791
18878TIP3   OH278124   0.582   2.854   2.777 -0.1320 -0.1826 -0.5775
18878TIP3    H178125   0.610   2.898   2.857  0.2571  0.0914 -0.8589
18878TIP3    H278126   0.651   2.791   2.758 -0.4064 -0.5075 -0.4925
18879TIP3   OH278127   4.781   3.032  13.113  0.1393  0.0221  0.8216
18879TIP3    H178128   4.860   2.986  13.141 -0.7999 -0.8443  2.1194
18879TIP3    H278129   4.755   2.988  13.033  0.5568 -0.1803  0.7940
18880TIP3   OH278130   0.715   6.643  12.997  0.3497 -0.4975  0.3790
18880TIP3    H178131   0.772   6.707  12.955 -1.2949 -0.0528 -1.1945
18880TIP3    H278132   0.676   6.690  13.071 -0.7012  0.2681 -0.6547
18881TIP3   OH278133   2.111   0.712  13.527  0.4240 -0.0888  0.5200
18881TIP3    H178134   2.151   0.797  13.509  0.7065 -0.1427  0.8880
18881TIP3    H278135   2.186   0.654  13.542  0.1987 -0.0966  1.6483
18882TIP3   OH278136   5.413   1.975   5.184 -0.0475  0.3959 -0.1567
18882TIP3    H178137   5.402   1.966   5.089  1.3149  0.3030 -0.3122
18882TIP3    H278138   5.420   2.070   5.198 -2.2814  0.5519  0.1015
18883TIP3   OH278139   4.822   6.642  17.234  0.1375 -0.3584 -0.6358
18883TIP3    H178140   4.840   6.689  17.315 -0.5091  1.8613 -1.7492
18883TIP3    H278141   4.727   6.630  17.233  0.3468 -2.1562 -0.1184
18884TIP3   OH278142   1.232   6.802   3.578  0.1412 -0.0751  0.2841
18884TIP3    H178143   1.253   6.847   3.660 -1.7719  1.7434 -0.1856
18884TIP3    H278144   1.309   6.747   3.561  1.3625  0.9302  2.3053
18885TIP3   OH278145   3.716   5.800  13.256 -0.2212 -0.1284  0.3113
18885TIP3    H178146   3.789   5.807  13.194  0.1204 -1.5896  0.5130
18885TIP3    H278147   3.638   5.809  13.202  0.0906 -0.4519 -0.2052
18886TIP3   OH278148   3.285   3.730   0.859  1.1445  0.7099  0.0892
18886TIP3    H178149   3.345   3.800   0.886  1.6956  1.0925 -2.0269
18886TIP3    H278150   3.202   3.752   0.900  1.3333  2.5842 -0.4787
18887TIP3   OH278151   0.108   5.902  15.631 -0.4814 -0.6452  0.1686
18887TIP3    H178152   0.127   5.821  15.583  1.5710  0.0323 -0.1699
18887TIP3    H278153   0.167   5.967  15.594 -2.4645  1.1823  0.0855
18888TIP3   OH278154   3.657   1.904  12.064 -0.1618  0.5091 -0.3454
18888TIP3    H178155   3.570   1.879  12.033 -0.4917  1.1287  0.0691
18888TIP3    H278156   3.683   1.832  12.122  1.0068 -1.2698 -3.0232
18889TIP3   OH278157   2.031   3.711  11.513 -0.4429 -0.3210 -0.2856
18889TIP3    H178158   2.019   3.692  11.421 -2.6531  0.3602 -0.1595
18889TIP3    H278159   2.125   3.729  11.522 -0.1329 -0.8891 -2.2802
18890TIP3   OH278160   0.862   4.922  13.637 -0.0871  0.0968  0.1259
18890TIP3    H178161   0.900   4.996  13.590 -0.3259  0.5861  0.7020
18890TIP3    H278162   0.937   4.865  13.656  0.1645  0.4062  0.0675
18891TIP3   OH278163   3.737   5.076   4.212  0.2462  0.4637  0.1996
18891TIP3    H178164   3.809   5.131   4.182  1.1476 -1.2068 -0.7642
18891TIP3    H278165   3.750   5.068   4.306  0.7577  0.9653  0.1742
18892TIP3   OH278166   2.239   0.630   6.176  0.4146  0.7467  0.8332
18892TIP3    H178167   2.164   0.681   6.147  0.4926  1.7881  2.3657
18892TIP3    H278168   2.312   0.661   6.122 -0.1839 -0.0542 -0.4482
18893TIP3   OH278169   0.179   4.961  14.771  0.1400 -0.1151  0.7463
18893TIP3    H178170   0.256   4.927  14.817  0.2571 -0.9638 -0.0521
18893TIP3    H278171   0.209   5.041  14.728  0.5816 -0.4515  0.4289
18894TIP3   OH278172   1.918   3.612   5.242  0.4615  0.4343 -0.2151
18894TIP3    H178173   2.000   3.572   5.214 -0.6261 -2.1198  0.1101
18894TIP3    H278174   1.936   3.645   5.330  1.0611 -0.4098 -0.0164
18895TIP3   OH278175   4.021   1.042  11.924  0.4093  0.5041  0.0099
18895TIP3    H178176   4.014   0.987  11.846  0.2322 -0.6208  0.7905
18895TIP3    H278177   3.958   1.113  11.909 -1.8199 -1.3188  0.3883
18896TIP3   OH278178   5.149   4.179   1.825  0.6198 -0.3690  0.0240
18896TIP3    H178179   5.183   4.268   1.829 -0.2057 -0.0156 -0.6380
18896TIP3    H278180   5.107   4.172   1.739  2.0948 -1.9357 -0.5933
18897TIP3   OH278181   6.117   5.902   1.996  0.9661  0.1651  0.1323
18897TIP3    H178182   6.188   5.954   1.958  0.0562  0.9498 -0.4899
18897TIP3    H278183   6.135   5.813   1.967  0.4918  0.6938 -1.8443
18898TIP3   OH278184   2.316   1.723  17.108 -0.4170  0.1479 -1.1725
18898TIP3    H178185   2.328   1.712  17.202 -2.5699  1.2368 -0.7318
18898TIP3    H278186   2.234   1.772  17.100  1.7088  3.5255 -3.4722
18899TIP3   OH278187   0.294   6.816   2.929 -0.5793  0.5083 -0.3930
18899TIP3    H178188   0.316   6.879   2.860 -0.7991  0.6455 -0.3373
18899TIP3    H278189   0.367   6.753   2.928 -0.6078  0.4821 -0.7823
18900TIP3   OH278190   4.163   6.480   5.473 -0.2381 -0.1405 -0.0444
18900TIP3    H178191   4.160   6.576   5.477  0.0194 -0.1696  1.2441
18900TIP3    H278192   4.074   6.454   5.451 -1.4351  0.2538  3.9227
18901TIP3   OH278193   2.217   1.263  13.055 -0.6990 -0.2261 -0.3705
18901TIP3    H178194   2.298   1.297  13.019  0.6362 -2.5826  0.2901
18901TIP3    H278195   2.151   1.328  13.032  1.0377  0.8444 -2.4836
18902TIP3   OH278196   3.463   0.136  15.329 -0.0312 -0.3622 -0.1619
18902TIP3    H178197   3.544   0.136  15.279 -1.0452  0.5862 -1.8676
18902TIP3    H278198   3.434   0.045  15.330  1.6678 -0.8995  1.5098
18903TIP3   OH278199   3.235   2.180  13.159 -0.8205 -0.2709 -0.0644
18903TIP3    H178200   3.221   2.230  13.239 -0.0471 -0.3188  0.1071
18903TIP3    H278201   3.157   2.195  13.107 -0.4951  1.3118 -0.1120
18904TIP3   OH278202   0.223   4.539   1.552  0.2603 -0.4740 -0.1985
18904TIP3    H178203   0.193   4.502   1.469  0.8541  1.3557 -1.2488
18904TIP3    H278204   0.145   4.582   1.588  0.6229  0.8994 -1.0334
18905TIP3   OH278205   0.858   6.038   3.645 -0.4613  0.2879 -0.1250
18905TIP3    H178206   0.783   5.998   3.599 -0.8583  1.7988 -0.8222
18905TIP3    H278207   0.847   6.012   3.736 -0.0002 -2.2646 -0.7545
18906TIP3   OH278208   3.382   0.649   3.908 -0.2255  0.0861  0.1841
18906TIP3    H178209   3.402   0.708   3.835 -0.4430 -0.8429 -0.6419
18906TIP3    H278210   3.467   0.623   3.942 -0.1016 -0.0567 -0.2262
18907TIP3   OH278211   2.314   1.040   5.533 -0.4356  0.6658  0.3313
18907TIP3    H178212   2.366   1.071   5.607 -0.7550  1.6674  0.1436
18907TIP3    H278213   2.293   1.119   5.484  1.2826 -0.1561 -1.8363
18908TIP3   OH278214   3.250   0.274  12.615 -0.0181 -0.3102 -0.0435
18908TIP3    H178215   3.326   0.293  12.669  0.6041  1.2249 -1.4261
18908TIP3    H278216   3.176   0.307  12.665  0.3224 -0.8399  0.8245
18909TIP3   OH278217   1.968   0.222  15.846  0.1062  0.1000  0.6653
18909TIP3    H178218   2.015   0.207  15.929  0.6216 -0.0207  0.3583
18909TIP3    H278219   1.988   0.313  15.824  0.1011  0.0831  0.5922
18910TIP3   OH278220   1.875   5.737   3.444  0.1212  0.0135 -0.1780
18910TIP3    H178221   1.935   5.790   3.497  0.0433  0.2962 -0.3699
18910TIP3    H278222   1.930   5.664   3.412  0.2854  0.1034 -0.1024
18911TIP3   OH278223   0.784   3.651  16.566  0.1845 -0.3294  0.2867
18911TIP3    H178224   0.869   3.695  16.574  0.2793 -0.3896 -0.3670
18911TIP3    H278225   0.733   3.683  16.640  0.1613  1.0786 -0.3307
18912TIP3   OH278226   0.066   0.570   5.880 -0.2567  0.2079 -0.2059
18912TIP3    H178227   0.000   0.583   5.948  0.1698 -0.3469  0.3236
18912TIP3    H278228   0.141   0.533   5.927  0.0732 -0.0910 -0.9648
18913TIP3   OH278229   0.344   6.485  14.521  0.8795  0.1272 -0.0351
18913TIP3    H178230   0.351   6.527  14.436  1.3471 -0.0341 -0.0799
18913TIP3    H278231   0.319   6.555  14.581  1.8338  0.5076 -0.0764
18914TIP3   OH278232   6.057   1.750   3.216  0.5552 -0.7337 -0.1298
18914TIP3    H178233   6.024   1.830   3.176  1.3271 -0.6432 -0.5966
18914TIP3    H278234   5.978   1.702   3.243  0.0254 -0.7838 -1.7251
18915TIP3   OH278235   0.050   1.507   3.502  0.1954  0.0619 -0.4082
18915TIP3    H178236   0.097   1.447   3.443  1.8892  0.1046  0.8681
18915TIP3    H278237   0.098   1.589   3.495  0.0723  0.2206  0.6237
18916TIP3   OH278238   4.888   5.386  15.298  0.9043  0.2756 -0.1267
18916TIP3    H178239   4.891   5.388  15.202  0.7501 -2.0580 -0.2052
18916TIP3    H278240   4.970   5.344  15.324 -0.5025 -2.1343  0.5953
18917TIP3   OH278241   2.818   5.039   0.497  0.4855 -0.2698 -0.1119
18917TIP3    H178242   2.775   5.034   0.583  0.4175 -0.5621 -0.1629
18917TIP3    H278243   2.889   5.103   0.509 -0.1415  0.4324 -0.1038
18918TIP3   OH278244   4.341   2.334   2.145 -0.5370  0.2236 -0.7441
18918TIP3    H178245   4.352   2.291   2.230 -0.6583 -1.1130 -1.3986
18918TIP3    H278246   4.349   2.428   2.165  1.0608 -0.1489  0.5014
18919TIP3   OH278247   3.959   4.675   5.322 -0.4165  0.4012  0.4745
18919TIP3    H178248   3.904   4.707   5.251 -0.5528  0.9610  0.8240
18919TIP3    H278249   3.918   4.592   5.348 -0.6814  0.4624  0.2575
18920TIP3   OH278250   0.588   4.221  15.766  0.5750 -0.1781  0.5030
18920TIP3    H178251   0.633   4.237  15.849  1.6293 -0.8326  0.0738
18920TIP3    H278252   0.645   4.261  15.699 -0.4524  0.6765  0.1238
18921TIP3   OH278253   1.335   5.476   1.882 -0.2694  0.4283  0.0277
18921TIP3    H178254   1.334   5.499   1.789  0.5291 -0.2838 -0.1676
18921TIP3    H278255   1.423   5.499   1.912 -0.8961  1.7364  0.9030
18922TIP3   OH278256   2.265   4.496   1.099 -0.3692 -0.1787 -0.5541
18922TIP3    H178257   2.326   4.424   1.085  1.5371  1.1363  0.7350
18922TIP3    H278258   2.232   4.518   1.012  0.8397 -1.0412 -1.2355
18923TIP3   OH278259   4.341   5.128   1.605 -0.0084 -0.7125 -0.4248
18923TIP3    H178260   4.347   5.043   1.649 -1.0683 -1.6623 -2.0719
18923TIP3    H278261   4.387   5.115   1.522 -0.4153  0.2359 -0.8009
18924TIP3   OH278262   6.756   2.824  11.037  0.4029  0.1405  0.0425
18924TIP3    H178263   6.826   2.854  10.979 -0.0513  2.2605  0.5478
18924TIP3    H278264   6.795   2.828  11.125 -0.0944  0.5683  0.2448
18925TIP3   OH278265   2.987   3.335   1.547  0.0465 -0.2522  0.5890
18925TIP3    H178266   3.038   3.407   1.584  0.5166 -0.3536  0.1421
18925TIP3    H278267   2.957   3.285   1.623 -1.6946  1.3668  0.9960
18926TIP3   OH278268   6.345   6.657  15.601 -0.0784  0.1773  0.5905
18926TIP3    H178269   6.300   6.694  15.525  0.6887 -0.7425 -0.3372
18926TIP3    H278270   6.380   6.574  15.569  1.5454  0.4899  1.5354
18927TIP3   OH278271   0.137   1.544  13.547  0.1827  0.3586 -1.0406
18927TIP3    H178272   0.043   1.531  13.532 -0.0180 -0.9652  1.1621
18927TIP3    H278273   0.165   1.601  13.475 -2.5347  1.7466 -1.0517
18928TIP3   OH278274   3.382   3.249  17.080  0.2959  0.0515 -0.3965
18928TIP3    H178275   3.428   3.185  17.135  0.5480 -1.0067 -1.7957
18928TIP3    H278276   3.329   3.195  17.021 -0.7276  1.1982 -0.5484
18929TIP3   OH278277   2.354   5.303  14.173  0.2190 -0.2413 -0.0117
18929TIP3    H178278   2.295   5.228  14.180  0.3209 -0.2388  0.9490
18929TIP3    H278279   2.415   5.292  14.246 -1.4516  2.2279  1.8093
18930TIP3   OH278280   4.158   4.135   2.239  0.3068 -0.3372  0.1481
18930TIP3    H178281   4.088   4.115   2.177  0.6264  0.2338 -0.4010
18930TIP3    H278282   4.220   4.188   2.189  0.9176 -0.4701  0.7554
18931TIP3   OH278283   5.717   3.633  13.417  0.0475  0.5844 -1.0251
18931TIP3    H178284   5.684   3.672  13.336 -2.1583 -0.3027 -0.5612
18931TIP3    H278285   5.722   3.539  13.399 -1.1245  0.2945  0.0752
18932TIP3   OH278286   6.154   4.296   6.186 -0.2837 -0.1297 -0.2733
18932TIP3    H178287   6.237   4.249   6.188  0.4399  1.1129 -0.4630
18932TIP3    H278288   6.089   4.229   6.163  0.3376 -1.5493  1.9123
18933TIP3   OH278289   4.161   1.107  13.415  0.0703  0.5542  0.2792
18933TIP3    H178290   4.067   1.089  13.406 -0.3637  2.4548  0.8386
18933TIP3    H278291   4.190   1.122  13.325  0.0314 -0.9246  0.0111
18934TIP3   OH278292   4.345   2.380  14.020 -0.6301  0.3223 -0.0967
18934TIP3    H178293   4.383   2.363  14.107 -1.9989  1.0993  0.6778
18934TIP3    H278294   4.256   2.412  14.039 -1.6432 -1.3838 -1.8614
18935TIP3   OH278295   1.617   2.181   0.347  0.3021  0.1879 -0.0978
18935TIP3    H178296   1.674   2.211   0.276 -2.4108  0.5093 -2.2043
18935TIP3    H278297   1.611   2.087   0.335  0.1880  0.1858 -0.0250
18936TIP3   OH278298   2.836   6.216  17.137 -0.0814  0.0054  0.1540
18936TIP3    H178299   2.779   6.144  17.164 -1.1813 -0.0130 -2.1532
18936TIP3    H278300   2.823   6.282  17.205 -2.5736 -0.1657 -0.0752
18937TIP3   OH278301   3.506   2.470   2.628  0.3006  0.2261  0.4115
18937TIP3    H178302   3.551   2.432   2.703  0.2800  0.9969  0.8141
18937TIP3    H278303   3.473   2.394   2.579 -0.5543 -0.2470  1.7082
18938TIP3   OH278304   3.716   1.673  11.717 -0.1493  0.7502 -0.9191
18938TIP3    H178305   3.768   1.671  11.636 -1.6754  1.0541 -1.9261
18938TIP3    H278306   3.663   1.753  11.709  0.8231  1.6352  1.1173
18939TIP3   OH278307   3.117   4.648   4.706  0.1972  0.0625  0.4978
18939TIP3    H178308   3.175   4.644   4.782 -0.5647 -1.3012  1.0198
18939TIP3    H278309   3.030   4.662   4.743 -0.1580 -0.4558 -0.1304
18940TIP3   OH278310   0.224   2.825  10.589  0.3737  0.7658  1.0723
18940TIP3    H178311   0.277   2.752  10.558 -0.1220  0.4918  0.8685
18940TIP3    H278312   0.287   2.885  10.629  0.9283  0.7917  0.1725
18941TIP3   OH278313   6.390   0.818   1.590  0.5996 -0.0217  0.0951
18941TIP3    H178314   6.413   0.744   1.647 -0.4237  0.2595  0.9071
18941TIP3    H278315   6.320   0.863   1.638  1.4021  1.6363 -0.2613
18942TIP3   OH278316   4.277   3.640  12.486 -0.1774 -0.2511  0.2309
18942TIP3    H178317   4.290   3.697  12.411  0.5336 -0.7868 -0.0621
18942TIP3    H278318   4.238   3.560  12.449 -0.9371 -0.0631  0.6014
18943TIP3   OH278319   4.826   5.631  11.474 -0.0075  0.5545  0.2484
18943TIP3    H178320   4.841   5.725  11.485 -0.5281  0.4335  2.1719
18943TIP3    H278321   4.802   5.600  11.561 -1.6453 -1.0469 -0.7400
18944TIP3   OH278322   3.367   3.173  12.525  0.0311 -0.3365 -0.2445
18944TIP3    H178323   3.387   3.080  12.531 -0.6474 -0.5266 -0.8581
18944TIP3    H278324   3.275   3.180  12.551 -0.4190 -0.0626 -1.8907
18945TIP3   OH278325   0.414   1.784  14.214  0.1158  0.0279 -0.2476
18945TIP3    H178326   0.454   1.855  14.263  0.3497 -0.4283  0.2288
18945TIP3    H278327   0.486   1.746  14.163 -0.0525  0.2686 -0.6728
18946TIP3   OH278328   1.307   1.677   2.378 -0.3568  0.3724  0.1287
18946TIP3    H178329   1.361   1.641   2.308 -0.8049 -0.9993  0.4808
18946TIP3    H278330   1.222   1.694   2.335  0.3492  2.6171 -0.4477
18947TIP3   OH278331   5.751   0.847   3.570  0.3517 -0.8206 -0.0650
18947TIP3    H178332   5.837   0.851   3.528  0.7667 -1.4359  0.7053
18947TIP3    H278333   5.740   0.755   3.593 -1.1779 -1.0418 -1.5073
18948TIP3   OH278334   0.968   5.428  12.816  0.0319  0.3278 -0.5177
18948TIP3    H178335   0.910   5.472  12.754 -0.5302  1.2919  0.6671
18948TIP3    H278336   0.908   5.379  12.874  0.5822 -1.0635 -1.0910
18949TIP3   OH278337   3.187   3.852  15.511 -0.6044  0.3865  0.4058
18949TIP3    H178338   3.232   3.769  15.522 -0.9869  0.0160 -0.7494
18949TIP3    H278339   3.238   3.914  15.563 -0.0640 -0.4709  0.9146
18950TIP3   OH278340   1.383   3.168   1.012  0.1862 -0.1316  0.2832
18950TIP3    H178341   1.387   3.254   0.971 -2.3030  0.4120  1.0363
18950TIP3    H278342   1.301   3.130   0.980  0.7745 -1.8020  0.7194
18951TIP3   OH278343   6.109   4.201   1.564 -0.0647 -0.5883 -0.4323
18951TIP3    H178344   6.080   4.288   1.539 -0.8163 -0.8537 -0.5013
18951TIP3    H278345   6.074   4.188   1.652 -2.9832 -2.1858 -1.7679
18952TIP3   OH278346   6.118   5.183  17.169  0.1697 -0.2342  0.2608
18952TIP3    H178347   6.143   5.091  17.180  0.8084  0.0604  1.3139
18952TIP3    H278348   6.116   5.218  17.258 -1.1492  0.4975 -0.0471
18953TIP3   OH278349   5.898   4.410   4.292  0.8869  0.1725  0.3718
18953TIP3    H178350   5.959   4.478   4.320  1.5729 -0.6850  1.0320
18953TIP3    H278351   5.887   4.355   4.370 -0.0211 -0.1965 -0.0127
18954TIP3   OH278352   6.299   6.758   0.432 -0.3383  0.3810 -0.1559
18954TIP3    H178353   6.330   6.806   0.509  2.1565  0.6204 -1.2536
18954TIP3    H278354   6.308   6.821   0.360 -1.5987 -0.1953 -0.8349
18955TIP3   OH278355   3.720   2.003  14.856 -0.3680 -0.3005 -0.0556
18955TIP3    H178356   3.770   2.082  14.837 -2.3845  0.7108 -1.2194
18955TIP3    H278357   3.633   2.020  14.822 -1.0400 -2.7548  0.3218
18956TIP3   OH278358   5.621   0.424  16.296 -0.5713  0.1414 -0.4514
18956TIP3    H178359   5.579   0.377  16.368  0.5096 -0.3618 -0.1304
18956TIP3    H278360   5.708   0.445  16.330 -0.3918  0.7388 -1.2704
18957TIP3   OH278361   5.602   2.984   3.128  0.2363  0.4841  0.4505
18957TIP3    H178362   5.678   2.981   3.186  0.4622 -1.8911  0.0552
18957TIP3    H278363   5.529   2.956   3.184  0.4842 -1.9842 -0.4141
18958TIP3   OH278364   1.795   0.536  16.391 -0.0571 -0.3465 -0.3032
18958TIP3    H178365   1.779   0.473  16.461 -2.1254  0.2686 -0.1795
18958TIP3    H278366   1.890   0.544  16.387  0.1560 -1.8156  1.1414
18959TIP3   OH278367   0.299   5.704   4.193  0.3104  0.0022  0.4544
18959TIP3    H178368   0.214   5.744   4.174 -0.0629 -1.2315 -0.4988
18959TIP3    H278369   0.336   5.759   4.263 -0.4263  1.6957 -0.4541
18960TIP3   OH278370   2.353   4.280  16.129  0.2197 -0.4120 -0.2446
18960TIP3    H178371   2.295   4.344  16.089 -0.5547 -1.7712 -1.3707
18960TIP3    H278372   2.312   4.260  16.213 -0.1144 -0.2131 -0.3594
18961TIP3   OH278373   4.127   2.971   4.215  0.3531 -0.1473 -0.0994
18961TIP3    H178374   4.164   2.893   4.173  0.1003 -1.9829  2.9761
18961TIP3    H278375   4.041   2.943   4.246 -0.0871  1.6122  0.3024
18962TIP3   OH278376   3.352   1.275  15.361  0.5594 -0.1402 -0.3787
18962TIP3    H178377   3.329   1.336  15.290  0.8359  1.0959  0.5811
18962TIP3    H278378   3.339   1.326  15.441 -1.0267 -1.9306  0.5390
18963TIP3   OH278379   5.927   2.407  16.681  1.0480 -0.0643  0.0775
18963TIP3    H178380   6.012   2.365  16.697  0.2527 -1.7791 -0.1181
18963TIP3    H278381   5.872   2.338  16.646 -0.1970  1.2493 -0.6141
18964TIP3   OH278382   3.008   3.884   4.585 -0.3992 -0.0415 -0.7716
18964TIP3    H178383   2.975   3.797   4.563 -1.0607  0.3920 -1.5219
18964TIP3    H278384   2.940   3.924   4.638  0.7284 -0.6746  1.1932
18965TIP3   OH278385   3.898   6.081   0.819 -0.0933  0.0799 -0.1060
18965TIP3    H178386   3.889   6.087   0.914  0.8778  1.3354 -0.0855
18965TIP3    H278387   3.961   6.010   0.806  1.2454  1.1800  0.2671
18966TIP3   OH278388   5.629   3.956  16.692  0.2159 -0.8646  0.3956
18966TIP3    H178389   5.709   3.995  16.657 -0.8044 -0.8036 -1.9232
18966TIP3    H278390   5.581   3.926  16.615 -2.7982  0.6045  1.6115
18967TIP3   OH278391   3.492   0.984   5.666 -0.3199 -0.4294 -0.2891
18967TIP3    H178392   3.442   0.971   5.747  1.6780 -1.2013  0.8654
18967TIP3    H278393   3.561   1.046   5.689  0.7340 -1.2345 -1.1618
18968TIP3   OH278394   4.299   1.506   5.449  0.3925  0.0236  0.1868
18968TIP3    H178395   4.328   1.573   5.387 -0.8727  1.6301  1.3072
18968TIP3    H278396   4.380   1.464   5.479  1.2316  1.5039  0.0110
18969TIP3   OH278397   5.556   3.151  15.705 -0.2725 -0.8041  0.4240
18969TIP3    H178398   5.603   3.112  15.778  1.9864  2.5858  0.8730
18969TIP3    H278399   5.464   3.152  15.733 -0.0693 -3.5533  1.3093
18970TIP3   OH278400   5.666   6.753   3.964 -0.9436  0.5464 -0.2576
18970TIP3    H178401   5.732   6.691   3.933 -0.6427  0.2511  0.9498
18970TIP3    H278402   5.716   6.818   4.014 -1.5583  0.2762  0.7338
18971TIP3   OH278403   3.643   3.105  11.231  0.2315  0.0698 -0.2694
18971TIP3    H178404   3.648   3.011  11.218 -0.0599  0.1349 -0.8718
18971TIP3    H278405   3.652   3.142  11.144 -0.3167  0.5729 -0.1158
18972TIP3   OH278406   4.539   1.184  10.546 -0.1832  0.2913  0.2358
18972TIP3    H178407   4.514   1.252  10.608  0.0804  1.7501 -1.2270
18972TIP3    H278408   4.478   1.193  10.473  0.6057 -0.2487 -0.5141
18973TIP3   OH278409   3.633   2.055   3.390  0.5073  0.2428 -0.5790
18973TIP3    H178410   3.649   2.148   3.372 -3.6951  1.3859  0.7758
18973TIP3    H278411   3.561   2.056   3.453 -1.2144 -3.9678 -2.2895
18974TIP3   OH278412   5.164   4.083  11.125  0.0053 -0.0476 -0.3047
18974TIP3    H178413   5.210   4.159  11.159  1.6383 -1.2425  0.2214
18974TIP3    H278414   5.216   4.056  11.049  0.3453 -1.5613  0.4413
18975TIP3   OH278415   4.926   4.418  11.520  0.1442 -0.3082  0.3780
18975TIP3    H178416   4.863   4.351  11.546  0.0315 -0.6015 -0.6383
18975TIP3    H278417   4.893   4.498  11.560  0.5254 -0.9213  1.9936
18976TIP3   OH278418   6.278   4.557   5.940  0.8821 -0.0389 -0.2183
18976TIP3    H178419   6.277   4.638   5.889  0.1419 -0.2568 -0.5633
18976TIP3    H278420   6.194   4.557   5.986  0.6900 -0.8099 -0.5532
18977TIP3   OH278421   3.269   4.289  15.366  0.4076 -0.1447  0.2387
18977TIP3    H178422   3.316   4.208  15.389  0.2392 -0.1952  0.4106
18977TIP3    H278423   3.180   4.274  15.396 -0.0916 -0.6339 -1.4359
18978TIP3   OH278424   4.816   3.730   3.194  0.5286 -0.1366  0.0116
18978TIP3    H178425   4.798   3.773   3.277  1.4073 -0.3945  0.3444
18978TIP3    H278426   4.825   3.638   3.216 -2.0770 -0.6305 -0.8085
18979TIP3   OH278427   3.470   4.737   3.446 -0.3652  0.4390  0.6145
18979TIP3    H178428   3.474   4.688   3.528  0.8483  0.4347  0.5595
18979TIP3    H278429   3.491   4.827   3.470  2.4369  0.0059 -0.0338
18980TIP3   OH278430   2.048   3.282  17.130 -0.0121  0.0974 -0.0147
18980TIP3    H178431   2.014   3.298  17.218 -1.7404  0.4575 -0.7312
18980TIP3    H278432   2.014   3.196  17.106 -0.7753  0.6399 -0.8986
18981TIP3   OH278433   0.970   4.659  11.419 -0.0087 -0.0860  0.0136
18981TIP3    H178434   0.996   4.619  11.502 -0.6146  1.3970  0.9170
18981TIP3    H278435   1.001   4.749  11.425 -0.5082  0.1696 -1.1742
18982TIP3   OH278436   4.398   6.161  16.772  0.0900  0.1473  0.4814
18982TIP3    H178437   4.381   6.181  16.680  0.1910  1.1894  0.6800
18982TIP3    H278438   4.492   6.174  16.782  0.1470 -0.3731  0.6413
18983TIP3   OH278439   0.648   4.348  16.499 -0.4420  0.1586  0.1387
18983TIP3    H178440   0.708   4.337  16.572 -0.3717  0.4312  0.1201
18983TIP3    H278441   0.647   4.262  16.456 -0.0545  0.1565  0.1299
18984TIP3   OH278442   3.610   4.247  15.576 -0.7035  0.3114  0.3916
18984TIP3    H178443   3.593   4.178  15.640  1.5086  0.8142  1.5848
18984TIP3    H278444   3.651   4.317  15.627  1.0572  0.7502 -1.5720
18985TIP3   OH278445   3.072   3.518   2.421 -0.4603  0.4368 -0.1429
18985TIP3    H178446   3.109   3.606   2.422  0.5422  0.0475 -1.7658
18985TIP3    H278447   3.097   3.480   2.505 -0.5208  1.5323  0.3791
18986TIP3   OH278448   6.454   5.976   0.896  0.2257 -0.5469 -0.0619
18986TIP3    H178449   6.490   6.015   0.976  0.6715 -1.0686 -0.0053
18986TIP3    H278450   6.514   5.904   0.876  1.1823  0.7423 -1.9102
18987TIP3   OH278451   5.350   6.168   0.204  0.4303  0.0610 -0.4449
18987TIP3    H178452   5.433   6.120   0.211  0.3402 -0.0193  0.0640
18987TIP3    H278453   5.313   6.139   0.121  0.1022 -1.1869  0.1295
18988TIP3   OH278454   2.350   0.276  13.304 -0.4652  0.5376  0.0547
18988TIP3    H178455   2.444   0.272  13.290 -0.8578 -0.8895 -2.3395
18988TIP3    H278456   2.329   0.370  13.297  0.5356  0.6867 -0.9680
18989TIP3   OH278457   1.131   5.105   0.423  0.2507  0.1078  0.4160
18989TIP3    H178458   1.105   5.187   0.381 -0.3564  0.4521  1.4395
18989TIP3    H278459   1.222   5.121   0.451  0.7876 -0.2576 -1.0655
18990TIP3   OH278460   3.757   0.572   5.159 -0.3998 -0.3132 -0.6386
18990TIP3    H178461   3.741   0.666   5.148 -4.0505 -0.8020  0.0358
18990TIP3    H278462   3.838   0.556   5.110  0.0217  3.0887 -1.1655
18991TIP3   OH278463   3.799   4.758   3.822 -0.1422  0.6668 -0.2828
18991TIP3    H178464   3.861   4.813   3.775  2.0679 -0.4721  1.1832
18991TIP3    H278465   3.823   4.668   3.797 -1.5731  0.2421 -0.1409
18992TIP3   OH278466   5.578   4.288  14.044 -0.0169 -0.1541  0.3953
18992TIP3    H178467   5.651   4.231  14.066 -0.2935 -0.6286  0.0843
18992TIP3    H278468   5.501   4.231  14.049 -0.4721  0.5416  1.6046
18993TIP3   OH278469   5.744   1.128   3.023 -0.2660  0.1690  0.0964
18993TIP3    H178470   5.697   1.117   3.106  0.0551  0.0549  0.2654
18993TIP3    H278471   5.722   1.049   2.973 -1.5918  0.9023 -0.4914
18994TIP3   OH278472   6.677   1.487  16.448 -0.2148  0.1539  0.1931
18994TIP3    H178473   6.682   1.582  16.443 -0.3664  0.1284 -0.4830
18994TIP3    H278474   6.750   1.456  16.394  1.5043 -0.1021  2.5888
18995TIP3   OH278475   4.855   4.582  13.340  0.1666  0.2065  0.2013
18995TIP3    H178476   4.799   4.518  13.384 -1.0501 -0.1824 -1.8385
18995TIP3    H278477   4.922   4.603  13.405 -0.8226 -1.2931  1.7765
18996TIP3   OH278478   2.614   2.224   5.319  0.3177  0.1684 -0.2596
18996TIP3    H178479   2.537   2.188   5.276 -0.3665  1.2726  0.0054
18996TIP3    H278480   2.579   2.290   5.379  1.1569 -2.0977  2.8370
18997TIP3   OH278481   3.652   3.323   5.529 -0.1911 -0.4166  0.1505
18997TIP3    H178482   3.597   3.345   5.453  0.1340  1.8635  0.5221
18997TIP3    H278483   3.597   3.344   5.604 -0.5628 -2.8081  0.5832
18998TIP3   OH278484   2.572   6.748   1.357  0.0276 -0.0266 -0.2118
18998TIP3    H178485   2.663   6.778   1.351  0.0491  0.5743  2.4742
18998TIP3    H278486   2.538   6.789   1.437 -2.8653  0.4156 -1.5980
18999TIP3   OH278487   0.408   2.853   3.939  0.1581 -0.2138 -0.1303
18999TIP3    H178488   0.420   2.820   4.028  0.1123  1.3830  0.4697
18999TIP3    H278489   0.321   2.892   3.939 -0.0154 -0.5748 -1.0068
19000TIP3   OH278490   5.656   2.146  17.097 -0.2846 -0.3242  0.4532
19000TIP3    H178491   5.662   2.235  17.063 -0.2721 -0.5838 -0.2437
19000TIP3    H278492   5.746   2.123  17.121 -0.0595 -0.6351 -0.6497
19001TIP3   OH278493   1.295   3.217   5.479  0.2178  0.3593  0.3084
19001TIP3    H178494   1.327   3.293   5.429 -3.3388  0.7229 -1.5425
19001TIP3    H278495   1.355   3.146   5.454  1.3445  1.6567 -0.8194
19002TIP3   OH278496   4.220   4.515   2.243  0.3966  0.3164 -0.3328
19002TIP3    H178497   4.288   4.452   2.268 -2.0156 -1.8256  0.9993
19002TIP3    H278498   4.253   4.599   2.274  3.2561 -0.3887 -1.3117
19003TIP3   OH278499   2.621   0.232   4.928 -0.1607  0.4744 -0.0954
19003TIP3    H178500   2.539   0.279   4.940  0.3762  1.3482  0.1528
19003TIP3    H278501   2.670   0.248   5.008 -1.2758 -3.1665  1.4141
19004TIP3   OH278502   0.070   4.121   2.575  0.0976 -0.4762 -0.2519
19004TIP3    H178503   0.085   4.165   2.659 -1.7408 -1.5337  0.6567
19004TIP3    H278504  -0.004   4.062   2.591  0.7168 -1.8453 -2.1960
19005TIP3   OH278505   0.966   0.465  13.227 -0.2355  0.1648 -0.3639
19005TIP3    H178506   0.982   0.396  13.291  1.2494  0.2332 -0.6576
19005TIP3    H278507   0.969   0.420  13.142  0.3426  0.5253 -0.5324
19006TIP3   OH278508   0.938   2.717   3.443 -0.2244 -0.1002 -0.0793
19006TIP3    H178509   1.003   2.748   3.506  0.3172 -0.9728 -0.1871
19006TIP3    H278510   0.862   2.772   3.457 -0.7174 -1.3476  2.5148
19007TIP3   OH278511   4.653   4.796  10.546  0.4651 -0.1786 -0.3442
19007TIP3    H178512   4.666   4.889  10.526  0.3756 -0.1624 -0.3290
19007TIP3    H278513   4.737   4.755  10.527 -0.1420 -0.4705 -2.5222
19008TIP3   OH278514   3.720   5.656  11.608 -0.1541  0.1310  0.7723
19008TIP3    H178515   3.718   5.625  11.699  1.1984  1.0483  1.1165
19008TIP3    H278516   3.763   5.741  11.612  0.5344 -0.1312 -0.8231
19009TIP3   OH278517   5.387   1.531  11.220  0.3846 -0.1248  0.4883
19009TIP3    H178518   5.312   1.561  11.271  1.1323 -0.1844  1.6428
19009TIP3    H278519   5.367   1.439  11.201  0.6052 -0.4183  1.6294
19010TIP3   OH278520   3.993   5.035  16.345  0.1537  0.0919  0.1773
19010TIP3    H178521   4.007   5.078  16.430  0.2584  2.0374 -0.7844
19010TIP3    H278522   3.901   5.010  16.346 -0.5144  2.3777 -0.0892
19011TIP3   OH278523   5.588   6.396   2.664 -0.3061  0.4107  0.0509
19011TIP3    H178524   5.527   6.403   2.738  1.5826  1.0853  1.5743
19011TIP3    H278525   5.581   6.481   2.619 -1.5139 -0.0286 -0.6210
19012TIP3   OH278526   5.369   0.674  14.555  0.5852 -0.1637 -0.4069
19012TIP3    H178527   5.387   0.581  14.569  2.2089  0.5637  2.8698
19012TIP3    H278528   5.277   0.677  14.530  0.7606 -2.7163 -1.5410
19013TIP3   OH278529   4.585   4.159   1.348 -0.3587 -0.2955  0.1685
19013TIP3    H178530   4.659   4.117   1.304  1.2072  1.2003  1.3219
19013TIP3    H278531   4.508   4.116   1.311  1.0634 -1.7055 -1.2399
19014TIP3   OH278532   0.671   5.559   5.803  0.2921  0.0096 -0.2440
19014TIP3    H178533   0.588   5.603   5.785  0.5689 -0.1159 -1.9681
19014TIP3    H278534   0.646   5.484   5.857 -0.8803 -0.5991 -1.5764
19015TIP3   OH278535   4.274   6.071   0.481 -0.3559  0.0202  0.3145
19015TIP3    H178536   4.248   6.028   0.563 -0.3908 -0.5955 -0.0223
19015TIP3    H278537   4.308   6.157   0.509  1.8429 -1.0982  1.2009
19016TIP3   OH278538   0.738   5.962   3.324 -0.2553 -0.2106 -0.2290
19016TIP3    H178539   0.677   6.036   3.321  0.7839  0.6201 -1.3767
19016TIP3    H278540   0.773   5.956   3.235  2.1153 -0.0011  0.6481
19017TIP3   OH278541   3.848   2.029   3.963  0.3782  0.2291  0.3315
19017TIP3    H178542   3.873   1.938   3.946 -0.0618  0.2577 -0.4558
19017TIP3    H278543   3.773   2.045   3.906  0.8577  1.2861 -0.0204
19018TIP3   OH278544   4.419   6.530   5.573 -0.2466  0.5025  0.0738
19018TIP3    H178545   4.334   6.496   5.546  0.1137 -1.1232  0.9156
19018TIP3    H278546   4.482   6.486   5.516  0.1928  0.0477  0.8975
19019TIP3   OH278547   4.995   4.132   3.055 -0.1429  0.3212  0.4079
19019TIP3    H178548   5.086   4.137   3.082  0.5077  0.4451 -1.7192
19019TIP3    H278549   4.949   4.193   3.112  1.1692  0.5706  1.2129
19020TIP3   OH278550   5.241   5.460  14.987  0.2812  0.4185  0.1234
19020TIP3    H178551   5.325   5.493  14.955  0.9492 -0.4645  0.9587
19020TIP3    H278552   5.213   5.397  14.921  0.4576  0.4315  0.0362
19021TIP3   OH278553   2.440   2.854  16.467 -0.0982  0.6511  0.5034
19021TIP3    H178554   2.367   2.916  16.467 -0.9855 -0.3692  1.0136
19021TIP3    H278555   2.425   2.800  16.545  0.5955 -0.2690  0.0064
19022TIP3   OH278556   0.794   3.093   6.461 -0.4778  0.1914  0.3513
19022TIP3    H178557   0.877   3.130   6.491 -1.5324  3.4755 -0.5554
19022TIP3    H278558   0.805   3.083   6.367 -0.8090 -0.1104  0.3453
19023TIP3   OH278559   2.184   1.108   2.714  0.4075 -0.0661 -0.8141
19023TIP3    H178560   2.119   1.040   2.696  0.1414 -0.8531  2.7781
19023TIP3    H278561   2.133   1.180   2.751  1.0287  1.1173 -2.2006
19024TIP3   OH278562   6.253   3.876   1.942  0.3067  0.2606  0.1309
19024TIP3    H178563   6.227   3.784   1.942 -1.0122  0.5611  3.6441
19024TIP3    H278564   6.345   3.875   1.970  0.3078 -0.0030  0.1145
19025TIP3   OH278565   6.199   2.884  15.138  0.4174  0.1107 -0.3238
19025TIP3    H178566   6.199   2.792  15.110 -0.5257 -0.1703  0.5563
19025TIP3    H278567   6.272   2.924  15.090  1.7091 -1.4135  0.3244
19026TIP3   OH278568   4.873   1.378  16.974 -0.2966  0.2252 -0.3056
19026TIP3    H178569   4.877   1.473  16.965  0.5789  0.2410  0.2245
19026TIP3    H278570   4.943   1.345  16.918  1.4528  0.0561  1.9188
19027TIP3   OH278571   2.141   1.010   6.090 -0.2881 -0.1939  0.4503
19027TIP3    H178572   2.096   1.025   6.007  1.6058 -2.1399 -0.9841
19027TIP3    H278573   2.096   0.934   6.128  0.8602 -1.2854 -0.3338
19028TIP3   OH278574   5.744   0.990  11.959  0.4485  0.6525  0.7958
19028TIP3    H178575   5.678   0.924  11.938 -0.0613  1.1957  0.6644
19028TIP3    H278576   5.744   1.049  11.883 -0.0263  1.5328  1.4808
19029TIP3   OH278577   5.073   5.453  13.161  0.3262 -0.2434  0.1705
19029TIP3    H178578   5.158   5.430  13.123  0.5861 -0.7844  1.0491
19029TIP3    H278579   5.025   5.371  13.165  0.9955 -0.5694  2.6795
19030TIP3   OH278580   1.575   1.703  14.506  0.3178  0.2161 -0.5261
19030TIP3    H178581   1.490   1.672  14.537  0.6750 -0.5246 -0.2748
19030TIP3    H278582   1.554   1.763  14.435 -0.3844 -0.9619 -1.3335
19031TIP3   OH278583   2.345   2.912  13.261  0.0094  0.0304 -0.6150
19031TIP3    H178584   2.339   2.888  13.169  0.0619  0.1668 -0.6544
19031TIP3    H278585   2.361   2.829  13.307  3.7554  0.3970 -1.0994
19032TIP3   OH278586   3.619   4.178   2.644 -0.3971  0.2238 -0.3039
19032TIP3    H178587   3.638   4.091   2.679  0.1459  1.0044  1.4094
19032TIP3    H278588   3.615   4.166   2.549 -0.1487 -1.6236 -0.0953
19033TIP3   OH278589   6.323   0.045   3.137  0.1720  0.0638  0.7402
19033TIP3    H178590   6.240   0.049   3.184  1.0845  1.6985  2.2901
19033TIP3    H278591   6.386   0.086   3.196  1.6295  0.9081 -1.3226
19034TIP3   OH278592   1.512   6.007   4.601  0.0264  1.1190 -0.0431
19034TIP3    H178593   1.528   6.090   4.644  2.3283  1.0503 -0.7212
19034TIP3    H278594   1.511   5.943   4.672 -1.2266  1.6185  0.4173
19035TIP3   OH278595   5.691   4.836   2.539  0.0624 -0.9688 -0.5231
19035TIP3    H178596   5.713   4.767   2.477  1.3919  0.2113 -1.3884
19035TIP3    H278597   5.676   4.913   2.484 -0.7350 -0.3958  0.4791
19036TIP3   OH278598   5.279   2.059   0.603  0.2051 -0.3572 -0.2436
19036TIP3    H178599   5.239   2.030   0.521  1.5484  0.4500 -1.2047
19036TIP3    H278600   5.318   2.145   0.582  0.4846 -0.1053  1.2519
19037TIP3   OH278601   5.935   1.229  11.500 -0.2854  0.2456  0.1380
19037TIP3    H178602   5.865   1.288  11.528  0.8714  1.7959 -0.1112
19037TIP3    H278603   6.003   1.288  11.467  0.7991 -1.2653 -0.3679
19038TIP3   OH278604   0.446   5.013   4.992  0.4729  0.0497 -0.0249
19038TIP3    H178605   0.462   5.056   5.076  1.6360  0.6594 -0.5416
19038TIP3    H278606   0.533   5.008   4.951  0.0676 -1.1164 -0.7681
19039TIP3   OH278607   5.864   6.786   1.240 -0.1445 -0.1386 -0.3663
19039TIP3    H178608   5.820   6.731   1.175 -1.7933  0.1493  0.4863
19039TIP3    H278609   5.887   6.726   1.311 -0.1076 -0.0970 -0.3433
19040TIP3   OH278610   5.694   1.670   4.456 -0.6722 -0.0271 -0.8216
19040TIP3    H178611   5.760   1.620   4.410  0.0886 -1.2506  1.5531
19040TIP3    H278612   5.614   1.617   4.449 -0.2100 -0.8923  0.4957
19041TIP3   OH278613   4.584   1.063  15.172  0.1637  0.0658  0.5421
19041TIP3    H178614   4.661   1.036  15.223  0.9571 -1.7118 -1.5054
19041TIP3    H278615   4.525   1.101  15.237  1.5450 -1.2141  2.6370
19042TIP3   OH278616   1.551   0.534   2.042  0.1399  0.2541  0.3454
19042TIP3    H178617   1.503   0.497   2.116  2.0580 -0.6581  1.1858
19042TIP3    H278618   1.538   0.628   2.049 -2.2323 -0.0222  0.0257
19043TIP3   OH278619   2.501   1.552  11.296  0.5752 -0.4303 -0.3127
19043TIP3    H178620   2.445   1.536  11.219 -0.1858  0.5509  0.0184
19043TIP3    H278621   2.512   1.466  11.336 -0.0743 -0.7545 -0.8178
19044TIP3   OH278622   6.694   4.797   6.045  0.6995  1.1910  0.6476
19044TIP3    H178623   6.650   4.712   6.040 -1.4813  2.4168 -2.3159
19044TIP3    H278624   6.786   4.775   6.062  0.3462 -1.8210 -0.9340
19045TIP3   OH278625   6.539   1.387   1.780  0.1497 -0.0408  0.1260
19045TIP3    H178626   6.609   1.391   1.714 -0.3687 -0.4486 -0.4597
19045TIP3    H278627   6.585   1.371   1.862  0.7513 -0.2772 -0.2463
19046TIP3   OH278628   4.483   1.423  13.169  0.0822  0.1846 -0.1182
19046TIP3    H178629   4.493   1.433  13.074  2.7982  2.7553  0.3421
19046TIP3    H278630   4.389   1.430  13.184 -0.3760  0.0020 -2.5911
19047TIP3   OH278631   2.885   2.259   4.103  0.0428  0.1348  0.1384
19047TIP3    H178632   2.790   2.264   4.118 -0.2036 -1.2586 -0.9075
19047TIP3    H278633   2.920   2.336   4.148 -1.3017 -0.6873  2.6469
19048TIP3   OH278634   4.055   5.861  16.688  0.6849 -0.2481  0.2339
19048TIP3    H178635   4.141   5.857  16.645  0.8396 -1.3901  0.6263
19048TIP3    H278636   3.992   5.855  16.616  0.8901  3.0718 -0.2886
19049TIP3   OH278637   1.682   5.921  16.144  0.1453 -0.4690  0.3989
19049TIP3    H178638   1.626   5.889  16.215 -2.3105  3.6839  0.5216
19049TIP3    H278639   1.766   5.939  16.186 -0.5897 -0.2159  1.8030
19050TIP3   OH278640   3.432   0.678   4.975  0.0320 -0.1377  0.1589
19050TIP3    H178641   3.454   0.770   4.988  0.6930 -0.3041  0.2500
19050TIP3    H278642   3.457   0.661   4.884 -0.5153 -0.1100  0.0013
19051TIP3   OH278643   2.939   2.421   1.700 -0.1116  0.5623 -0.2778
19051TIP3    H178644   3.035   2.424   1.694 -0.1486 -1.3412 -2.6113
19051TIP3    H278645   2.910   2.415   1.609 -2.4333  0.7258  0.4432
19052TIP3   OH278646   6.442   1.424   6.407 -0.7717  0.0824  0.3556
19052TIP3    H178647   6.514   1.420   6.471 -1.2026  0.9718  0.9131
19052TIP3    H278648   6.467   1.362   6.339  0.4364  0.2439  0.6397
19053TIP3   OH278649   5.746   3.143  16.653  0.5147 -0.1925  0.4016
19053TIP3    H178650   5.781   3.091  16.725 -0.7286 -0.9000  0.5099
19053TIP3    H278651   5.745   3.233  16.686  3.1959  0.0225  0.0235
19054TIP3   OH278652   3.935   3.028   1.035 -0.6541 -0.4907  0.2293
19054TIP3    H178653   3.845   3.007   1.061 -1.2464  3.1948  1.4442
19054TIP3    H278654   3.924   3.092   0.964  1.0065 -0.1863  0.2426
19055TIP3   OH278655   0.142   3.453  15.519 -0.1816 -0.5594 -0.1498
19055TIP3    H178656   0.184   3.534  15.490  0.4554 -0.3676  1.2603
19055TIP3    H278657   0.210   3.386  15.508 -0.6180 -0.8599 -1.0559
19056TIP3   OH278658   1.470   0.684  15.174  0.0275  0.3238 -0.7243
19056TIP3    H178659   1.490   0.712  15.085 -2.1181  1.7045 -0.8105
19056TIP3    H278660   1.406   0.747  15.205  1.6027  0.5725  2.2421
19057TIP3   OH278661   6.339   5.863  15.154 -0.3742  0.7972  0.3528
19057TIP3    H178662   6.421   5.863  15.204 -0.0397 -1.5118 -0.1398
19057TIP3    H278663   6.361   5.823  15.070 -1.8621  0.7311 -0.0310
19058TIP3   OH278664   6.791   5.391  15.818  0.3400  0.2234  0.5808
19058TIP3    H178665   6.720   5.378  15.755  0.9985  0.6670 -0.2585
19058TIP3    H278666   6.835   5.471  15.789  1.0724  0.0473  1.1898
19059TIP3   OH278667   2.618   1.571   0.479  0.3860 -0.0982 -0.2961
19059TIP3    H178668   2.678   1.612   0.417  0.4482  0.0194 -0.1579
19059TIP3    H278669   2.531   1.583   0.440  0.5470 -1.2783 -1.0753
19060TIP3   OH278670   3.673   5.988   5.715 -0.3030 -0.0779 -0.4565
19060TIP3    H178671   3.657   5.949   5.801 -1.6542 -0.5245 -0.9060
19060TIP3    H278672   3.744   5.935   5.678 -2.4410 -2.5025 -1.2615
19061TIP3   OH278673   5.514   4.168   0.742 -0.3914  0.4500  0.0615
19061TIP3    H178674   5.596   4.218   0.735 -0.4771  0.7252  0.9203
19061TIP3    H278675   5.505   4.125   0.657  0.6469  0.4101 -0.0368
19062TIP3   OH278676   3.259   2.284  16.241 -0.2475 -0.2069 -0.4277
19062TIP3    H178677   3.203   2.240  16.177 -0.0738 -0.5891 -0.3188
19062TIP3    H278678   3.341   2.234  16.238 -0.0609  0.0931 -0.2797
19063TIP3   OH278679   5.046   0.634  15.980 -0.4415 -0.5440  0.2114
19063TIP3    H178680   5.058   0.576  16.056  1.4672 -0.3050  0.1099
19063TIP3    H278681   5.134   0.663  15.958 -1.1687  0.7571 -1.0492
19064TIP3   OH278682   6.250   5.352  16.974  0.1087  0.1718  0.6975
19064TIP3    H178683   6.193   5.283  17.007 -0.8870 -0.6341 -2.4898
19064TIP3    H278684   6.322   5.305  16.932 -0.0458  1.0681 -0.6003
19065TIP3   OH278685   1.710   3.447   5.436 -0.3849  0.2184 -0.2303
19065TIP3    H178686   1.806   3.449   5.437 -0.3295 -1.2897 -1.0952
19065TIP3    H278687   1.688   3.357   5.460 -1.6408  1.0309  1.7987
19066TIP3   OH278688   2.302   2.984  15.420 -0.0304 -0.2017 -0.2619
19066TIP3    H178689   2.355   2.996  15.341 -0.0005  1.6437  0.0209
19066TIP3    H278690   2.223   3.036  15.404  0.1658  0.5296  1.1024
19067TIP3   OH278691   5.740   2.805   1.657 -0.0096 -0.4196  0.2668
19067TIP3    H178692   5.650   2.790   1.628  0.8316  0.6699 -3.0746
19067TIP3    H278693   5.743   2.898   1.680  0.5298 -0.1657 -0.7780
19068TIP3   OH278694   6.482   1.636  12.476  0.5092 -0.2933 -0.2813
19068TIP3    H178695   6.546   1.602  12.539  0.1623 -1.8154 -0.7206
19068TIP3    H278696   6.397   1.610  12.511  0.1622  1.1635 -0.0329
19069TIP3   OH278697   3.427   1.466  14.085 -0.2253  0.5701  0.1518
19069TIP3    H178698   3.430   1.486  14.179  0.6791  2.6080 -0.2823
19069TIP3    H278699   3.502   1.408  14.071 -0.0519  0.6846  0.5868
19070TIP3   OH278700   5.805   1.804   0.858 -0.8139 -0.0718 -0.1229
19070TIP3    H178701   5.817   1.749   0.781 -1.8893 -2.7584  1.5344
19070TIP3    H278702   5.846   1.887   0.835  0.2640 -1.3204 -2.9883
19071TIP3   OH278703   4.679   0.864   4.173 -0.1551 -0.1576  0.2318
19071TIP3    H178704   4.719   0.779   4.155  2.8973  0.8311  2.0230
19071TIP3    H278705   4.644   0.893   4.088  0.1410 -2.4663 -0.7053
19072TIP3   OH278706   0.296   4.393  15.110  0.8671 -0.4309  1.0122
19072TIP3    H178707   0.267   4.425  15.024  1.1668  1.2399  1.5013
19072TIP3    H278708   0.325   4.303  15.094 -2.0309 -1.2294 -0.0048
19073TIP3   OH278709   0.434   4.992   3.702  0.4122  0.1152 -0.3483
19073TIP3    H178710   0.466   5.002   3.612  1.4197  1.6814  0.1649
19073TIP3    H278711   0.346   5.030   3.700  0.5194  0.3526 -0.6209
19074TIP3   OH278712   0.265   0.867   4.867 -0.6837  0.8987  0.8392
19074TIP3    H178713   0.318   0.847   4.789 -1.2714 -0.7518  0.8356
19074TIP3    H278714   0.193   0.920   4.833 -1.6050 -0.8254  0.0158
19075TIP3   OH278715   5.257   1.488   2.302 -0.5926 -0.2025 -0.7962
19075TIP3    H178716   5.202   1.536   2.364 -0.3388  1.8212 -2.0967
19075TIP3    H278717   5.206   1.484   2.222 -0.3876 -1.6912 -0.8710
19076TIP3   OH278718   1.455   3.126   2.754  0.0883 -0.3549 -0.2775
19076TIP3    H178719   1.508   3.151   2.679 -1.8170  1.4285 -1.0949
19076TIP3    H278720   1.389   3.067   2.719 -0.7554  0.4152 -0.0150
19077TIP3   OH278721   2.759   5.874  14.912 -0.1216  0.3778 -0.0054
19077TIP3    H178722   2.710   5.802  14.874  1.9773 -0.5481 -0.9774
19077TIP3    H278723   2.709   5.898  14.991 -1.9224 -0.7599 -0.7818
19078TIP3   OH278724   4.920   6.590   5.060 -0.2716 -0.6841  0.0990
19078TIP3    H178725   4.959   6.509   5.028  2.2351  1.1891 -1.7422
19078TIP3    H278726   4.951   6.598   5.150 -0.8237 -1.9230  0.4097
19079TIP3   OH278727   3.095   2.588  15.148  0.1513 -0.3329  0.2242
19079TIP3    H178728   3.023   2.533  15.179 -1.8178  0.7581 -2.3022
19079TIP3    H278729   3.091   2.667  15.202 -1.7521  0.5115 -1.0865
19080TIP3   OH278730   1.310   1.871  12.404 -0.1231 -0.4222  1.0321
19080TIP3    H178731   1.367   1.875  12.481  0.4169  2.8393  0.5513
19080TIP3    H278732   1.370   1.862  12.330 -0.4134  0.0571  0.7353
19081TIP3   OH278733   0.625   2.533  10.782 -0.0406 -0.8521  0.0186
19081TIP3    H178734   0.687   2.529  10.709  0.1564  0.7751  0.0725
19081TIP3    H278735   0.680   2.549  10.859 -0.4832  0.1873  0.1249
19082TIP3   OH278736   2.170   1.084  15.340  0.3695 -0.1830 -0.0615
19082TIP3    H178737   2.081   1.055  15.362  0.5678 -1.9379 -1.4268
19082TIP3    H278738   2.217   1.003  15.320  1.5404  0.9411 -1.9877
19083TIP3   OH278739   5.140   4.865  15.033 -0.4162  0.0514 -0.5200
19083TIP3    H178740   5.064   4.873  15.091 -0.5109  1.9608 -0.8886
19083TIP3    H278741   5.203   4.929  15.065 -0.1281  0.5312 -1.9950
19084TIP3   OH278742   4.503   4.775  11.912  0.1869  0.3308 -0.4669
19084TIP3    H178743   4.523   4.737  11.997 -2.8674 -0.3810 -0.0253
19084TIP3    H278744   4.458   4.857  11.933 -0.6646  0.1027 -1.3871
19085TIP3   OH278745   6.263   4.514  15.575 -0.1500 -0.1060 -0.3995
19085TIP3    H178746   6.190   4.505  15.513 -0.3385 -0.5040 -0.1273
19085TIP3    H278747   6.221   4.538  15.658  0.0629  0.0166 -0.3275
19086TIP3   OH278748   3.690   6.465  13.032 -0.5208  0.4446 -0.1381
19086TIP3    H178749   3.662   6.380  13.066  0.3895  0.0719 -0.2971
19086TIP3    H278750   3.671   6.527  13.102 -0.5208 -0.0003  0.2565
19087TIP3   OH278751   1.781   5.954   0.193  0.2150 -0.3757 -0.3588
19087TIP3    H178752   1.776   6.015   0.266 -1.1688 -1.9214  0.8585
19087TIP3    H278753   1.774   6.010   0.115 -0.4085  1.0793  0.7114
19088TIP3   OH278754   3.325   0.442  16.363  0.6256  0.1426  0.0017
19088TIP3    H178755   3.408   0.407  16.330  0.3501  0.2212 -0.7845
19088TIP3    H278756   3.286   0.369  16.410 -0.0557 -0.7060 -1.8319
19089TIP3   OH278757   6.081   5.126   4.604 -0.0639  0.6779 -0.3265
19089TIP3    H178758   6.095   5.098   4.695  0.8571  1.3977 -0.2366
19089TIP3    H278759   6.072   5.221   4.609 -0.5998  0.6603 -0.9245
19090TIP3   OH278760   3.622   5.452   1.817 -0.0283 -0.5734  0.2839
19090TIP3    H178761   3.551   5.500   1.773  0.0502 -0.4313  0.3101
19090TIP3    H278762   3.702   5.489   1.781  0.0981  1.5690  2.5779
19091TIP3   OH278763   1.002   4.197   1.202 -0.2068 -0.5287 -0.1190
19091TIP3    H178764   1.092   4.201   1.235  0.2135  0.0565 -1.3097
19091TIP3    H278765   0.963   4.280   1.227  0.5700  0.5392 -2.3492
19092TIP3   OH278766   1.811   0.648  13.951 -0.6318 -0.2265 -0.1929
19092TIP3    H178767   1.754   0.629  13.877 -0.8008  0.4836 -0.2545
19092TIP3    H278768   1.884   0.697  13.912 -0.3018 -0.5812 -0.0203
19093TIP3   OH278769   5.621   2.933   1.228  0.2469  0.2588 -0.4510
19093TIP3    H178770   5.561   2.935   1.154  2.4001 -0.0260 -2.2387
19093TIP3    H278771   5.636   2.839   1.244 -0.7491  0.3011  0.8129
19094TIP3   OH278772   3.334   5.317  11.792 -0.2979 -0.1081 -0.1793
19094TIP3    H178773   3.333   5.329  11.887 -1.6542 -3.1786  0.2641
19094TIP3    H278774   3.241   5.309  11.769  0.1431 -2.2174 -1.3210
19095TIP3   OH278775   6.669   4.266  11.622  0.0735  0.2755  0.2573
19095TIP3    H178776   6.597   4.321  11.652 -0.6925 -0.4550 -0.2256
19095TIP3    H278777   6.626   4.190  11.582  1.1012  0.1674 -0.6575
19096TIP3   OH278778   5.960   6.100   0.975  0.4407 -0.1813 -0.0605
19096TIP3    H178779   5.996   6.049   0.902 -0.5242  0.8005 -1.2339
19096TIP3    H278780   6.031   6.159   1.001  1.0369 -1.0410  0.2977
19097TIP3   OH278781   1.046   1.059   0.025 -0.3234  0.1308 -0.2031
19097TIP3    H178782   1.035   1.139   0.076  2.6919  1.1335 -1.0230
19097TIP3    H278783   0.966   1.052  -0.026 -2.4305  0.3131  2.9758
19098TIP3   OH278784   1.478   6.019   3.414 -0.1528  0.3652 -0.4778
19098TIP3    H178785   1.469   6.031   3.319  0.0544 -1.4186 -0.7325
19098TIP3    H278786   1.392   5.991   3.444  0.1806 -0.5854 -0.3871
19099TIP3   OH278787   3.763   2.819   2.955 -0.2340 -0.1687 -0.6150
19099TIP3    H178788   3.770   2.877   3.031 -3.5971 -0.3198 -0.1279
19099TIP3    H278789   3.822   2.746   2.976 -0.0282  0.4924  1.1895
19100TIP3   OH278790   4.872   4.258  14.938 -0.6254  0.0907  0.0701
19100TIP3    H178791   4.920   4.182  14.973  0.8613  1.0003  0.0469
19100TIP3    H278792   4.857   4.235  14.846  0.7676  0.2648 -0.2149
19101TIP3   OH278793   5.880   4.284   6.792  0.1297 -0.3557 -0.0984
19101TIP3    H178794   5.919   4.295   6.705 -0.7309  1.4133 -0.2752
19101TIP3    H278795   5.817   4.213   6.781 -0.9131  0.7117 -1.2746
19102TIP3   OH278796   3.586   2.507  11.230  0.3884 -1.1880  0.0059
19102TIP3    H178797   3.591   2.412  11.217  3.0462 -1.0019 -0.6757
19102TIP3    H278798   3.672   2.531  11.263  0.9108  1.4578 -3.0405
19103TIP3   OH278799   5.085   0.950  14.806  0.2273 -0.2092 -0.1888
19103TIP3    H178800   5.016   0.971  14.744  0.2995 -1.6975 -0.7904
19103TIP3    H278801   5.067   1.005  14.882 -0.5374  0.7622 -1.0604
19104TIP3   OH278802   2.043   1.003  15.988 -0.1622  0.6288 -0.1866
19104TIP3    H178803   1.956   0.962  15.992  0.9624 -1.6970  2.0019
19104TIP3    H278804   2.029   1.084  15.939 -3.1800 -0.6604 -1.6047
19105TIP3   OH278805   5.189   1.491  17.226 -0.1378  0.6244 -0.0078
19105TIP3    H178806   5.217   1.578  17.254 -0.4838  1.9527 -3.5190
19105TIP3    H278807   5.093   1.497  17.222 -0.1911 -0.0717  0.2690
19106TIP3   OH278808   1.813   0.451   0.730 -0.1678 -0.3143 -0.1793
19106TIP3    H178809   1.845   0.497   0.808  0.8242  0.2209 -0.8787
19106TIP3    H278810   1.770   0.373   0.764  0.2581 -0.0931  0.9056
19107TIP3   OH278811   1.593   4.121  14.455  0.4473 -0.0345  0.1215
19107TIP3    H178812   1.548   4.080  14.381  1.1040 -1.8076  0.6621
19107TIP3    H278813   1.540   4.096  14.531  1.1009 -0.2481  0.5084
19108TIP3   OH278814   1.703   2.038   0.756  0.5683  0.4358 -0.2005
19108TIP3    H178815   1.753   2.118   0.771 -0.3286  1.4687 -2.3918
19108TIP3    H278816   1.766   1.976   0.720  1.1101  0.3868  0.8224
19109TIP3   OH278817   5.310   2.765  17.117  0.4453  0.0683  0.1343
19109TIP3    H178818   5.349   2.704  17.054 -0.8152 -0.6192 -0.0049
19109TIP3    H278819   5.310   2.849  17.072  1.4204  0.0046  0.0013
19110TIP3   OH278820   0.570   4.160   2.694 -0.4402  0.2566 -0.0181
19110TIP3    H178821   0.545   4.069   2.711  1.3305 -0.7085 -2.3149
19110TIP3    H278822   0.511   4.211   2.749 -1.2116 -2.2787  1.6247
19111TIP3   OH278823   1.441   3.248   1.282 -0.0148  0.9628 -0.1857
19111TIP3    H178824   1.357   3.287   1.305 -0.0784  1.6456 -1.5147
19111TIP3    H278825   1.422   3.195   1.204  0.2045 -1.2387  1.1937
19112TIP3   OH278826   3.145   6.363   2.763  0.2692 -0.0149 -0.0155
19112TIP3    H178827   3.068   6.365   2.820  0.8085  0.0594  0.7191
19112TIP3    H278828   3.219   6.374   2.822  0.7283  2.7803 -1.0179
19113TIP3   OH278829   3.997   2.187   0.171 -0.6548 -0.1688 -0.3390
19113TIP3    H178830   3.926   2.138   0.213 -0.2372 -0.5435 -0.0588
19113TIP3    H278831   4.003   2.152   0.083 -0.2133 -0.7819 -0.0699
19114TIP3   OH278832   3.346   2.595  13.333 -0.2980 -0.3229 -0.0753
19114TIP3    H178833   3.347   2.618  13.426 -0.6611 -1.4079  0.2037
19114TIP3    H278834   3.406   2.658  13.292  0.8452 -0.6388  1.0766
19115TIP3   OH278835   5.392   4.548  11.814 -0.0807  0.3310 -0.1491
19115TIP3    H178836   5.385   4.554  11.718  3.3900  0.5889 -0.4572
19115TIP3    H278837   5.438   4.628  11.840 -1.7516  0.6772  1.8672
19116TIP3   OH278838   0.542   6.585  16.615 -0.3689 -0.3921 -0.4054
19116TIP3    H178839   0.515   6.668  16.654 -1.3744 -0.2513 -1.4035
19116TIP3    H278840   0.608   6.609  16.549 -0.4470 -0.4146 -0.4910
19117TIP3   OH278841   6.116   6.498   5.659 -0.1181  1.1428 -0.0080
19117TIP3    H178842   6.027   6.486   5.693  0.0569  1.2232  0.4767
19117TIP3    H278843   6.127   6.593   5.653  0.4904  1.1657  1.4032
19118TIP3   OH278844   5.603   2.241  13.696 -0.6220 -0.4128  0.1872
19118TIP3    H178845   5.584   2.159  13.652  1.2370 -0.7024 -0.1086
19118TIP3    H278846   5.519   2.268  13.734 -0.9842 -3.1004  1.4060
19119TIP3   OH278847   1.488   3.078  13.631  0.2622 -0.9024  0.1226
19119TIP3    H178848   1.433   3.072  13.553  1.8200 -0.2390 -1.0347
19119TIP3    H278849   1.548   3.004  13.625  1.1386 -0.2018  0.0881
19120TIP3   OH278850   3.266   3.588   5.107 -0.4236 -0.1142  0.0397
19120TIP3    H178851   3.361   3.593   5.114 -0.3840 -0.7207 -0.0357
19120TIP3    H278852   3.233   3.623   5.189 -0.1269 -0.0742  0.1400
19121TIP3   OH278853   3.991   0.998   4.619  0.3655 -0.1227 -0.5200
19121TIP3    H178854   3.940   0.930   4.573  1.0966 -1.2412  0.2850
19121TIP3    H278855   4.039   0.949   4.686  2.2712  0.9614 -1.0739
19122TIP3   OH278856   3.014   1.445  15.959 -0.1944  0.4247 -0.0006
19122TIP3    H178857   2.932   1.462  16.005  0.1812  1.6268  0.2524
19122TIP3    H278858   2.990   1.446  15.866 -0.7566 -0.9058  0.1225
19123TIP3   OH278859   4.750   4.140   1.855 -0.0506 -0.3089 -0.4047
19123TIP3    H178860   4.818   4.073   1.866 -0.5502 -0.5285  1.5872
19123TIP3    H278861   4.692   4.105   1.788 -0.6822 -2.2268  1.0953
19124TIP3   OH278862   1.802   1.489   5.434  0.0807  0.4141 -0.8225
19124TIP3    H178863   1.887   1.512   5.396  0.3342 -0.6779 -0.9340
19124TIP3    H278864   1.742   1.489   5.359  0.2821 -0.2638 -0.9878
19125TIP3   OH278865   4.024   0.799  16.255  0.1316  0.2505 -0.2472
19125TIP3    H178866   4.041   0.749  16.175 -1.3950 -0.2023 -0.2920
19125TIP3    H278867   4.094   0.772  16.315  1.7767  1.1927 -1.6729
19126TIP3   OH278868   2.025   0.808  14.486  0.0318 -0.2247 -0.3574
19126TIP3    H178869   2.064   0.726  14.455  2.0084 -0.1594  1.8078
19126TIP3    H278870   2.095   0.873  14.475 -0.1027  0.3042  1.7336
19127TIP3   OH278871   0.613   3.751  12.062  0.1249 -0.3673 -0.3912
19127TIP3    H178872   0.690   3.808  12.053 -1.8653  2.1268 -2.2597
19127TIP3    H278873   0.551   3.783  11.997 -3.0856 -1.4187  1.9984
19128TIP3   OH278874   4.436   3.113  15.594  0.3410  0.1397  0.3873
19128TIP3    H178875   4.494   3.046  15.556 -2.0236 -0.8443 -1.5482
19128TIP3    H278876   4.443   3.187  15.535 -1.6546 -0.6010 -0.8105
19129TIP3   OH278877   2.780   5.993   6.005  0.1288 -0.4827 -0.0182
19129TIP3    H178878   2.721   6.068   5.996 -0.3372 -0.8451  0.0066
19129TIP3    H278879   2.867   6.032   6.019 -0.5494  0.0861  2.9958
19130TIP3   OH278880   4.302   5.376   1.859 -0.3438 -0.4563 -0.0101
19130TIP3    H178881   4.365   5.448   1.863  0.9660 -1.6620  1.8277
19130TIP3    H278882   4.351   5.303   1.822 -0.6944 -1.3610  1.2708
19131TIP3   OH278883   3.194   5.191   0.393 -0.4863 -0.0456 -0.3187
19131TIP3    H178884   3.284   5.164   0.377 -0.8868 -0.3393 -2.1587
19131TIP3    H278885   3.142   5.145   0.327 -1.7465  1.6129 -0.5316
19132TIP3   OH278886   5.101   0.957   3.531  0.4800  0.5121 -0.0030
19132TIP3    H178887   5.146   0.877   3.558  0.7499  0.5850 -0.2298
19132TIP3    H278888   5.081   0.943   3.438 -0.1276  0.4049  0.1401
19133TIP3   OH278889   2.357   6.127   0.262 -0.6399 -0.3438  0.1831
19133TIP3    H178890   2.348   6.138   0.357 -0.6555 -1.9853  0.3777
19133TIP3    H278891   2.434   6.180   0.240  0.4796 -1.4166  1.4048
19134TIP3   OH278892   6.197   4.572   4.979  0.1848 -0.0244 -0.8138
19134TIP3    H178893   6.121   4.551   5.034 -1.2859  1.5875 -2.1869
19134TIP3    H278894   6.272   4.561   5.037 -1.1923 -0.2592  0.9767
19135TIP3   OH278895   5.627   6.439   0.613 -0.0763 -0.5946  0.3470
19135TIP3    H178896   5.721   6.445   0.627 -0.0715  1.3573 -0.3765
19135TIP3    H278897   5.590   6.510   0.665 -1.0854 -0.8986  0.0616
19136TIP3   OH278898   4.633   2.703  12.700  0.4478  0.4344  0.0035
19136TIP3    H178899   4.704   2.729  12.641 -0.0424 -1.0442 -1.2946
19136TIP3    H278900   4.564   2.670  12.642 -1.8708  3.0683  1.1610
19137TIP3   OH278901   5.522   4.801  15.884  0.1660 -0.5794 -0.6660
19137TIP3    H178902   5.514   4.751  15.965  0.3383  0.1779 -0.1796
19137TIP3    H278903   5.591   4.757  15.835  1.3549  0.0633  0.4115
19138TIP3   OH278904   0.311   1.096   3.365 -0.2560 -0.5854 -0.0103
19138TIP3    H178905   0.328   1.190   3.361 -0.0735 -0.6118  0.1672
19138TIP3    H278906   0.234   1.088   3.421 -0.9619 -0.4527 -0.9558
19139TIP3   OH278907   5.427   6.426   3.726 -0.0033 -0.0541  0.8343
19139TIP3    H178908   5.505   6.473   3.755  1.9568 -1.7349 -1.4983
19139TIP3    H278909   5.423   6.444   3.632 -1.8037 -0.9240  0.7254
19140TIP3   OH278910   5.588   5.574   0.608  0.2246  0.0450  0.3436
19140TIP3    H178911   5.605   5.522   0.530 -0.2642  0.5790 -0.1225
19140TIP3    H278912   5.657   5.549   0.670 -0.4923 -1.7462  0.4240
19141TIP3   OH278913   6.708   6.757   0.636  0.8594  0.5150  0.1487
19141TIP3    H178914   6.803   6.747   0.640  0.8193  0.4955  1.1095
19141TIP3    H278915   6.694   6.825   0.570  1.4888 -0.2535 -0.7852
19142TIP3   OH278916   1.024   2.891   2.640  0.1617 -0.5013 -0.7426
19142TIP3    H178917   1.018   2.940   2.558  1.2705  1.0227  0.0617
19142TIP3    H278918   0.933   2.876   2.666 -0.1933 -0.7649 -2.0994
19143TIP3   OH278919   2.354   0.578   3.437  0.1440 -0.5469 -0.0352
19143TIP3    H178920   2.418   0.642   3.406  0.9014 -0.8626  0.8322
19143TIP3    H278921   2.360   0.583   3.533 -0.1167 -1.5944  0.0433
19144TIP3   OH278922   2.217   4.723  11.481 -0.0383 -0.4369  0.0902
19144TIP3    H178923   2.287   4.778  11.514 -0.2402  1.1495 -2.0452
19144TIP3    H278924   2.142   4.743  11.537  0.4529 -0.0867  0.6242
19145TIP3   OH278925   0.932   6.707   1.352 -0.0358  0.3836 -0.1593
19145TIP3    H178926   1.017   6.681   1.315 -0.4239 -0.4252 -0.4953
19145TIP3    H278927   0.878   6.628   1.345 -1.4053  1.4232 -1.7306
19146TIP3   OH278928   5.169   1.960  16.147  0.1089  0.0453  0.2664
19146TIP3    H178929   5.227   1.927  16.080  1.6777  1.4876  0.8654
19146TIP3    H278930   5.201   1.922  16.229 -0.3045  0.1654  0.4900
19147TIP3   OH278931   0.590   6.430  11.869 -0.2897  0.3778 -0.0420
19147TIP3    H178932   0.584   6.515  11.913  0.5633 -0.0321  0.8798
19147TIP3    H278933   0.626   6.371  11.936  1.2543 -0.2031 -1.3686
19148TIP3   OH278934   4.303   0.927   2.338 -0.3370 -0.0064 -0.3707
19148TIP3    H178935   4.338   0.937   2.249  1.7908 -0.3868  0.4038
19148TIP3    H278936   4.272   0.836   2.342  1.3399 -0.5741 -0.1180
19149TIP3   OH278937   4.918   1.618   3.956 -0.4304 -0.1955  0.2425
19149TIP3    H178938   4.935   1.697   3.905  1.5813 -0.3277  0.6709
19149TIP3    H278939   4.892   1.553   3.891 -0.5072  0.3631 -0.2923
19150TIP3   OH278940   4.793   5.614  17.123 -0.4749  0.2672  0.2858
19150TIP3    H178941   4.834   5.687  17.076 -0.2778 -0.1396 -0.1767
19150TIP3    H278942   4.728   5.580  17.062 -0.9124  0.3663  0.6928
19151TIP3   OH278943   4.425   4.345  14.282 -0.2215  0.2390  0.6182
19151TIP3    H178944   4.410   4.418  14.342 -1.3995  0.1148  0.4890
19151TIP3    H278945   4.381   4.372  14.201 -0.1032 -0.3264  0.3692
19152TIP3   OH278946   6.581   3.417   4.003 -0.3165 -0.0691 -0.4084
19152TIP3    H178947   6.526   3.349   4.041  0.4809 -1.8635 -2.3310
19152TIP3    H278948   6.634   3.371   3.938  0.3998  2.3617 -1.6204
19153TIP3   OH278949   0.045   3.233   5.216  0.5747 -0.3937 -0.0368
19153TIP3    H178950  -0.025   3.285   5.253  0.0727 -0.6921 -0.5526
19153TIP3    H278951   0.014   3.143   5.222  1.6628 -0.6972  1.3489
19154TIP3   OH278952   6.736   2.655   1.868  0.2428 -0.0742 -0.1413
19154TIP3    H178953   6.654   2.609   1.852  0.8487 -0.5248 -2.0101
19154TIP3    H278954   6.799   2.587   1.889  0.5984  0.1133 -0.6030
19155TIP3   OH278955   4.668   4.084  12.753 -0.2942  0.0417  0.0371
19155TIP3    H178956   4.611   4.021  12.796 -1.0044  0.9650  0.4867
19155TIP3    H278957   4.704   4.136  12.825 -0.7110  0.9604 -0.4118
19156TIP3   OH278958   1.909   4.307   1.455  0.5777 -0.0533  0.4476
19156TIP3    H178959   1.912   4.282   1.363  0.5689  0.7756  0.2177
19156TIP3    H278960   1.839   4.253   1.492  0.8044 -0.6199  0.0375
19157TIP3   OH278961   6.625   1.268   4.615 -0.0870  0.1551  0.7203
19157TIP3    H178962   6.561   1.318   4.666 -0.4209 -0.1349  0.5891
19157TIP3    H278963   6.582   1.252   4.531  0.1365 -0.0899  0.6522
19158TIP3   OH278964   2.335   0.091   0.350  0.2194  0.5818 -0.0758
19158TIP3    H178965   2.326   0.168   0.405  0.1729 -0.3203  1.1918
19158TIP3    H278966   2.430   0.078   0.343  0.2183  0.4738  0.1081
19159TIP3   OH278967   1.816   0.922   5.779  0.2117  0.1014 -0.1899
19159TIP3    H178968   1.897   0.948   5.822 -0.7611  0.8928  1.1952
19159TIP3    H278969   1.779   1.005   5.747  0.5682 -0.3951 -1.9594
19160TIP3   OH278970   3.117   1.456  16.610  0.2914  0.3378  0.0490
19160TIP3    H178971   3.025   1.473  16.588 -0.1073  0.4455  1.7557
19160TIP3    H278972   3.116   1.372  16.655  1.2981 -0.5967 -1.6255
19161TIP3   OH278973   1.919   0.126   1.865 -0.1343  0.3814 -0.1883
19161TIP3    H178974   1.919   0.030   1.861 -3.7699  0.4212 -4.5874
19161TIP3    H278975   1.841   0.148   1.915 -0.2007  1.0757 -0.5995
19162TIP3   OH278976   3.012   6.713   2.289 -0.6021  0.1863 -0.2915
19162TIP3    H178977   3.005   6.802   2.324  1.7015  0.4094 -0.3164
19162TIP3    H278978   3.029   6.659   2.366  2.6629  0.4370 -0.7615
19163TIP3   OH278979   1.942   6.754  13.759  0.4440 -0.5445  0.7098
19163TIP3    H178980   1.865   6.704  13.784  0.7108  0.2960  3.3163
19163TIP3    H278981   2.010   6.727  13.821  1.9454 -0.4335 -0.8325
19164TIP3   OH278982   5.468   6.656   5.625 -0.4709  0.0507 -1.0176
19164TIP3    H178983   5.545   6.705   5.597 -0.6655  0.6949 -0.4189
19164TIP3    H278984   5.474   6.653   5.720 -1.3492  0.3679 -0.9484
19165TIP3   OH278985   0.348   1.422   4.805 -0.0880 -0.4395  0.6059
19165TIP3    H178986   0.413   1.352   4.814 -0.6962 -0.8226  2.1483
19165TIP3    H278987   0.326   1.446   4.895 -2.2595 -0.4858  0.1034
19166TIP3   OH278988   2.280   2.912   1.160  0.2431  0.1173  0.0090
19166TIP3    H178989   2.205   2.866   1.196  0.6355 -1.4966 -1.2001
19166TIP3    H278990   2.242   2.973   1.097 -0.1878  0.7108  0.8286
19167TIP3   OH278991   1.850   1.127  14.509  0.0882  0.2347 -0.2632
19167TIP3    H178992   1.849   1.172  14.594 -0.0462  0.4863 -0.3993
19167TIP3    H278993   1.879   1.193  14.447  0.9709 -0.1645 -0.2909
19168TIP3   OH278994   2.618   4.036   1.138 -0.0070  0.4282  0.6262
19168TIP3    H178995   2.660   4.121   1.128 -0.0554  0.4779  0.8335
19168TIP3    H278996   2.596   4.009   1.049 -3.6076  2.4791  0.7887
19169TIP3   OH278997   3.479   4.122  12.712  0.0580 -0.3821 -0.0523
19169TIP3    H178998   3.469   4.111  12.617 -1.7618 -0.0557  0.0771
19169TIP3    H278999   3.391   4.110  12.747  0.6750 -0.2891  1.5912
19170TIP3   OH279000   5.284   4.006  12.057 -0.9231  0.4149  0.1523
19170TIP3    H179001   5.340   3.941  12.015 -2.5235 -0.3728 -0.7991
19170TIP3    H279002   5.263   3.968  12.142 -2.7246 -0.8103 -0.8277
19171TIP3   OH279003   1.148   6.487  12.416 -0.7171 -0.1070  0.3394
19171TIP3    H179004   1.055   6.465  12.422 -0.8749 -0.0918 -1.7841
19171TIP3    H279005   1.192   6.415  12.462 -1.6197 -1.7167 -1.2532
19172TIP3   OH279006   0.490   3.896  15.012 -0.3176  0.4360  0.4378
19172TIP3    H179007   0.459   3.819  15.061  0.9901  0.0039  0.5927
19172TIP3    H279008   0.547   3.860  14.945 -0.9338  1.1601 -0.4810
19173TIP3   OH279009   6.372   0.754  14.907  0.1022  0.0872 -0.1483
19173TIP3    H179010   6.364   0.810  14.830  0.0908  2.0231  1.2200
19173TIP3    H279011   6.300   0.692  14.899 -0.1792  0.5602 -1.4564
19174TIP3   OH279012   0.928   2.075  16.016 -0.9466  0.1016 -0.0820
19174TIP3    H179013   0.856   2.138  16.004 -0.6966  0.4928  0.4410
19174TIP3    H279014   1.005   2.120  15.982 -0.5185  0.6221  1.5422
19175TIP3   OH279015   3.838   0.786   4.556  0.5883  0.5121 -0.3538
19175TIP3    H179016   3.787   0.721   4.508  1.2733 -0.9941  0.8892
19175TIP3    H279017   3.846   0.750   4.645  2.4077  1.4815 -0.0851
19176TIP3   OH279018   5.679   1.824  14.591  0.0926 -0.3002 -0.6230
19176TIP3    H179019   5.727   1.858  14.516 -1.9233  0.9841 -1.3577
19176TIP3    H279020   5.653   1.736  14.566  2.0312 -1.0190 -0.2095
19177TIP3   OH279021   3.506   4.424  12.696  0.1291  0.0542 -0.2716
19177TIP3    H179022   3.469   4.337  12.678 -0.4874  0.3180 -0.3077
19177TIP3    H279023   3.600   4.410  12.701 -0.0058 -0.6923  0.1735
19178TIP3   OH279024   1.481   2.233   3.291 -0.5997 -0.4572 -0.0199
19178TIP3    H179025   1.468   2.325   3.317  0.4813 -0.4439  0.5173
19178TIP3    H279026   1.522   2.193   3.368  0.1255 -1.0726 -0.7318
19179TIP3   OH279027   5.269   0.435  16.802  0.2843  0.7200  0.0524
19179TIP3    H179028   5.208   0.463  16.869  1.3630  0.7428  1.0444
19179TIP3    H279029   5.240   0.347  16.779  0.7013  0.1885  1.5133
19180TIP3   OH279030   1.977   0.541  12.061 -0.3558 -0.4058  0.6947
19180TIP3    H179031   2.069   0.549  12.038 -0.5513  0.9138  0.3012
19180TIP3    H279032   1.934   0.516  11.979 -0.6041  0.9807  0.3839
19181TIP3   OH279033   4.838   1.258  12.088  0.1416 -0.1815  0.0240
19181TIP3    H179034   4.854   1.345  12.124  0.7442  0.2106 -1.1739
19181TIP3    H279035   4.744   1.257  12.068  0.4129  0.7303 -1.3423
19182TIP3   OH279036   0.456   0.842   6.454 -0.6221 -0.1312 -0.3849
19182TIP3    H179037   0.416   0.923   6.423  0.9447  0.6842 -0.3291
19182TIP3    H279038   0.384   0.778   6.454 -1.7667  1.1294 -0.8628
19183TIP3   OH279039   1.212   2.678   3.139  0.8060  0.9192 -0.0841
19183TIP3    H179040   1.296   2.641   3.112  1.7354  2.1637  1.0415
19183TIP3    H279041   1.185   2.623   3.213 -0.1222 -0.4109 -1.3789
19184TIP3   OH279042   3.878   3.365   2.300 -0.0436 -0.4894 -1.1036
19184TIP3    H179043   3.924   3.426   2.357 -2.4739 -0.4104  0.8464
19184TIP3    H279044   3.895   3.279   2.339  1.9725 -0.9306 -2.8733
19185TIP3   OH279045   0.119   0.391   2.905  0.3405  0.1044 -0.3731
19185TIP3    H179046   0.150   0.478   2.928  1.2865  0.3579 -2.4510
19185TIP3    H279047   0.167   0.332   2.963  0.2507  0.9285  0.5318
19186TIP3   OH279048   2.116   5.382  16.922 -0.6243  0.3057 -0.3489
19186TIP3    H179049   2.205   5.356  16.901 -0.8658  0.0469 -1.0616
19186TIP3    H279050   2.094   5.330  16.999 -0.6272 -0.6280 -0.9703
19187TIP3   OH279051   4.860   4.573  16.750  0.2805 -0.2427 -0.1341
19187TIP3    H179052   4.898   4.624  16.678 -0.5621  2.5060  1.2850
19187TIP3    H279053   4.771   4.553  16.720  0.3659 -0.2386 -0.3951
19188TIP3   OH279054   4.555   6.754   5.537  0.5907  0.6067  0.4641
19188TIP3    H179055   4.485   6.691   5.525  1.0948  0.1628 -0.1488
19188TIP3    H279056   4.542   6.818   5.467  0.8919  0.4361  0.2512
19189TIP3   OH279057   0.259   2.808  12.825 -0.3335  0.1686 -0.2071
19189TIP3    H179058   0.272   2.817  12.731  3.0916 -0.7906  0.1267
19189TIP3    H279059   0.293   2.890  12.862  2.3621 -1.2069  0.4786
19190TIP3   OH279060   6.154   4.354  15.339  0.1384 -0.0243  0.3204
19190TIP3    H179061   6.176   4.261  15.339  0.1387 -0.0241  0.4025
19190TIP3    H279062   6.077   4.360  15.396  1.4412  0.3305  2.0985
19191TIP3   OH279063   4.265   3.587  14.411 -0.3842 -0.1833  0.3567
19191TIP3    H179064   4.309   3.640  14.345 -1.6026 -1.5314 -1.5768
19191TIP3    H279065   4.328   3.582  14.483  1.0134  1.2050 -0.7361
19192TIP3   OH279066   4.512   2.362   5.640 -0.1333 -0.4938 -0.5585
19192TIP3    H179067   4.533   2.399   5.554 -0.5699  0.2053 -0.3665
19192TIP3    H279068   4.588   2.385   5.694  0.2035 -1.0514 -0.7828
19193TIP3   OH279069   4.839   3.055   6.292  0.3058  0.3849 -0.1265
19193TIP3    H179070   4.788   2.977   6.270 -2.1727  1.9877 -0.3059
19193TIP3    H279071   4.848   3.102   6.210  1.6327  0.4029  0.0140
19194TIP3   OH279072   5.211   5.586   3.613  0.1163 -0.8933 -0.4887
19194TIP3    H179073   5.199   5.665   3.666 -1.3153 -0.1784 -1.8408
19194TIP3    H279074   5.305   5.582   3.596 -0.0350  1.6036 -2.0308
19195TIP3   OH279075   0.076   2.273  15.327 -0.0899 -0.2326  0.0817
19195TIP3    H179076   0.113   2.231  15.249 -2.5054 -1.3535 -0.4947
19195TIP3    H279077   0.096   2.366  15.315 -0.2705 -0.4091 -1.7799
19196TIP3   OH279078   6.024   5.626   5.485 -0.2989 -0.2126 -0.5583
19196TIP3    H179079   6.057   5.705   5.443  1.2615 -0.5882 -0.0660
19196TIP3    H279080   6.084   5.611   5.558 -0.6944 -1.7253 -0.5257
19197TIP3   OH279081   1.510   3.739  13.384  0.0345 -0.2180 -0.4815
19197TIP3    H179082   1.431   3.743  13.331  0.3148  0.6406 -0.8543
19197TIP3    H279083   1.566   3.675  13.341  0.2841  0.5176 -1.2704
19198TIP3   OH279084   2.089   5.362   5.229 -0.0881 -0.0583  0.1669
19198TIP3    H179085   1.994   5.374   5.218 -0.1547 -0.9255 -0.2385
19198TIP3    H279086   2.113   5.300   5.161  1.2113  1.9927 -1.3070
19199TIP3   OH279087   3.536   5.739  16.016 -0.0263  0.6941 -0.1019
19199TIP3    H179088   3.532   5.776  15.928 -0.1092  0.2981 -0.2646
19199TIP3    H279089   3.601   5.669  16.010 -1.0086 -0.2210 -0.1738
19200TIP3   OH279090   1.282   2.852  10.779 -0.0944 -0.3858  0.1791
19200TIP3    H179091   1.366   2.887  10.807 -0.1329 -0.0544 -0.1245
19200TIP3    H279092   1.217   2.912  10.815 -0.2597 -1.1813  1.2514
19201TIP3   OH279093   4.058   2.318  15.073  0.3047 -0.2051 -0.2496
19201TIP3    H179094   4.116   2.363  15.134  0.1583 -0.7850  0.3194
19201TIP3    H279095   4.081   2.354  14.987 -0.1746  1.3359  0.2557
19202TIP3   OH279096   0.892   4.200   6.173  0.3639 -0.1032 -0.3428
19202TIP3    H179097   0.933   4.284   6.152  2.1071 -0.2380  2.3006
19202TIP3    H279098   0.963   4.136   6.162  0.9646 -0.3503  4.2242
19203TIP3   OH279099   1.362   3.932   3.947  0.3686 -0.2646  0.2080
19203TIP3    H179100   1.302   3.957   4.017  0.2990  0.6833 -0.1771
19203TIP3    H279101   1.340   3.841   3.928 -0.0040 -0.3508  1.0171
19204TIP3   OH279102   4.165   5.210  12.698 -0.3081 -0.1967  0.2013
19204TIP3    H179103   4.237   5.148  12.692 -0.2473 -0.1925  0.8577
19204TIP3    H279104   4.143   5.213  12.791 -1.9733 -1.1299 -0.1393
19205TIP3   OH279105   5.840   3.411   2.236  0.6580  0.2896  0.6530
19205TIP3    H179106   5.818   3.447   2.322  1.0977 -0.7992  1.2291
19205TIP3    H279107   5.834   3.316   2.247 -1.4120  0.1754 -1.0913
19206TIP3   OH279108   2.121   4.757   3.669  0.2501  0.5105  0.1224
19206TIP3    H179109   2.202   4.793   3.705  0.2641  0.3768  0.2257
19206TIP3    H279110   2.085   4.704   3.740  1.4866 -1.7062 -0.8713
19207TIP3   OH279111   3.207   5.924  11.543  0.1207 -0.4329  0.3156
19207TIP3    H179112   3.239   5.835  11.552  0.7227 -0.2268  0.2564
19207TIP3    H279113   3.224   5.947  11.452 -1.0308 -0.6345  0.0380
19208TIP3   OH279114   4.524   2.909  12.422  0.4125  0.0418 -0.5472
19208TIP3    H179115   4.463   2.846  12.460  1.0626  0.5012  1.3125
19208TIP3    H279116   4.611   2.877  12.449  0.6912  2.3245  1.4281
19209TIP3   OH279117   6.159   6.315  13.171  0.1051 -0.2229  0.4416
19209TIP3    H179118   6.229   6.379  13.182  1.3483 -1.2839 -1.2648
19209TIP3    H279119   6.129   6.297  13.261  1.2399  1.0626  1.0869
19210TIP3   OH279120   0.310   0.162  15.423 -0.4638  0.0125 -0.3876
19210TIP3    H179121   0.283   0.092  15.482 -0.4778 -0.8823 -1.4313
19210TIP3    H279122   0.364   0.118  15.357 -0.2636  1.0292 -0.9130
19211TIP3   OH279123   0.071   0.103  12.926 -0.7630 -0.3843  0.3864
19211TIP3    H179124   0.087   0.017  12.966  0.5554  0.1429  1.0081
19211TIP3    H279125   0.117   0.165  12.982 -0.8640  0.6278 -0.6309
19212TIP3   OH279126   4.774   0.535  13.264  0.2963 -0.5456  0.0453
19212TIP3    H179127   4.739   0.449  13.287 -0.6371 -0.5856 -1.4650
19212TIP3    H279128   4.860   0.537  13.305 -0.0206 -1.8623  0.8137
19213TIP3   OH279129   4.216   4.703  17.254  0.2739  0.2925 -0.1453
19213TIP3    H179130   4.169   4.725  17.174 -0.2416 -1.3644 -0.3068
19213TIP3    H279131   4.147   4.679  17.317  0.7162  0.8548  0.5657
19214TIP3   OH279132   2.102   0.229  15.581  0.3913 -0.0032 -0.0456
19214TIP3    H179133   2.175   0.224  15.642  0.1077 -0.6953  0.2473
19214TIP3    H279134   2.025   0.242  15.638  0.1623 -0.3434 -0.2798
19215TIP3   OH279135   5.307   2.052  14.154  0.0860 -0.2380  0.5008
19215TIP3    H179136   5.241   2.054  14.084  0.2872 -0.7444  0.2957
19215TIP3    H279137   5.313   1.960  14.178  1.4290 -0.3242 -0.1487
19216TIP3   OH279138   4.664   6.213  15.590  0.9757 -0.0494 -0.0927
19216TIP3    H179139   4.644   6.295  15.636 -0.1226  0.7419 -1.9552
19216TIP3    H279140   4.729   6.237  15.525 -0.1426 -0.4075 -1.3747
19217TIP3   OH279141   3.916   3.298  12.097 -0.1157 -0.2932 -0.2507
19217TIP3    H179142   3.905   3.364  12.166  0.3102  0.3257 -0.7634
19217TIP3    H279143   3.957   3.346  12.025  0.0100 -1.0787 -0.7053
19218TIP3   OH279144   5.344   4.370   1.789  0.5065  0.1542 -0.2479
19218TIP3    H179145   5.395   4.370   1.709  3.6349  3.0839  1.6167
19218TIP3    H279146   5.394   4.316   1.850 -0.5911 -0.0579  0.4841
19219TIP3   OH279147   4.362   5.292  13.498  0.0556 -0.3448  0.3816
19219TIP3    H179148   4.290   5.354  13.488 -0.6990 -1.3566 -0.4812
19219TIP3    H279149   4.320   5.209  13.521  0.9709 -0.8515  0.2600
19220TIP3   OH279150   4.130   6.743   2.844 -0.1367  0.0568 -0.7203
19220TIP3    H179151   4.209   6.701   2.810  1.3127  1.5257  0.7130
19220TIP3    H279152   4.136   6.834   2.813  0.5355  1.0705  2.2358
19221TIP3   OH279153   5.689   5.806  11.698 -0.4478  0.3176  0.8547
19221TIP3    H179154   5.715   5.805  11.606  1.0354  1.1888  1.2443
19221TIP3    H279155   5.617   5.743  11.704  0.0110 -0.3622 -0.7242
19222TIP3   OH279156   4.591   5.156   4.328 -0.7162 -0.0345 -0.0601
19222TIP3    H179157   4.542   5.177   4.249  0.3407 -0.3114 -0.7961
19222TIP3    H279158   4.674   5.120   4.296 -0.3535 -0.3104  1.1684
19223TIP3   OH279159   0.396   2.879   1.719 -0.4973 -0.4052 -0.8842
19223TIP3    H179160   0.379   2.804   1.662 -0.6281 -1.2344  0.2486
19223TIP3    H279161   0.485   2.866   1.750 -1.2663 -1.2281  1.0223
19224TIP3   OH279162   5.153   0.977   6.549  0.1890  0.3379  0.5211
19224TIP3    H179163   5.135   1.056   6.496  2.7601  0.3297 -0.4557
19224TIP3    H279164   5.132   0.904   6.491  0.5351  0.3214  0.4153
19225TIP3   OH279165   1.884   2.715  17.226  0.0677  0.1507 -0.1731
19225TIP3    H179166   1.833   2.750  17.299 -0.2492 -2.0787  0.7104
19225TIP3    H279167   1.964   2.768  17.226 -0.8440  1.5664  0.4311
19226TIP3   OH279168   3.237   1.255   0.717  0.0216 -0.8217 -0.5947
19226TIP3    H179169   3.170   1.321   0.702  1.1435  1.3393  3.2701
19226TIP3    H279170   3.209   1.210   0.797  1.6945 -1.8676 -0.5667
19227TIP3   OH279171   5.458   1.309  16.626 -1.6978  0.0525  0.1660
19227TIP3    H179172   5.507   1.272  16.699 -3.6260  1.2468  2.1006
19227TIP3    H279173   5.521   1.365  16.581 -0.0957 -1.8314  0.0087
19228TIP3   OH279174   5.458   5.379   4.067 -0.1225 -0.3140  0.4000
19228TIP3    H179175   5.546   5.398   4.100 -0.2640  0.1702  0.4963
19228TIP3    H279176   5.462   5.286   4.043  0.6233 -0.1135 -0.2680
19229TIP3   OH279177   6.257   2.743  11.806 -0.0822  0.0611  0.2126
19229TIP3    H179178   6.174   2.784  11.831 -1.5763 -2.8013  0.1033
19229TIP3    H279179   6.255   2.741  11.710 -0.3154 -0.8100  0.2302
19230TIP3   OH279180   1.888   4.539   5.466  0.4774  0.2156 -0.4163
19230TIP3    H179181   1.976   4.517   5.496  1.3709  3.7377 -0.1648
19230TIP3    H279182   1.842   4.567   5.545 -0.1997  0.3283 -0.8455
19231TIP3   OH279183   4.473   5.085   6.226 -0.0804  0.3548  0.1772
19231TIP3    H179184   4.477   5.052   6.136 -0.2430  0.0347  0.2854
19231TIP3    H279185   4.391   5.050   6.261 -0.2479  0.8660  0.3001
19232TIP3   OH279186   0.969   2.472   4.523 -0.2718  0.7096 -0.4437
19232TIP3    H179187   0.908   2.529   4.569 -1.4045 -0.1678 -0.8456
19232TIP3    H279188   1.006   2.526   4.453  0.8129  1.7961  0.9179
19233TIP3   OH279189   5.261   5.758  14.688 -0.1328 -0.3756  0.1355
19233TIP3    H179190   5.193   5.702  14.651 -2.4750  0.4442  3.0291
19233TIP3    H279191   5.299   5.706  14.759  0.9789 -0.0829 -0.2295
19234TIP3   OH279192   1.894   2.355  14.872  0.0210 -0.3842  0.1402
19234TIP3    H179193   1.932   2.330  14.956  2.5912  0.0208 -0.8564
19234TIP3    H279194   1.882   2.272  14.824  2.7413 -0.2707 -0.7846
19235TIP3   OH279195   1.619   1.752   3.526 -0.2256 -0.1519 -0.4664
19235TIP3    H179196   1.593   1.700   3.450 -0.2913 -0.5342 -0.1814
19235TIP3    H279197   1.680   1.696   3.573 -0.8714 -0.2565  0.2410
19236TIP3   OH279198   4.541   5.165   0.371  0.2156 -0.5149 -0.2785
19236TIP3    H179199   4.626   5.197   0.343  0.1420 -0.7726 -0.8166
19236TIP3    H279200   4.498   5.139   0.290 -0.3519 -0.4427 -0.0033
19237TIP3   OH279201   6.184   1.622  13.886  0.3413 -0.2451 -0.0182
19237TIP3    H179202   6.144   1.537  13.867  1.2187 -0.7861  0.5272
19237TIP3    H279203   6.249   1.634  13.817  1.5473 -0.9017  0.9907
19238TIP3   OH279204   0.238   5.399   0.984  1.0055 -0.1985  0.1812
19238TIP3    H179205   0.195   5.481   0.962 -1.0139 -1.3465 -0.1936
19238TIP3    H279206   0.205   5.336   0.920  2.4503 -1.3423  0.5302
19239TIP3   OH279207   0.076   2.105   5.646  0.3226  0.1655  0.2144
19239TIP3    H179208   0.108   2.023   5.683  1.2253  0.9611  1.2294
19239TIP3    H279209   0.153   2.162   5.644  0.1589  0.3546 -2.3187
19240TIP3   OH279210   6.468   3.567   5.809 -0.4158 -0.0230  0.5642
19240TIP3    H179211   6.564   3.567   5.804 -0.4264  0.3977  0.2960
19240TIP3    H279212   6.446   3.659   5.827 -0.8935  0.3193 -1.6905
19241TIP3   OH279213   0.544   4.959   0.391  0.3778 -0.3129 -0.4392
19241TIP3    H179214   0.568   4.889   0.452  0.1663 -0.5117 -0.5880
19241TIP3    H279215   0.565   4.925   0.305  1.5945  0.3343 -0.4208
19242TIP3   OH279216   4.309   2.371   6.261  0.5072 -0.2648  0.0719
19242TIP3    H179217   4.261   2.298   6.300 -0.2161 -0.9246 -1.9442
19242TIP3    H279218   4.400   2.340   6.258  0.6181 -0.0940  1.4478
19243TIP3   OH279219   0.952   4.423  12.253  0.1576  0.0869  0.0739
19243TIP3    H179220   0.935   4.513  12.281 -1.7160 -0.5783  1.1654
19243TIP3    H279221   0.954   4.372  12.333 -0.5278 -1.1207 -0.6598
19244TIP3   OH279222   0.241   0.662   6.526  0.3264  0.3336  0.0327
19244TIP3    H179223   0.167   0.627   6.476 -0.3813  0.8399  0.7104
19244TIP3    H279224   0.312   0.599   6.512 -0.1727 -0.0419 -0.7979
19245TIP3   OH279225   2.867   5.617   3.802  0.0333  0.4471 -0.3076
19245TIP3    H179226   2.774   5.598   3.817 -0.0446 -0.4426 -1.7645
19245TIP3    H279227   2.895   5.550   3.739  1.6028  0.8577 -0.0677
19246TIP3   OH279228   5.007   6.033   5.887 -0.0327  0.0850  0.8258
19246TIP3    H179229   5.044   5.956   5.844 -0.9432  1.7296 -3.2358
19246TIP3    H279230   4.913   6.017   5.890 -0.5366  1.9762 -2.3872
19247TIP3   OH279231   2.224   6.603   3.242  0.2427  0.2897  0.0853
19247TIP3    H179232   2.171   6.558   3.177  1.9553 -1.6435 -0.0184
19247TIP3    H279233   2.309   6.616   3.200  0.8644  0.4815  1.3503
19248TIP3   OH279234   5.205   2.407  16.818 -0.3193  0.4624  0.6310
19248TIP3    H179235   5.245   2.337  16.870 -1.1280  0.0324  0.6908
19248TIP3    H279236   5.254   2.486  16.841  0.9962 -0.1974  0.1171
19249TIP3   OH279237   4.377   3.623  15.523 -0.0546 -0.0174  0.3297
19249TIP3    H179238   4.336   3.537  15.524 -0.0504 -0.0227 -0.0175
19249TIP3    H279239   4.470   3.605  15.539 -0.0877 -0.0572  0.4803
19250TIP3   OH279240   3.679   1.764   0.970 -0.0455  0.3348 -0.5546
19250TIP3    H179241   3.705   1.677   0.942  1.1485  0.9623 -1.4887
19250TIP3    H279242   3.631   1.801   0.896 -1.9233 -0.0821  0.4247
19251TIP3   OH279243   4.990   3.825   1.299 -0.0835  0.0011 -0.3132
19251TIP3    H179244   5.022   3.805   1.211  1.9548  0.6026  0.2564
19251TIP3    H279245   5.042   3.900   1.327 -0.1723 -0.6569  1.6888
19252TIP3   OH279246   3.184   4.093   0.372 -0.4725  0.4685  0.1158
19252TIP3    H179247   3.178   4.139   0.289  0.7319 -0.9307 -0.7697
19252TIP3    H279248   3.225   4.010   0.351 -2.7357 -1.1100  1.6577
19253TIP3   OH279249   1.572   5.620   3.136 -0.0954 -0.1656  0.3792
19253TIP3    H179250   1.629   5.696   3.123 -1.6033  0.6183 -1.8679
19253TIP3    H279251   1.524   5.639   3.216  0.3421  0.7424  0.4325
19254TIP3   OH279252   3.774   1.176  12.499  0.3476  0.4372 -0.7002
19254TIP3    H179253   3.739   1.207  12.582  1.5044 -0.5372  0.1756
19254TIP3    H279254   3.795   1.255  12.450  0.8106  1.0323  0.4443
19255TIP3   OH279255   0.660   6.623  13.979 -0.1960 -0.3137  0.1106
19255TIP3    H179256   0.648   6.600  14.071 -1.4818  0.8514  0.2456
19255TIP3    H279257   0.645   6.541  13.932  0.6110 -0.9466  0.9383
19256TIP3   OH279258   5.426   0.027  15.763 -0.2762  0.7787 -0.3795
19256TIP3    H179259   5.374   0.052  15.839  3.9838  2.8134  2.0430
19256TIP3    H279260   5.423  -0.069  15.762 -1.4365  0.7696  1.5700
19257TIP3   OH279261   0.188   2.472  17.102 -0.1067  0.4245 -0.5933
19257TIP3    H179262   0.123   2.541  17.121  1.5383  2.7278 -2.8840
19257TIP3    H279263   0.220   2.494  17.014  2.5833 -1.6035 -0.1711
19258TIP3   OH279264   5.008   2.753   1.653 -0.4876 -0.2062  0.0455
19258TIP3    H179265   4.916   2.762   1.627 -0.3757 -0.2223 -0.3600
19258TIP3    H279266   5.044   2.842   1.645 -0.2830 -0.3353 -0.5088
19259TIP3   OH279267   1.415   2.663   1.985 -0.0598  0.1474  0.0885
19259TIP3    H179268   1.324   2.642   2.003 -0.6022  1.6450 -0.8681
19259TIP3    H279269   1.415   2.697   1.895  1.6736 -1.3748 -0.5323
19260TIP3   OH279270   4.509   3.522   3.918 -0.1188 -0.0852 -0.0954
19260TIP3    H179271   4.578   3.588   3.929 -0.1385 -0.4080  2.2887
19260TIP3    H279272   4.447   3.562   3.857  1.9953  0.3324 -2.0530
19261TIP3   OH279273   3.647   4.757   0.146  0.0791 -0.1934 -0.3246
19261TIP3    H179274   3.733   4.716   0.142  0.0361 -0.3179 -0.0124
19261TIP3    H279275   3.621   4.750   0.238 -1.7004 -3.1267 -0.9719
19262TIP3   OH279276   1.612   3.176  17.114  0.2484 -0.3686 -0.1684
19262TIP3    H179277   1.654   3.250  17.071 -0.9594  0.7264  0.4940
19262TIP3    H279278   1.523   3.174  17.078  0.1386 -1.2433  0.1160
19263TIP3   OH279279   4.653   6.283  10.547  0.0493  0.3650 -0.8453
19263TIP3    H179280   4.749   6.284  10.541  0.0207  0.1571 -1.3945
19263TIP3    H279281   4.631   6.362  10.597  0.5306  0.1991 -0.3732
19264TIP3   OH279282   5.092   0.159  12.307 -0.2205 -0.8009 -0.0821
19264TIP3    H179283   5.036   0.095  12.262 -0.8374 -0.0420 -0.3885
19264TIP3    H279284   5.039   0.191  12.379  0.5081 -1.4784  0.7793
19265TIP3   OH279285   3.200   4.560   4.023 -0.4810  0.3495 -0.8291
19265TIP3    H179286   3.217   4.599   3.937  0.1411  0.4021 -0.6821
19265TIP3    H279287   3.105   4.568   4.034 -0.8606 -1.6137 -2.4439
19266TIP3   OH279288   4.515   2.405  15.128 -0.3208  0.9912  0.1229
19266TIP3    H179289   4.558   2.325  15.099  0.4122  1.2905  0.3886
19266TIP3    H279290   4.425   2.378  15.148  0.1839  0.0505  1.1228
19267TIP3   OH279291   0.723   6.121   0.680 -0.0935 -0.6568  0.1009
19267TIP3    H179292   0.755   6.082   0.599 -0.7217  0.9579 -0.9375
19267TIP3    H279293   0.800   6.163   0.719 -0.1405 -0.0066 -0.5032
19268TIP3   OH279294   5.014   6.334   4.428 -0.2531  0.2276  0.1812
19268TIP3    H179295   4.933   6.381   4.408  0.3259  0.0602 -2.7497
19268TIP3    H279296   5.018   6.264   4.363  0.4011 -2.0951  2.6303
19269TIP3   OH279297   0.254   3.843  12.420  0.2639 -0.1780  0.1427
19269TIP3    H179298   0.217   3.857  12.507  1.0287 -0.4257  0.5130
19269TIP3    H279299   0.276   3.930  12.388 -0.7024 -0.0228 -0.1087
19270TIP3   OH279300   3.687   6.498  11.136  0.1314 -0.2640 -0.5129
19270TIP3    H179301   3.654   6.541  11.058 -0.3753  1.1031  0.4336
19270TIP3    H279302   3.638   6.416  11.141  0.7527 -0.7450 -2.0643
19271TIP3   OH279303   4.682   0.789   2.282 -0.1539 -0.7437  0.1958
19271TIP3    H179304   4.664   0.748   2.366 -1.0261 -0.4547  0.1586
19271TIP3    H279305   4.600   0.778   2.232  0.1692 -0.4293 -0.4098
19272TIP3   OH279306   5.936   0.354  13.509 -0.1090  0.4831 -0.5932
19272TIP3    H179307   5.913   0.330  13.599 -0.2446  0.0447 -0.7435
19272TIP3    H279308   5.911   0.446  13.501  1.2926  0.9695  0.2989
19273TIP3   OH279309   6.544   6.200  11.058 -0.1716  0.4538  0.0670
19273TIP3    H179310   6.588   6.285  11.058 -1.0203  0.9092 -1.1845
19273TIP3    H279311   6.487   6.202  10.982  0.3537 -1.5496 -0.4160
19274TIP3   OH279312   1.163   2.375   1.512 -0.6102  0.0458 -0.0778
19274TIP3    H179313   1.245   2.385   1.562 -0.9260  0.3016  0.3918
19274TIP3    H279314   1.191   2.341   1.427  0.0107  0.3654 -0.0054
19275TIP3   OH279315   4.138   0.208  13.915  0.0169 -1.0957  0.3228
19275TIP3    H179316   4.216   0.250  13.880 -0.3753 -1.2014 -0.6880
19275TIP3    H279317   4.156   0.114  13.910 -0.4183 -1.1386 -0.4865
19276TIP3   OH279318   4.268   6.701   4.707 -0.0115  0.6819  0.2875
19276TIP3    H179319   4.218   6.768   4.753  0.1407  0.6426  0.5126
19276TIP3    H279320   4.225   6.619   4.732 -1.6254  0.8479 -1.7906
19277TIP3   OH279321   4.440   3.251  13.213  0.1929  0.1124 -0.0472
19277TIP3    H179322   4.470   3.282  13.128 -2.2648  0.8525 -0.6686
19277TIP3    H279323   4.458   3.324  13.272  1.7433 -0.3377  0.0532
19278TIP3   OH279324   5.167   2.578   3.643  0.2455  0.0330 -0.1369
19278TIP3    H179325   5.239   2.626   3.602 -0.1892  0.9294  0.1307
19278TIP3    H279326   5.102   2.567   3.573 -0.6763  1.9287  0.3981
19279TIP3   OH279327   6.165   3.195   5.953  0.3328  0.7044  0.1089
19279TIP3    H179328   6.098   3.264   5.963 -0.7332 -0.0929 -1.3517
19279TIP3    H279329   6.178   3.189   5.859  0.5984 -0.9401  0.2500
19280TIP3   OH279330   6.262   2.477  14.338 -0.1934 -0.0002  0.6172
19280TIP3    H179331   6.302   2.560  14.311  0.2318 -1.3416 -3.1388
19280TIP3    H279332   6.169   2.487  14.315 -0.0250 -0.7766 -0.4074
19281TIP3   OH279333   2.266   1.165   3.460 -0.3459  0.0553  0.7021
19281TIP3    H179334   2.209   1.239   3.480 -1.2245 -0.4297  0.0284
19281TIP3    H279335   2.228   1.091   3.507 -0.3384 -0.2926  0.1737
19282TIP3   OH279336   6.296   3.653  16.931 -0.0683  0.1709 -0.3219
19282TIP3    H179337   6.388   3.644  16.908 -0.2065  1.1344 -1.2867
19282TIP3    H279338   6.296   3.663  17.026  0.7089 -1.2109 -0.1642
19283TIP3   OH279339   3.836   6.741  11.812  0.0181  0.1203  0.2266
19283TIP3    H179340   3.878   6.820  11.776  0.1313 -0.9419 -2.0444
19283TIP3    H279341   3.765   6.775  11.866  0.7135  1.8289  0.1074
19284TIP3   OH279342   2.025   2.976   1.907 -1.1702 -0.2765 -0.8417
19284TIP3    H179343   2.061   2.961   1.820 -1.5784  0.4605 -1.1348
19284TIP3    H279344   2.099   2.961   1.966 -0.6608  0.1498 -1.3669
19285TIP3   OH279345   5.694   5.333   6.138 -0.0198 -0.4315 -0.0013
19285TIP3    H179346   5.669   5.390   6.211 -0.0137 -1.9730  1.2309
19285TIP3    H279347   5.612   5.309   6.096 -0.0457  0.2353 -0.3313
19286TIP3   OH279348   1.944   4.714   2.039 -0.6396  0.6683  0.4456
19286TIP3    H179349   1.900   4.798   2.045 -1.3050  0.4370 -0.9216
19286TIP3    H279350   2.033   4.735   2.010 -1.6895  0.7254 -2.9267
19287TIP3   OH279351   0.851   0.276  14.843  0.0693 -0.7359  0.3625
19287TIP3    H179352   0.815   0.248  14.927 -1.5597 -2.1825 -0.7883
19287TIP3    H279353   0.887   0.197  14.804  0.6927 -0.1017 -0.3674
19288TIP3   OH279354   5.302   6.215  16.907 -0.8054 -0.0504  0.3444
19288TIP3    H179355   5.268   6.150  16.846  2.0071  0.7928 -2.2257
19288TIP3    H279356   5.272   6.299  16.872 -0.6391  0.3366  1.1253
19289TIP3   OH279357   4.403   0.151   4.928  0.5402 -0.3022 -0.0295
19289TIP3    H179358   4.357   0.068   4.927  0.1807 -0.1241  1.4291
19289TIP3    H279359   4.356   0.205   4.991  1.5235  0.5731 -0.0197
19290TIP3   OH279360   4.326   2.907   2.855  0.2123 -0.0418 -0.4219
19290TIP3    H179361   4.338   2.959   2.775  0.6703 -0.1154 -0.4058
19290TIP3    H279362   4.370   2.959   2.923 -1.5956  0.8202  0.0980
19291TIP3   OH279363   0.166   3.717   3.654 -0.5888 -0.8715  0.0783
19291TIP3    H179364   0.077   3.696   3.627 -0.6438 -1.5627  0.7842
19291TIP3    H279365   0.169   3.693   3.747  1.2331 -3.7714 -0.6641
19292TIP3   OH279366   5.797   4.901   3.958 -0.4911 -0.5961 -0.2834
19292TIP3    H179367   5.803   4.818   3.912  1.7011  0.5753 -2.1902
19292TIP3    H279368   5.735   4.953   3.907  0.2129 -0.1105 -0.6612
19293TIP3   OH279369   4.817   1.568  12.432  0.5015 -0.4740 -0.6293
19293TIP3    H179370   4.766   1.488  12.442 -0.5460  0.0193 -1.9135
19293TIP3    H279371   4.807   1.614  12.515 -1.8650  0.0208 -1.1459
19294TIP3   OH279372   1.258   2.050   2.228  0.0477 -0.3811  0.1844
19294TIP3    H179373   1.239   2.081   2.140 -0.1685  2.0706  1.0497
19294TIP3    H279374   1.227   2.119   2.286  0.3884 -1.8331  2.1948
19295TIP3   OH279375   4.260   1.287  14.860 -0.1306  0.2207  0.3141
19295TIP3    H179376   4.269   1.192  14.852 -0.8465  0.1774 -0.0157
19295TIP3    H279377   4.251   1.317  14.769 -1.3751  0.4468  0.5038
19296TIP3   OH279378   1.977   6.418   4.107 -0.3261 -0.3684  0.3114
19296TIP3    H179379   2.041   6.489   4.106 -0.4503 -0.2474  0.7385
19296TIP3    H279380   1.898   6.457   4.069  0.7259 -1.3731 -3.0288
19297TIP3   OH279381   0.407   6.157  13.067  0.6623 -0.2203  0.0915
19297TIP3    H179382   0.398   6.203  12.984  1.6728  0.7500  0.4987
19297TIP3    H279383   0.340   6.088  13.065 -0.7166  1.1276 -0.6215
19298TIP3   OH279384   4.579   0.396  10.364 -0.2449  0.2928 -0.1213
19298TIP3    H179385   4.595   0.303  10.349  0.2434  0.6719 -2.0003
19298TIP3    H279386   4.488   0.400  10.393  0.1965 -0.9104  1.5459
19299TIP3   OH279387   3.788   0.195   0.205 -0.8878 -0.3446 -0.5506
19299TIP3    H179388   3.870   0.199   0.254 -1.3740 -2.2039  0.4649
19299TIP3    H279389   3.769   0.101   0.198 -2.6968  0.0516 -1.1613
19300TIP3   OH279390   3.110   0.114   3.086 -0.0883  0.2586 -0.4168
19300TIP3    H179391   3.153   0.192   3.123  0.7225 -0.5890  0.4789
19300TIP3    H279392   3.076   0.068   3.162 -0.0173 -0.5749 -0.8861
19301TIP3   OH279393   2.593   0.925  14.042  0.1062  0.1660 -0.3227
19301TIP3    H179394   2.604   0.891  14.131 -0.0862 -0.7557 -0.6359
19301TIP3    H279395   2.678   0.964  14.020  0.1389  0.4338  0.2845
19302TIP3   OH279396   4.618   1.550   0.387  0.3872  0.0268 -0.2229
19302TIP3    H179397   4.679   1.479   0.369  2.4442  1.3367  1.3660
19302TIP3    H279398   4.540   1.507   0.423  0.7454 -1.5615 -1.2853
19303TIP3   OH279399   5.870   5.397   0.123 -0.4818  0.9073  0.0888
19303TIP3    H179400   5.940   5.453   0.156 -1.0810  0.4904  2.1178
19303TIP3    H279401   5.854   5.429   0.034  1.1406  2.0787  0.2003
19304TIP3   OH279402   2.605   5.101  15.743 -0.0490 -0.5271 -0.0068
19304TIP3    H179403   2.672   5.061  15.798  1.0898 -1.3381 -1.9127
19304TIP3    H279404   2.592   5.038  15.672 -2.1669  0.0553 -0.1696
19305TIP3   OH279405   0.844   2.342  15.971 -0.0420 -0.2348 -0.3625
19305TIP3    H179406   0.764   2.377  15.931  0.7676  0.6214 -1.2446
19305TIP3    H279407   0.911   2.351  15.904  0.9810 -0.2308  0.6341
19306TIP3   OH279408   1.378   2.379   5.998 -0.4390 -0.6183 -0.6744
19306TIP3    H179409   1.418   2.292   6.001  0.7251 -0.1004 -1.0267
19306TIP3    H279410   1.382   2.404   5.906  1.3278  0.7758 -0.2318
19307TIP3   OH279411   3.429   4.970   2.095 -0.2269 -0.4157 -0.3668
19307TIP3    H179412   3.461   4.890   2.052  3.3983  1.3536 -1.1548
19307TIP3    H279413   3.471   5.041   2.047  0.9475  1.7773  3.6819
19308TIP3   OH279414   4.165   4.727  13.642 -0.3704 -0.2959  0.4701
19308TIP3    H179415   4.092   4.682  13.684 -0.2427 -1.3721 -0.4276
19308TIP3    H279416   4.224   4.656  13.615  0.3058  0.4727 -0.0831
19309TIP3   OH279417   0.998   3.853  17.220  0.4783  0.3144 -0.0466
19309TIP3    H179418   1.047   3.926  17.257 -0.2313  1.9875 -2.3083
19309TIP3    H279419   0.913   3.890  17.197  0.0662 -1.2502 -1.1386
19310TIP3   OH279420   4.895   0.718  15.593  0.7845 -0.1613  0.2636
19310TIP3    H179421   4.888   0.705  15.498 -0.4897 -0.1076  0.3545
19310TIP3    H279422   4.920   0.811  15.602  1.0836 -0.2105 -0.0137
19311TIP3   OH279423   5.348   0.747  17.006  0.1884 -0.1692  0.0599
19311TIP3    H179424   5.270   0.694  17.023  0.1063 -0.2400 -0.5276
19311TIP3    H279425   5.359   0.743  16.911  0.6729  0.1728  0.1025
19312TIP3   OH279426   5.049   6.537  15.215  0.1690 -0.0150 -0.2300
19312TIP3    H179427   5.132   6.524  15.169  0.4388  3.3171 -0.8072
19312TIP3    H279428   5.066   6.609  15.275 -2.0789  0.1350  0.2700
19313TIP3   OH279429   4.849   5.658  11.839 -0.5324 -0.1720  0.5025
19313TIP3    H179430   4.768   5.658  11.889 -1.2729 -2.4670 -0.6349
19313TIP3    H279431   4.879   5.567  11.842  0.5058  0.0731 -1.4486
19314TIP3   OH279432   4.163   1.561  14.467 -0.1345 -0.0383 -0.5262
19314TIP3    H179433   4.120   1.618  14.403  1.3367  1.0454 -0.5911
19314TIP3    H279434   4.210   1.622  14.524  2.2075 -1.2190 -1.1273
19315TIP3   OH279435   6.300   0.865   2.230 -0.0752 -0.3434  0.5131
19315TIP3    H179436   6.233   0.822   2.282 -3.0043 -0.1341 -2.9517
19315TIP3    H279437   6.305   0.815   2.149  1.5812  1.6073 -0.6515
19316TIP3   OH279438   5.040   4.501   5.867 -0.5384  0.7243  0.2842
19316TIP3    H179439   5.017   4.593   5.855 -2.0891  0.2992 -0.0497
19316TIP3    H279440   4.957   4.454   5.861  0.2973 -0.7507 -0.0109
19317TIP3   OH279441   4.063   6.168  14.978  0.2791  0.4604 -0.2952
19317TIP3    H179442   4.057   6.201  15.068 -0.3963  0.5530 -0.3689
19317TIP3    H279443   4.041   6.075  14.986  2.2925 -0.0209 -0.0695
19318TIP3   OH279444   4.489   2.338   1.062 -0.1158 -0.0856  0.0867
19318TIP3    H179445   4.478   2.248   1.031 -1.7025 -0.0122  0.4229
19318TIP3    H279446   4.516   2.387   0.984 -1.3034 -0.4500 -0.5673
19319TIP3   OH279447   3.563   1.750   2.959 -0.2751 -0.2953  0.6675
19319TIP3    H179448   3.496   1.751   2.890  0.2696 -0.1524  0.1366
19319TIP3    H279449   3.534   1.682   3.019 -1.2107  0.1615  0.7510
19320TIP3   OH279450   0.184   4.784  13.789  0.0759  0.9089 -0.0697
19320TIP3    H179451   0.139   4.766  13.871 -0.3081  0.9539 -0.2697
19320TIP3    H279452   0.276   4.766  13.808 -0.1206  0.1071  0.1336
19321TIP3   OH279453   2.800   4.175  14.842  0.8403  0.2928  0.2640
19321TIP3    H179454   2.772   4.216  14.761  1.4549 -2.1094 -1.2085
19321TIP3    H279455   2.720   4.134  14.877  0.7139  0.7729  0.5409
19322TIP3   OH279456   3.794   6.643   0.767  0.2666 -0.5253  0.0049
19322TIP3    H179457   3.796   6.626   0.673  0.8114  0.0298 -0.0900
19322TIP3    H279458   3.838   6.568   0.806 -0.1942 -0.8850 -0.1626
19323TIP3   OH279459   2.248   3.338   6.053  0.1980  0.4342 -0.9026
19323TIP3    H179460   2.327   3.300   6.090 -0.0978 -0.7468 -1.4542
19323TIP3    H279461   2.216   3.399   6.120  0.5558 -0.4697  0.0959
19324TIP3   OH279462   0.725   2.726   4.386  0.2583 -0.0288 -0.1315
19324TIP3    H179463   0.682   2.674   4.318  1.3959  0.0454 -0.9254
19324TIP3    H279464   0.738   2.812   4.346  0.6561  0.1093  0.2846
19325TIP3   OH279465   2.022   1.708  15.125  0.0809  0.6104 -0.3754
19325TIP3    H179466   2.005   1.714  15.031  1.1915  1.3800 -0.5391
19325TIP3    H279467   1.972   1.780  15.163 -1.3383 -0.4377 -0.2284
19326TIP3   OH279468   1.328   4.734  11.397  0.3882 -0.1354  0.0138
19326TIP3    H179469   1.338   4.715  11.490  0.4276 -0.8456 -0.1326
19326TIP3    H279470   1.254   4.795  11.393 -0.5788 -1.2652  0.3842
19327TIP3   OH279471   2.630   1.686   1.501  0.3350  0.1879 -0.2205
19327TIP3    H179472   2.694   1.625   1.538  0.7729  1.9337  2.0089
19327TIP3    H279473   2.570   1.704   1.574 -0.8780  0.9927 -1.3972
19328TIP3   OH279474   5.486   2.074   3.896  0.4761  0.5095  0.3126
19328TIP3    H179475   5.508   2.135   3.966 -0.8086  0.0059  1.1892
19328TIP3    H279476   5.402   2.106   3.862  0.2531 -0.2249  0.1627
19329TIP3   OH279477   0.981   5.731  13.341 -0.1399 -0.4199 -0.0156
19329TIP3    H179478   1.043   5.661  13.320  0.2395  0.1398 -0.8378
19329TIP3    H279479   0.928   5.697  13.412  0.8330 -1.0833  0.3987
19330TIP3   OH279480   0.703   3.843  14.034  0.0356  0.8914 -0.4490
19330TIP3    H179481   0.736   3.876  14.117 -1.2290 -0.5336  0.6485
19330TIP3    H279482   0.748   3.896  13.967 -0.9119  3.8411  1.1770
19331TIP3   OH279483   5.766   1.776  12.964 -0.4973  1.2330  0.2713
19331TIP3    H179484   5.815   1.845  13.009 -1.1764  1.4918  0.6185
19331TIP3    H279485   5.712   1.737  13.033 -0.7158  0.8882 -0.0946
19332TIP3   OH279486   3.452   1.911  11.437  0.3184 -0.9854 -0.2588
19332TIP3    H179487   3.485   1.899  11.348 -0.5809 -1.4611 -0.5380
19332TIP3    H279488   3.526   1.887  11.493  0.8855 -0.6964 -0.8755
19333TIP3   OH279489   4.966   3.485   1.298 -0.1823  0.2263 -0.1625
19333TIP3    H179490   5.050   3.519   1.329 -0.3240  1.1950 -0.8066
19333TIP3    H279491   4.900   3.531   1.350 -0.2900 -1.5962  1.3592
19334TIP3   OH279492   6.668   3.377  12.418 -0.1995  0.8325  0.2488
19334TIP3    H179493   6.653   3.339  12.504  0.5670 -2.1864 -0.8686
19334TIP3    H279494   6.760   3.357  12.399 -1.0406 -0.9643 -2.3296
19335TIP3   OH279495   5.295   4.663   0.433  0.0072 -0.2628  0.1742
19335TIP3    H179496   5.365   4.597   0.432 -0.9719 -1.3042 -0.4461
19335TIP3    H279497   5.247   4.649   0.352  0.5198  2.0574 -0.5806
19336TIP3   OH279498   4.920   6.198   0.989 -0.2856 -0.1079  0.7266
19336TIP3    H179499   4.902   6.259   0.917 -0.1867  0.6943  1.3745
19336TIP3    H279500   4.989   6.141   0.956  1.2541  1.6056  0.9414
19337TIP3   OH279501   1.655   5.389  16.209 -0.7750 -0.3841  0.0278
19337TIP3    H179502   1.620   5.303  16.185  1.7054 -1.3950 -0.2172
19337TIP3    H279503   1.716   5.370  16.281  0.5610  1.0014 -0.7080
19338TIP3   OH279504   4.094   6.776   5.233  0.1847  0.7929  0.0087
19338TIP3    H179505   4.094   6.872   5.237  2.0887  0.7416  1.9035
19338TIP3    H279506   4.144   6.749   5.310  0.1825 -1.7208 -0.8400
19339TIP3   OH279507   1.665   0.191  14.876  0.2777  0.2146 -0.1424
19339TIP3    H179508   1.753   0.216  14.847 -0.0849  1.8604  0.1606
19339TIP3    H279509   1.670   0.191  14.971  0.1456 -0.4517 -0.1298
19340TIP3   OH279510   0.820   4.416  14.599  0.3085  0.1980  0.2948
19340TIP3    H179511   0.898   4.393  14.650  0.6319  0.7067  0.0319
19340TIP3    H279512   0.747   4.394  14.656  0.6764  1.2521  1.1906
19341TIP3   OH279513   5.597   2.920   2.837  0.6571 -0.3248 -0.5837
19341TIP3    H179514   5.673   2.864   2.824 -0.1139 -1.4356 -0.4123
19341TIP3    H279515   5.607   2.956   2.925  0.7820 -0.7801 -0.4142
19342TIP3   OH279516   6.512   5.574  11.704  0.0767  0.2923 -0.1194
19342TIP3    H179517   6.519   5.546  11.612 -1.3496  0.8257 -0.3938
19342TIP3    H279518   6.574   5.647  11.711  0.3889  0.0814 -0.5804
19343TIP3   OH279519   4.457   5.692   4.400  0.4847 -0.6328  0.3832
19343TIP3    H179520   4.370   5.672   4.365  0.3848 -1.0550  0.8722
19343TIP3    H279521   4.506   5.726   4.325  0.2598 -1.4949 -0.1617
19344TIP3   OH279522   2.508   2.143   4.887 -0.2809  0.1818  0.6195
19344TIP3    H179523   2.499   2.239   4.892  0.5729  0.2918  0.0362
19344TIP3    H279524   2.434   2.110   4.938 -0.7172  1.1533  0.6304
19345TIP3   OH279525   3.396   3.746  11.950 -0.4905 -0.0489  0.6232
19345TIP3    H179526   3.455   3.802  11.900  0.2513  0.7897  2.3872
19345TIP3    H279527   3.309   3.776  11.926 -0.1033  1.7896  1.4153
19346TIP3   OH279528   0.938   1.487  16.818  0.3087 -0.1282 -0.0926
19346TIP3    H179529   0.985   1.446  16.890 -0.0847  0.0524  0.2703
19346TIP3    H279530   1.000   1.489  16.746  0.7451 -0.2004  0.2814
19347TIP3   OH279531   0.649   1.282   3.493 -0.4821 -0.5044  0.3586
19347TIP3    H179532   0.575   1.317   3.443 -0.8189 -0.9897  0.5267
19347TIP3    H279533   0.665   1.348   3.560  1.3479  1.2268 -1.6931
19348TIP3   OH279534   3.038   1.064   5.949  0.1354  0.1803 -0.5186
19348TIP3    H179535   3.127   1.039   5.929  0.2407 -0.3333  0.5643
19348TIP3    H279536   3.047   1.132   6.016 -0.3066 -0.5977  0.3449
19349TIP3   OH279537   3.162   2.417  15.970 -0.4947  0.0793  0.2145
19349TIP3    H179538   3.090   2.377  16.019 -0.8749  1.1702  0.5616
19349TIP3    H279539   3.238   2.408  16.026 -0.4901 -0.5225  0.1144
19350TIP3   OH279540   0.659   5.437  16.828 -0.3290  0.0946  0.5484
19350TIP3    H179541   0.655   5.532  16.820 -0.7793 -0.0601 -1.3979
19350TIP3    H279542   0.575   5.406  16.793 -0.7405 -0.9629  2.4076
19351TIP3   OH279543   5.378   0.551   2.057 -0.8432  0.3920 -0.4843
19351TIP3    H179544   5.333   0.502   2.126  0.1113  0.2538  0.0370
19351TIP3    H279545   5.371   0.643   2.084  0.2147  0.2720  0.1926
19352TIP3   OH279546   4.152   3.369  13.589  0.1341 -0.3419 -0.0038
19352TIP3    H179547   4.107   3.426  13.527  0.2765 -1.8533 -1.5278
19352TIP3    H279548   4.118   3.396  13.675  1.5411  3.2571 -0.4817
19353TIP3   OH279549   3.666   3.850   3.124 -0.2969 -0.8872  0.3099
19353TIP3    H179550   3.628   3.774   3.168 -0.6595 -0.1357  1.3007
19353TIP3    H279551   3.590   3.899   3.093 -0.0514 -1.4492 -1.2614
19354TIP3   OH279552   2.798   4.230   3.532  0.5974  0.2417 -0.3889
19354TIP3    H179553   2.708   4.216   3.561 -0.3569  0.7591 -2.9623
19354TIP3    H279554   2.826   4.143   3.501  1.3556 -0.1477  1.3650
19355TIP3   OH279555   0.439   3.083  13.896 -0.5329  0.3208 -0.2496
19355TIP3    H179556   0.401   2.995  13.896 -0.2985  0.2168  0.7485
19355TIP3    H279557   0.388   3.132  13.960  0.6180  0.3427  0.6739
19356TIP3   OH279558   1.360   4.939   1.512  0.2924  0.9472 -0.1717
19356TIP3    H179559   1.283   4.993   1.492  0.4607  1.0958 -0.4156
19356TIP3    H279560   1.431   5.002   1.525 -0.1046  0.9552  2.3108
19357TIP3   OH279561   3.931   2.307   2.691  0.4555  0.7349 -0.2523
19357TIP3    H179562   3.937   2.276   2.601  0.3168  1.0096 -0.3557
19357TIP3    H279563   3.987   2.384   2.695 -0.3900  1.3676 -0.3872
19358TIP3   OH279564   4.329   5.049  16.571  0.2877 -0.3026 -0.1118
19358TIP3    H179565   4.278   5.092  16.640 -1.3587 -0.0592 -1.4356
19358TIP3    H279566   4.305   4.956  16.577  1.2726 -0.5238  0.5755
19359TIP3   OH279567   1.948   3.449  12.837  0.4245  0.2272 -0.4659
19359TIP3    H179568   1.921   3.431  12.927  1.1633  1.7608  0.0830
19359TIP3    H279569   1.873   3.493  12.797  0.2276 -0.1357 -0.4957
19360TIP3   OH279570   4.945   4.921  15.629 -0.0368  0.0649 -0.5264
19360TIP3    H179571   4.850   4.923  15.636 -0.1648 -2.4751 -0.9860
19360TIP3    H279572   4.961   4.868  15.551  1.7622 -0.1651 -0.0107
19361TIP3   OH279573   4.432   1.760  12.842 -0.0219 -0.1362 -0.0165
19361TIP3    H179574   4.414   1.848  12.808 -1.7708 -0.8890 -1.0923
19361TIP3    H279575   4.387   1.758  12.927 -0.7201 -0.2756 -0.3853
19362TIP3   OH279576   0.853   5.310   3.407  0.0239 -0.3877 -0.2102
19362TIP3    H179577   0.782   5.278   3.463 -0.0985  1.5479  0.7785
19362TIP3    H279578   0.889   5.385   3.455 -0.2070  1.4369 -2.7693
19363TIP3   OH279579   4.506   4.571  12.964 -0.1554  0.4068 -0.5554
19363TIP3    H179580   4.549   4.584  13.048 -0.6122  1.5007 -0.4919
19363TIP3    H279581   4.576   4.581  12.899 -0.0466  0.7818 -0.3786
19364TIP3   OH279582   5.318   5.889   0.639  0.0687  0.2345  0.0444
19364TIP3    H179583   5.352   5.955   0.578  1.5933 -0.6814 -0.1215
19364TIP3    H279584   5.223   5.898   0.633  0.2315  2.6350  0.2590
19365TIP3   OH279585   4.768   3.866   1.005 -0.2930 -0.4672 -0.2140
19365TIP3    H179586   4.736   3.890   0.918 -0.1349 -0.0245 -0.1534
19365TIP3    H279587   4.781   3.772   1.001 -0.5471 -0.4867 -0.5865
19366TIP3   OH279588   2.006   1.575   3.713  0.1484  0.1897 -0.4867
19366TIP3    H179589   2.025   1.618   3.630 -1.3840  0.0521 -0.9205
19366TIP3    H279590   2.087   1.583   3.764  1.4217 -0.5853 -2.3525
19367TIP3   OH279591   4.411   6.227   6.427  0.1100  0.0789  0.2999
19367TIP3    H179592   4.396   6.188   6.513  2.7943 -0.1560  0.6854
19367TIP3    H279593   4.343   6.187   6.371 -1.2682 -0.2241  2.1372
19368TIP3   OH279594   4.708   0.142   3.904 -0.1788 -0.1897 -0.2472
19368TIP3    H179595   4.711   0.223   3.853  1.1450  0.8861  1.4774
19368TIP3    H279596   4.708   0.072   3.838  1.4094  1.1628 -1.7292
19369TIP3   OH279597   6.451   2.568   4.125 -0.2280 -0.1211  0.4510
19369TIP3    H179598   6.398   2.634   4.169 -0.4927 -0.9218  1.3586
19369TIP3    H279599   6.537   2.575   4.165 -0.5566 -1.0728  1.3494
19370TIP3   OH279600   2.097   3.752   1.268 -0.0871  0.2735  0.4252
19370TIP3    H179601   2.187   3.776   1.244 -0.2618 -0.4343 -1.0317
19370TIP3    H279602   2.079   3.801   1.348  0.8842  1.9922 -0.3836
19371TIP3   OH279603   5.064   1.911   2.277 -0.9993  0.8283  0.1757
19371TIP3    H179604   5.135   1.860   2.240 -2.6136 -0.7063 -0.9065
19371TIP3    H279605   5.077   1.999   2.243  0.5828  0.6439  0.3016
19372TIP3   OH279606   1.012   2.309  12.407  0.0536  0.2973  0.6582
19372TIP3    H179607   1.028   2.236  12.348 -2.0386 -1.4780  2.2165
19372TIP3    H279608   1.001   2.385  12.350  2.3931 -0.5171 -0.9744
19373TIP3   OH279609   3.873   4.228   2.765 -0.5896  0.5219  0.4250
19373TIP3    H179610   3.907   4.250   2.678 -1.3006  0.6675  0.1833
19373TIP3    H279611   3.779   4.215   2.751 -0.6932  0.4952  1.1656
19374TIP3   OH279612   1.378   5.926   1.718 -0.3557  0.0326  0.2039
19374TIP3    H179613   1.408   5.963   1.801  0.1779 -1.0636  0.5041
19374TIP3    H279614   1.357   5.835   1.738  0.4220 -0.4269 -1.0042
19375TIP3   OH279615   3.759   5.799   5.262 -0.2913  0.2457  0.4059
19375TIP3    H179616   3.778   5.827   5.173 -0.5493  2.2366  0.9575
19375TIP3    H279617   3.665   5.780   5.262 -0.3107  0.3408  0.2862
19376TIP3   OH279618   5.385   1.317   3.312 -0.6925 -0.0451  0.2527
19376TIP3    H179619   5.385   1.337   3.219 -0.7943 -0.8700  0.0699
19376TIP3    H279620   5.293   1.297   3.332 -0.5441 -0.6331  0.3565
19377TIP3   OH279621   2.216   5.660  15.615  0.3157 -0.1023 -0.3893
19377TIP3    H179622   2.226   5.755  15.615 -0.6723  0.0097 -0.4616
19377TIP3    H279623   2.300   5.627  15.583  0.4023  0.7762 -1.0940
19378TIP3   OH279624   1.730   6.051   5.166  0.7564 -0.0617  0.0294
19378TIP3    H179625   1.683   5.971   5.192  3.2554 -2.2610 -1.9905
19378TIP3    H279626   1.694   6.073   5.080  0.3396  0.8243  0.4195
19379TIP3   OH279627   6.808   0.059   3.635 -0.2112 -0.5805  0.2198
19379TIP3    H179628   6.870  -0.007   3.605 -0.6337 -1.0072  0.2793
19379TIP3    H279629   6.854   0.107   3.704  0.9324  0.6819 -1.3738
19380TIP3   OH279630   4.792   0.259  15.663 -0.0924 -0.2019 -0.1658
19380TIP3    H179631   4.751   0.264  15.749 -1.2120 -3.6648 -0.4016
19380TIP3    H279632   4.883   0.235  15.681  0.3984  1.8621  0.1437
19381TIP3   OH279633   0.367   4.300  11.224 -0.3265  0.7265  0.2179
19381TIP3    H179634   0.407   4.317  11.309 -1.6920  0.6423  0.8918
19381TIP3    H279635   0.436   4.258  11.173  0.8449  1.7978  0.9090
19382TIP3   OH279636   4.364   2.916  14.471 -0.2434  0.0046  0.1736
19382TIP3    H179637   4.452   2.879  14.464  0.3620  1.7386 -2.2217
19382TIP3    H279638   4.376   3.010  14.455 -2.4986  0.2976 -0.0428
19383TIP3   OH279639   3.560   5.834  15.762 -0.0272  0.1825  0.1514
19383TIP3    H179640   3.536   5.925  15.746  0.1043  0.1679 -0.1374
19383TIP3    H279641   3.613   5.810  15.686  0.9464  0.2318  0.8034
19384TIP3   OH279642   4.910   5.871  14.800 -0.7757 -0.0153  0.6776
19384TIP3    H179643   4.935   5.785  14.832 -0.0799 -0.5061 -1.1205
19384TIP3    H279644   4.815   5.874  14.811 -0.7280 -0.7520  1.3482
19385TIP3   OH279645   5.091   3.991  15.041  0.8994  0.2106  0.2206
19385TIP3    H179646   5.135   4.076  15.041  2.8123 -0.7208  1.8196
19385TIP3    H279647   5.095   3.962  15.132  0.4634 -1.6650 -0.3342
19386TIP3   OH279648   3.094   6.429   5.791  0.0982  0.4142  0.4491
19386TIP3    H179649   3.139   6.436   5.874  0.2560 -2.0339  0.6021
19386TIP3    H279650   3.004   6.458   5.810 -0.3345 -1.7572  1.9123
19387TIP3   OH279651   0.505   3.832  16.256  0.3295 -0.1284 -0.0117
19387TIP3    H179652   0.510   3.851  16.163  1.4809  1.8453  0.4275
19387TIP3    H279653   0.593   3.851  16.289  0.3965 -2.3495  1.2177
19388TIP3   OH279654   0.512   5.526   2.302  0.2894  0.3465  0.0543
19388TIP3    H179655   0.485   5.437   2.323  0.1605  0.4784  0.4466
19388TIP3    H279656   0.448   5.582   2.346  1.7459  0.6900  1.8120
19389TIP3   OH279657   1.864   6.091   5.633  0.3530  0.2193  0.3225
19389TIP3    H179658   1.843   6.147   5.558 -0.4020  1.0168  1.1337
19389TIP3    H279659   1.951   6.055   5.612  1.0918  2.1141  0.0569
19390TIP3   OH279660   6.670   4.452   1.416 -0.3500 -0.4928 -0.2368
19390TIP3    H179661   6.615   4.430   1.491  0.9374  0.2716  0.9411
19390TIP3    H279662   6.760   4.449   1.449  0.2693 -0.5880 -1.8510
19391TIP3   OH279663   0.629   2.543  11.696 -1.0827  0.6055 -0.3170
19391TIP3    H179664   0.709   2.593  11.702 -1.4635  0.9395  2.3899
19391TIP3    H279665   0.658   2.454  11.673 -0.0786  1.0111 -0.6442
19392TIP3   OH279666   2.673   1.774   5.289 -0.2358 -0.4254 -0.0358
19392TIP3    H179667   2.747   1.744   5.341 -0.2336 -2.3304 -1.1002
19392TIP3    H279668   2.712   1.827   5.219 -0.0925  0.6174  0.8264
19393TIP3   OH279669   2.622   2.061  16.833 -0.5650 -0.4693  0.2326
19393TIP3    H179670   2.631   1.967  16.817 -0.3592 -0.2289 -1.1938
19393TIP3    H279671   2.697   2.099  16.788 -0.8623  0.4045  0.4743
19394TIP3   OH279672   0.166   2.807   4.957  1.2327  0.0968 -0.4862
19394TIP3    H179673   0.198   2.867   5.024 -1.5913  1.6563 -0.4930
19394TIP3    H279674   0.115   2.742   5.005  2.4447 -1.0789 -0.7336
19395TIP3   OH279675   5.440   6.799  12.553  0.0184 -0.5211 -0.1363
19395TIP3    H179676   5.366   6.851  12.582  0.9965  0.0482  1.4087
19395TIP3    H279677   5.426   6.713  12.593 -1.0949 -1.1872 -1.9024
19396TIP3   OH279678   1.994   5.009   4.986  0.5460 -0.3094 -0.0181
19396TIP3    H179679   2.059   4.979   5.049  0.1428  0.1988  0.6475
19396TIP3    H279680   2.032   5.089   4.949 -0.1390  0.5461  1.1050
19397TIP3   OH279681   1.782   2.543   6.472 -0.5848 -0.4960  0.3152
19397TIP3    H179682   1.707   2.507   6.425  0.2121 -0.7933 -0.7705
19397TIP3    H279683   1.830   2.467   6.503 -1.1241 -0.2972  1.6612
19398TIP3   OH279684   0.940   2.424   0.305  0.2918  0.0576  0.4195
19398TIP3    H179685   0.985   2.508   0.302  0.2307  0.0498 -0.6325
19398TIP3    H279686   1.006   2.360   0.281 -0.1349 -0.0087 -0.5874
19399TIP3   OH279687   1.349   6.264  11.099  0.3258  0.4798 -0.2166
19399TIP3    H179688   1.309   6.205  11.163  1.1461 -1.1775 -1.1693
19399TIP3    H279689   1.293   6.258  11.022  1.9839 -1.3685 -1.3382
19400TIP3   OH279690   0.115   4.163   1.061  0.5512  0.2902  0.1886
19400TIP3    H179691   0.079   4.248   1.038 -0.6174 -0.4697 -0.8581
19400TIP3    H279692   0.088   4.105   0.990  3.6860 -0.3674 -0.5279
19401TIP3   OH279693   1.099   3.377   2.222  0.5008  0.1371  0.5204
19401TIP3    H179694   1.108   3.290   2.261  0.8219  0.5986  1.4852
19401TIP3    H279695   1.142   3.370   2.137 -0.8753 -1.0907 -0.0836
19402TIP3   OH279696   5.269   1.701   5.922 -0.5814  0.1614  0.0674
19402TIP3    H179697   5.343   1.761   5.920 -2.0782  2.0103 -1.3732
19402TIP3    H279698   5.248   1.686   5.830 -1.8679 -0.5288  0.4616
19403TIP3   OH279699   3.603   2.416   1.411  0.0545  0.3054  0.2243
19403TIP3    H179700   3.641   2.471   1.480 -3.3760  2.8199  0.2944
19403TIP3    H279701   3.622   2.327   1.438  1.5904  1.3307  2.7374
19404TIP3   OH279702   3.519   2.171  10.595 -0.2897  0.0043  0.0758
19404TIP3    H179703   3.533   2.089  10.547 -0.6790  0.3467 -0.6196
19404TIP3    H279704   3.425   2.176  10.608 -0.3544  0.7813 -0.6608
19405TIP3   OH279705   0.954   0.239   0.251  0.2934 -0.1749 -0.1581
19405TIP3    H179706   0.927   0.234   0.159  0.9332  1.7289 -0.4555
19405TIP3    H279707   0.878   0.275   0.296  0.5416  0.3947 -0.1938
19406TIP3   OH279708   3.897   4.234  16.035  0.3873  0.3338  0.2689
19406TIP3    H179709   3.803   4.240  16.053  0.5178 -0.0014  1.0679
19406TIP3    H279710   3.904   4.164  15.969  0.1424 -0.1045  0.7071
19407TIP3   OH279711   2.907   1.072   5.331  0.6786 -0.0609  0.2210
19407TIP3    H179712   2.833   1.048   5.387  1.3329  1.7451  1.9461
19407TIP3    H279713   2.942   0.988   5.299 -0.3249 -1.0849  1.7456
19408TIP3   OH279714   5.470   2.914   0.343  0.3820  0.0349  0.0600
19408TIP3    H179715   5.445   2.903   0.435  1.9210 -0.8363  0.4002
19408TIP3    H279716   5.562   2.940   0.347  1.2735 -2.7340 -1.3007
19409TIP3   OH279717   3.451   1.093  11.408 -0.4188 -0.2251 -0.0093
19409TIP3    H179718   3.409   1.173  11.376  0.8968  1.3621  2.0456
19409TIP3    H279719   3.495   1.120  11.489  1.3170 -2.6854 -0.0611
19410TIP3   OH279720   0.982   6.157  11.468 -0.0011  0.6176 -0.7768
19410TIP3    H179721   0.927   6.229  11.436 -0.2269  0.8452  0.1180
19410TIP3    H279722   0.940   6.127  11.548 -0.9911 -1.8373 -2.1631
19411TIP3   OH279723   6.391   6.284   1.046  0.0100  0.4707 -0.3028
19411TIP3    H179724   6.417   6.196   1.074 -0.5788  0.1529 -0.7215
19411TIP3    H279725   6.442   6.300   0.967  0.0557  0.4653 -0.2738
19412TIP3   OH279726   3.316   1.262  11.839  0.5873  0.4908  0.0040
19412TIP3    H179727   3.280   1.335  11.889 -0.0365  0.7307 -0.7868
19412TIP3    H279728   3.309   1.186  11.897 -0.1347  0.7620  0.2736
19413TIP3   OH279729   0.164   4.589   5.421 -0.1771 -0.0663 -0.5649
19413TIP3    H179730   0.226   4.616   5.352 -1.0415 -0.0795 -1.3489
19413TIP3    H279731   0.168   4.660   5.485 -0.2196  0.4999 -1.1829
19414TIP3   OH279732   4.328   5.798   3.398 -0.2026  0.2683  0.1143
19414TIP3    H179733   4.243   5.756   3.408 -0.1366  0.4437  1.5762
19414TIP3    H279734   4.389   5.726   3.382 -0.6507  0.1591 -1.0895
19415TIP3   OH279735   1.999   6.686   2.886 -0.0743 -0.1033 -0.1548
19415TIP3    H179736   1.963   6.664   2.800  0.5165 -1.3968 -0.0740
19415TIP3    H279737   2.030   6.603   2.922 -1.6599  0.1531  1.9462
19416TIP3   OH279738   1.987   4.086  12.533 -1.0341 -0.1293 -0.2726
19416TIP3    H179739   1.990   4.158  12.469  2.1194  0.1171  0.0715
19416TIP3    H279740   1.988   4.007  12.479  0.0960  0.0853 -0.5854
19417TIP3   OH279741   0.324   5.167  16.702  0.2557  0.6045  0.4088
19417TIP3    H179742   0.409   5.123  16.706 -0.6619 -1.4064 -1.4357
19417TIP3    H279743   0.267   5.114  16.757 -0.6266 -0.0109 -1.0789
19418TIP3   OH279744   5.754   5.472   4.874  0.4465 -0.2742 -0.0153
19418TIP3    H179745   5.761   5.488   4.969  0.4062  0.0105 -0.0593
19418TIP3    H279746   5.665   5.440   4.863  0.3720 -0.0795  0.0128
19419TIP3   OH279747   4.043   1.185   0.844  0.3312 -0.4477  0.0847
19419TIP3    H179748   4.037   1.114   0.908  0.5077  1.4229  2.2621
19419TIP3    H279749   3.977   1.164   0.778 -0.1354 -2.2282  1.0825
19420TIP3   OH279750   6.085   5.619   2.855  0.5048 -0.0712 -0.4161
19420TIP3    H179751   6.076   5.532   2.894  0.9812  0.1632  0.2326
19420TIP3    H279752   6.031   5.616   2.776 -0.8112 -0.4104  0.4956
19421TIP3   OH279753   5.296   4.144  13.965  0.0519 -0.2331 -0.0468
19421TIP3    H179754   5.204   4.139  13.939  0.1298  2.8737 -1.0110
19421TIP3    H279755   5.295   4.124  14.059 -1.3812 -1.8474 -0.3864
19422TIP3   OH279756   3.385   3.933  15.686  0.5360 -0.3662  0.0193
19422TIP3    H179757   3.428   4.012  15.721 -0.1007  0.5913 -1.3095
19422TIP3    H279758   3.338   3.897  15.761  0.5795  0.6969  0.5783
19423TIP3   OH279759   4.873   1.601   3.498 -0.4347 -0.1918  0.1128
19423TIP3    H179760   4.960   1.577   3.530 -0.2463 -0.0495 -0.2924
19423TIP3    H279761   4.881   1.692   3.469 -0.2447 -0.7384 -1.6124
19424TIP3   OH279762   4.423   3.259   0.956  0.1220  0.3323 -0.2252
19424TIP3    H179763   4.348   3.222   1.003 -0.7774  2.3614 -0.0480
19424TIP3    H279764   4.478   3.297   1.024 -0.6044  2.2380 -0.6733
19425TIP3   OH279765   4.309   1.231  16.728  0.1378  1.1100 -0.3257
19425TIP3    H179766   4.351   1.261  16.648 -0.7746  0.4545 -1.0584
19425TIP3    H279767   4.290   1.312  16.776 -1.0537  1.6424 -1.6532
19426TIP3   OH279768   5.363   3.004  10.872  0.2219  0.6998 -0.2877
19426TIP3    H179769   5.443   2.998  10.925  1.4091 -1.7893 -2.1974
19426TIP3    H279770   5.343   3.097  10.869  1.4249  1.1118  2.5860
19427TIP3   OH279771   0.063   5.739  14.854  0.8021 -0.4922 -0.2554
19427TIP3    H179772  -0.030   5.738  14.877  1.0140  1.7974  0.8132
19427TIP3    H279773   0.065   5.766  14.762  0.4709  1.8031  0.3675
19428TIP3   OH279774   6.332   6.127   5.974 -0.4460  0.2676  0.3113
19428TIP3    H179775   6.264   6.102   6.037 -0.7162 -1.0182 -0.4680
19428TIP3    H279776   6.397   6.057   5.980 -0.3488  0.2777 -0.6518
19429TIP3   OH279777   3.772   4.496  12.296 -0.1078 -0.3240  0.3703
19429TIP3    H179778   3.807   4.543  12.371  1.0894  1.7013 -1.4070
19429TIP3    H279779   3.810   4.408  12.303  1.1318  0.2802  1.3716
19430TIP3   OH279780   0.770   6.667  15.930  0.3948  0.6875 -0.6279
19430TIP3    H179781   0.759   6.762  15.920  0.9531  0.8816  0.5136
19430TIP3    H279782   0.690   6.630  15.892  0.1583  1.6195 -1.0521
19431TIP3   OH279783   1.079   2.860  14.374 -0.3057 -0.2545  0.0758
19431TIP3    H179784   1.011   2.926  14.358 -0.1724 -0.4847 -1.4402
19431TIP3    H279785   1.084   2.810  14.293 -0.0066 -1.7861  1.0229
19432TIP3   OH279786   2.030   2.834  16.572  0.4410  0.4473 -0.1610
19432TIP3    H179787   2.068   2.790  16.496  0.8239  0.6536 -0.0934
19432TIP3    H279788   2.106   2.861  16.624  0.1985  0.9228 -0.0549
19433TIP3   OH279789   2.443   4.579   0.479  0.7648 -0.1892  0.1631
19433TIP3    H179790   2.503   4.644   0.515 -1.7172  2.4326 -0.2373
19433TIP3    H279791   2.368   4.580   0.538 -0.3941 -0.8271 -1.2539
19434TIP3   OH279792   4.678   6.395   2.647 -0.0249 -0.1515  0.1441
19434TIP3    H179793   4.650   6.322   2.702 -0.6453 -0.8239 -1.0407
19434TIP3    H279794   4.756   6.430   2.692  0.4428 -1.7076  0.5860
19435TIP3   OH279795   5.291   2.431   4.918  0.4654  0.2713 -0.1904
19435TIP3    H179796   5.262   2.340   4.925  1.0017 -0.0343 -1.7848
19435TIP3    H279797   5.386   2.426   4.925  0.4323  0.8240  0.7037
19436TIP3   OH279798   4.209   3.424   0.872  0.2550  0.6840 -0.4232
19436TIP3    H179799   4.277   3.421   0.938  0.4863 -1.0784 -0.7140
19436TIP3    H279800   4.256   3.430   0.789 -0.0002  1.6411 -0.5030
19437TIP3   OH279801   5.244   2.362   2.020  0.1017 -0.0461 -0.2206
19437TIP3    H179802   5.197   2.343   1.939  1.3098  1.9875 -1.4368
19437TIP3    H279803   5.272   2.453   2.011 -1.1419  0.7460  3.1930
19438TIP3   OH279804   3.637   0.431  16.319  0.1131  0.1215 -0.1199
19438TIP3    H179805   3.720   0.389  16.344  1.4696  1.8454 -1.6390
19438TIP3    H279806   3.660   0.523  16.307 -2.5276  1.0671  1.7305
19439TIP3   OH279807   0.837   3.663   3.069  0.4129  0.6122  0.3873
19439TIP3    H179808   0.844   3.577   3.029 -0.9280  0.0545  1.3425
19439TIP3    H279809   0.752   3.663   3.113  0.3763  2.4390  0.3524
19440TIP3   OH279810   3.719   1.129   6.750  0.6840 -1.3409  0.1524
19440TIP3    H179811   3.712   1.061   6.817 -1.2860 -0.4160  0.9208
19440TIP3    H279812   3.637   1.177   6.756  1.0175 -0.4467 -2.0844
19441TIP3   OH279813   6.597   0.831  15.067 -0.6912  0.4042 -0.4546
19441TIP3    H179814   6.576   0.924  15.055 -0.3634  0.6294  0.6381
19441TIP3    H279815   6.520   0.785  15.036 -0.3891  0.9934 -2.1325
19442TIP3   OH279816   1.108   2.771  16.102 -0.1878  0.2406  0.1277
19442TIP3    H179817   1.113   2.708  16.174  1.9506  0.3338  0.0872
19442TIP3    H279818   1.014   2.777  16.083 -0.8541  0.4145  3.0723
19443TIP3   OH279819   3.147   6.337   1.891  0.4074 -0.8662 -0.2354
19443TIP3    H179820   3.138   6.274   1.962  0.8707  0.2831  0.8670
19443TIP3    H279821   3.196   6.290   1.823  2.7604 -0.9722  1.4886
19444TIP3   OH279822   5.646   5.741  16.904 -0.5071 -0.3150  0.2395
19444TIP3    H179823   5.573   5.803  16.900 -0.0481  0.1352 -1.4512
19444TIP3    H279824   5.674   5.744  16.995 -0.3029  2.2034  0.1273
19445TIP3   OH279825   6.704   2.049   1.484 -0.4534 -0.6182 -0.2199
19445TIP3    H179826   6.667   2.112   1.545 -0.6030  1.6515 -2.5503
19445TIP3    H279827   6.784   2.018   1.527  0.2400  2.0501  0.5387
19446TIP3   OH279828   2.227   4.181  15.350 -0.1636  0.3581 -0.0967
19446TIP3    H179829   2.217   4.273  15.377  1.4350  1.1507 -2.0296
19446TIP3    H279830   2.321   4.167  15.347 -0.3489 -0.7570 -1.6570
19447TIP3   OH279831   1.327   5.375  11.903  0.2699 -0.8194 -0.1537
19447TIP3    H179832   1.382   5.373  11.824  1.3274  2.2885  0.4104
19447TIP3    H279833   1.238   5.359  11.871  0.3837  2.3969 -2.3534
19448TIP3   OH279834   4.226   2.146  16.726  0.3511  0.0416  0.0499
19448TIP3    H179835   4.232   2.207  16.653  2.7594  1.7317  1.6050
19448TIP3    H279836   4.168   2.189  16.789  1.0728  0.1818  0.6258
19449TIP3   OH279837   4.487   4.847   3.078  0.1455 -0.2903 -0.3584
19449TIP3    H179838   4.402   4.857   3.120  1.1991 -1.8823  2.2527
19449TIP3    H279839   4.511   4.935   3.050 -0.2567  0.9895  3.1210
19450TIP3   OH279840   4.112   0.747  15.785 -0.0372 -0.0509 -0.0415
19450TIP3    H179841   4.166   0.720  15.710  0.8237  1.5954 -0.0399
19450TIP3    H279842   4.038   0.793  15.745 -0.0193  0.0872  0.0835
19451TIP3   OH279843   5.391   1.600   2.586 -0.6143  0.0024  0.6938
19451TIP3    H179844   5.314   1.643   2.550  0.5569  0.0840 -1.8541
19451TIP3    H279845   5.387   1.511   2.551  0.0353 -0.2169  1.1752
19452TIP3   OH279846   3.798   2.492   0.570 -0.2108 -0.5553 -0.5725
19452TIP3    H179847   3.735   2.560   0.545  1.1473  0.8234 -0.3566
19452TIP3    H279848   3.844   2.471   0.489  0.3181 -0.1901 -0.3742
19453TIP3   OH279849   6.601   1.449   1.104 -0.2635 -0.6123 -0.0454
19453TIP3    H179850   6.519   1.411   1.073 -0.9953  2.0622 -1.5974
19453TIP3    H279851   6.575   1.511   1.173  0.6714 -1.3641  0.9878
19454TIP3   OH279852   5.024   3.534  15.496  0.0422 -0.1057  0.4855
19454TIP3    H179853   4.964   3.514  15.568  0.3267 -1.6308  0.3177
19454TIP3    H279854   5.108   3.499  15.525 -0.0832 -1.7150 -1.0398
19455TIP3   OH279855   2.867   6.818   2.058  0.1001  0.2106 -0.2038
19455TIP3    H179856   2.869   6.770   1.975 -2.5576  0.1215 -0.2652
19455TIP3    H279857   2.942   6.877   2.054  2.2109 -2.4411 -1.0336
19456TIP3   OH279858   3.911   3.100  14.002  0.5597  0.0347 -0.7232
19456TIP3    H179859   3.868   3.116  13.918  1.6628  1.7073 -0.9883
19456TIP3    H279860   3.961   3.020  13.988 -3.1987 -2.5987 -0.0887
19457TIP3   OH279861   0.298   6.102  13.475 -0.0965  0.5902 -0.4139
19457TIP3    H179862   0.277   6.149  13.556  0.6136 -0.3514  0.3225
19457TIP3    H279863   0.359   6.160  13.430 -0.7866  1.2943 -0.4687
19458TIP3   OH279864   6.142   2.593  15.999  0.3518  0.0154 -0.3140
19458TIP3    H179865   6.055   2.608  16.037  0.3226  0.8203 -0.7003
19458TIP3    H279866   6.193   2.556  16.071  0.0451  0.6911  0.2547
19459TIP3   OH279867   2.930   1.871  16.772  0.3212 -0.9046  0.0158
19459TIP3    H179868   2.870   1.889  16.700  0.7405 -0.2896 -0.1746
19459TIP3    H279869   3.012   1.844  16.730  0.6612 -0.2472  0.2593
19460TIP3   OH279870   3.538   1.569  12.945  0.2520  0.1473 -0.3104
19460TIP3    H179871   3.498   1.593  12.861 -0.4316  1.4396  0.3729
19460TIP3    H279872   3.464   1.551  13.003  0.7257 -0.8984 -0.0173
19461TIP3   OH279873   4.738   2.209   4.858 -0.0698  0.5738  0.1095
19461TIP3    H179874   4.819   2.259   4.850  0.2851  0.0210  0.2432
19461TIP3    H279875   4.705   2.229   4.945 -0.3746  1.2412 -0.1537
19462TIP3   OH279876   0.983   3.469   0.793  0.0407 -0.1394 -0.1380
19462TIP3    H179877   0.940   3.388   0.820 -0.2289  0.1477  0.2747
19462TIP3    H279878   1.011   3.451   0.703 -2.6117  0.3483 -1.0992
19463TIP3   OH279879   5.094   5.233  15.418 -0.3715 -0.0140 -0.1057
19463TIP3    H179880   5.112   5.195  15.332 -1.2296  0.2473 -0.4054
19463TIP3    H279881   5.138   5.174  15.479  1.0676  0.3374 -0.7749
19464TIP3   OH279882   2.374   3.723  13.737 -0.8239 -0.7412  0.8486
19464TIP3    H179883   2.330   3.806  13.752 -2.3265 -1.5361  0.9624
19464TIP3    H279884   2.413   3.700  13.821  3.5143  2.0130 -0.2543
19465TIP3   OH279885   2.286   4.395  17.130 -0.2377 -0.0210 -0.7285
19465TIP3    H179886   2.348   4.403  17.058 -1.8585  0.1745 -2.1383
19465TIP3    H279887   2.275   4.484  17.163 -1.4512  0.2899 -1.9412
19466TIP3   OH279888   5.343   0.118  17.042  0.0967 -0.0065 -0.4402
19466TIP3    H179889   5.355   0.147  17.133  1.1641  0.4333 -0.7113
19466TIP3    H279890   5.372   0.027  17.042 -1.1752 -0.4274 -0.0619
19467TIP3   OH279891   4.056   4.584  12.057  0.5218 -0.1881 -0.1400
19467TIP3    H179892   4.033   4.552  11.970  0.0411  1.2607 -0.5661
19467TIP3    H279893   3.977   4.627  12.089  1.7315  2.3549 -0.4519
19468TIP3   OH279894   0.528   0.441  13.596  0.0400 -0.1007 -0.0682
19468TIP3    H179895   0.588   0.484  13.657  0.5055 -1.4633  0.4571
19468TIP3    H279896   0.550   0.477  13.511 -1.1730  2.4488  0.6422
19469TIP3   OH279897   0.853   1.106  11.661 -0.0954  0.1499 -0.3652
19469TIP3    H179898   0.786   1.166  11.627 -0.0895  0.0826 -0.4962
19469TIP3    H279899   0.915   1.096  11.589  0.8378  1.3649  0.2575
19470TIP3   OH279900   6.159   2.350   5.101  0.2217 -0.0765 -0.7979
19470TIP3    H179901   6.242   2.303   5.095 -0.2009 -0.8743 -0.3611
19470TIP3    H279902   6.150   2.373   5.193 -0.2107 -0.2973 -0.7835
19471TIP3   OH279903   6.662   0.179  15.550 -0.3699  0.7204  0.4925
19471TIP3    H179904   6.621   0.114  15.608 -2.0466  0.0690 -1.3879
19471TIP3    H279905   6.637   0.264  15.588 -0.9849  0.2953  1.0574
19472TIP3   OH279906   3.160   2.530  15.566  0.1633  0.3428 -0.6035
19472TIP3    H179907   3.086   2.587  15.543 -1.3350 -1.6168 -0.7574
19472TIP3    H279908   3.126   2.441  15.555  1.8746 -0.6159  1.5119
19473TIP3   OH279909   0.740   0.836   1.737 -0.3034  0.5078 -0.2701
19473TIP3    H179910   0.770   0.908   1.792 -1.2301 -1.8074  3.5061
19473TIP3    H279911   0.799   0.835   1.663 -0.5001  5.3427 -0.6353
19474TIP3   OH279912   4.140   5.662   1.889  0.4699 -0.0061 -0.5652
19474TIP3    H179913   4.067   5.614   1.928  0.4387  0.6241  0.1792
19474TIP3    H279914   4.137   5.748   1.932  0.2073  0.8262 -2.2265
19475TIP3   OH279915   3.812   6.002  16.821  0.5027 -0.0707  0.3633
19475TIP3    H179916   3.744   6.055  16.862 -0.3105 -1.6436  1.1108
19475TIP3    H279917   3.767   5.922  16.792  1.3157  0.4668 -2.5242
19476TIP3   OH279918   4.508   6.458  11.148 -0.7656 -0.2469  0.3052
19476TIP3    H179919   4.548   6.517  11.085 -1.7145 -1.1878 -1.2234
19476TIP3    H279920   4.458   6.396  11.095 -1.5778 -1.0834  1.9806
19477TIP3   OH279921   4.660   3.657  16.627 -0.2224 -0.3207 -0.6436
19477TIP3    H179922   4.598   3.588  16.653 -0.4137  0.3013  0.6318
19477TIP3    H279923   4.710   3.674  16.707  1.6812 -0.8857 -1.6972
19478TIP3   OH279924   1.226   2.076   2.626  0.2935  0.1583  0.4628
19478TIP3    H179925   1.211   2.064   2.720 -0.3584  1.4235  0.5321
19478TIP3    H279926   1.142   2.054   2.586  1.2696 -2.8013 -0.0565
19479TIP3   OH279927   6.098   4.550   6.137 -0.3547 -0.1954  0.1561
19479TIP3    H179928   6.006   4.568   6.157 -0.0550  0.5123  0.9100
19479TIP3    H279929   6.116   4.467   6.180  0.0340  0.8685  2.0883
19480TIP3   OH279930   3.764   5.101  13.059 -0.2727  0.3424  0.8673
19480TIP3    H179931   3.685   5.108  13.005 -0.0265  2.1546  0.7119
19480TIP3    H279932   3.741   5.037  13.126 -1.9810  1.0127  0.9729
19481TIP3   OH279933   4.267   2.541   2.464  0.5091 -0.2273  0.0491
19481TIP3    H179934   4.310   2.456   2.476 -0.1769 -0.8229 -1.4959
19481TIP3    H279935   4.318   2.584   2.395 -0.0304 -0.0147 -0.2244
19482TIP3   OH279936   3.447   1.083   1.108 -0.1774  0.2584 -0.1674
19482TIP3    H179937   3.518   1.054   1.165 -0.2485  1.5333  0.6006
19482TIP3    H279938   3.428   1.008   1.052  1.5096 -0.2181 -0.1164
19483TIP3   OH279939   0.798   6.797   0.369 -0.1798 -0.3316 -0.2197
19483TIP3    H179940   0.874   6.794   0.426 -0.5101 -0.8630  0.2036
19483TIP3    H279941   0.831   6.772   0.283  0.2816  0.2875 -0.2200
19484TIP3   OH279942   0.288   1.841   1.923 -0.3553  0.5214  0.4743
19484TIP3    H179943   0.270   1.890   1.843 -1.3410  0.1075  0.4370
19484TIP3    H279944   0.326   1.758   1.893 -2.0729 -0.2440  0.3424
19485TIP3   OH279945   4.643   4.204   0.854 -0.4067  0.0511  0.2962
19485TIP3    H179946   4.715   4.247   0.899 -0.8480  0.3180  0.7482
19485TIP3    H279947   4.568   4.263   0.864 -0.5577  0.0299 -0.6301
19486TIP3   OH279948   3.251   2.574  14.162  0.1732  0.1832  0.3891
19486TIP3    H179949   3.342   2.591  14.140 -0.7083 -0.2697 -4.0455
19486TIP3    H279950   3.247   2.479  14.175  0.4101  0.2605  1.0394
19487TIP3   OH279951   1.299   0.163  15.149 -0.3941 -0.3925  0.1421
19487TIP3    H179952   1.212   0.202  15.164  0.3753  0.3021  3.1227
19487TIP3    H279953   1.360   0.236  15.155  0.5211 -1.0640 -0.7545
19488TIP3   OH279954   1.154   4.022   0.091  0.4502 -0.4551 -0.4066
19488TIP3    H179955   1.144   4.089   0.159  1.6022  0.5886 -1.2407
19488TIP3    H279956   1.207   3.954   0.132 -2.8978 -2.1150  1.2965
19489TIP3   OH279957   5.276   1.473  12.899 -0.6389 -0.3041 -0.1426
19489TIP3    H179958   5.253   1.461  12.991 -1.2507  2.7867  0.1767
19489TIP3    H279959   5.333   1.550  12.899  1.9849 -2.1599 -2.0179
19490TIP3   OH279960   4.377   1.112  17.032 -0.3689  0.5797 -0.2674
19490TIP3    H179961   4.390   1.206  17.033  1.1139  0.3893 -0.4134
19490TIP3    H279962   4.458   1.076  17.067 -1.1106 -0.6237  0.2545
19491TIP3   OH279963   0.944   2.925   4.329  0.8253  0.3679 -0.0233
19491TIP3    H179964   0.925   2.978   4.251  2.5142  0.3665 -0.4484
19491TIP3    H279965   0.913   2.979   4.402 -0.7893  0.3574 -0.6704
19492TIP3   OH279966   3.513   1.989  14.093 -0.2662  0.0223  0.2489
19492TIP3    H179967   3.556   1.908  14.065  1.1067 -0.1720  2.6993
19492TIP3    H279968   3.581   2.056  14.088 -0.7235  0.5104  0.4902
19493TIP3   OH279969   4.446   4.304  14.755 -0.0501  1.0605 -0.4611
19493TIP3    H179970   4.429   4.385  14.707  1.9639  1.2768 -0.8862
19493TIP3    H279971   4.471   4.241  14.687 -0.0735  0.5363  0.0147
19494TIP3   OH279972   2.415   1.329   0.732  0.3111 -0.5081  0.0740
19494TIP3    H179973   2.339   1.369   0.776  0.0545  1.1483 -1.7915
19494TIP3    H279974   2.490   1.359   0.783 -0.2053 -1.4786  1.4406
19495TIP3   OH279975   1.984   6.266   0.320  0.7328 -0.3387 -0.0019
19495TIP3    H179976   2.046   6.338   0.308  2.1413 -1.4875  0.1420
19495TIP3    H279977   1.907   6.306   0.360  1.1924  1.2060 -0.6473
19496TIP3   OH279978   5.164   4.416  15.219 -0.1609  0.1486  0.0465
19496TIP3    H179979   5.095   4.463  15.171 -2.6711 -2.0620  1.3170
19496TIP3    H279980   5.185   4.474  15.292 -0.0004  1.2589 -0.8644
19497TIP3   OH279981   5.772   0.204  12.368  0.1048 -0.2502 -0.1641
19497TIP3    H179982   5.725   0.229  12.447 -2.9383 -0.8416 -1.7085
19497TIP3    H279983   5.755   0.111  12.357  1.5021 -0.4442 -0.8697
19498TIP3   OH279984   0.590   1.205  12.582 -0.4635 -0.4486  0.0312
19498TIP3    H179985   0.667   1.214  12.525 -1.7857  0.2700 -1.6660
19498TIP3    H279986   0.516   1.197  12.522 -1.7570 -0.9652  1.6507
19499TIP3   OH279987   5.240   5.181   3.093  0.3257 -0.0363 -0.1930
19499TIP3    H179988   5.240   5.273   3.067  0.2588  0.2678  0.8342
19499TIP3    H279989   5.149   5.153   3.084 -0.0130  0.5312  1.2516
19500TIP3   OH279990   4.063   2.933  11.157 -0.6193 -0.3798  0.8875
19500TIP3    H179991   4.002   2.992  11.200 -0.6316  2.0011 -2.2060
19500TIP3    H279992   4.008   2.877  11.102 -0.2090  0.8293 -0.8124
19501TIP3   OH279993   2.626   0.304  13.957 -0.1045 -0.2909 -0.3881
19501TIP3    H179994   2.563   0.315  13.886  0.4128  0.1600 -0.7829
19501TIP3    H279995   2.589   0.354  14.030 -0.1583  0.0592 -0.6518
19502TIP3   OH279996   3.081   2.775  16.583 -0.4398  0.3021 -0.1143
19502TIP3    H179997   2.996   2.816  16.568 -0.7485 -0.0797  0.6041
19502TIP3    H279998   3.063   2.681  16.580  0.1210  0.2185 -0.9068
19503TIP3   OH279999   5.359   4.579  16.875 -0.0181 -0.2212  0.4857
19503TIP3    H180000   5.328   4.666  16.901  1.0690 -0.1246  1.5319
19503TIP3    H280001   5.282   4.535  16.840 -0.5987  1.1456 -0.0222
19504TIP3   OH280002   2.461   3.329  17.104 -0.7226 -0.0086  0.6081
19504TIP3    H180003   2.525   3.273  17.149  0.3632  0.5926 -0.1457
19504TIP3    H280004   2.445   3.286  17.021 -0.8475  0.1359  0.5561
19505TIP3   OH280005   2.765   0.201  14.206 -0.4572  0.4819  0.5413
19505TIP3    H180006   2.737   0.145  14.134  2.4141  0.5796 -0.7119
19505TIP3    H280007   2.721   0.285  14.190 -0.2994  0.3161 -0.7664
19506TIP3   OH280008   1.158   2.937   1.733 -0.5163  0.9386  0.2148
19506TIP3    H180009   1.087   2.879   1.761  0.5841  0.4814  2.1995
19506TIP3    H280010   1.116   2.999   1.673 -2.1179 -0.6646 -0.3710
19507TIP3   OH280011   0.094   5.752  15.134 -0.3121 -0.1325 -0.5084
19507TIP3    H180012   0.092   5.734  15.040 -2.0414  1.0934 -0.7285
19507TIP3    H280013   0.124   5.843  15.140 -0.6735 -0.0542  0.0908
19508TIP3   OH280014   5.475   0.992   1.085  0.1816  0.0436 -0.2076
19508TIP3    H180015   5.379   0.991   1.087  0.1274  1.3291 -1.2469
19508TIP3    H280016   5.498   1.085   1.089  1.4709 -0.3507  2.2513
19509TIP3   OH280017   1.434   2.745   0.272 -1.0756  0.4020  0.5669
19509TIP3    H180018   1.426   2.736   0.178 -2.2156  3.7479  0.2703
19509TIP3    H280019   1.528   2.755   0.288 -0.8642 -0.4041 -0.1863
19510TIP3   OH280020   5.128   6.463   3.690 -0.1233  0.9134  0.1478
19510TIP3    H180021   5.106   6.480   3.781 -1.3938 -0.2862  0.0751
19510TIP3    H280022   5.223   6.449   3.690  0.2169  3.1804  0.9207
19511TIP3   OH280023   1.309   3.848  16.624  0.0472 -0.7155  0.4538
19511TIP3    H180024   1.315   3.922  16.685  0.9403 -1.4675  1.3156
19511TIP3    H280025   1.346   3.881  16.542  0.2801 -0.1513  0.7821
19512TIP3   OH280026   1.117   6.791   4.000  0.3920  0.4072 -0.1152
19512TIP3    H180027   1.197   6.772   4.048  1.3074  1.3302 -1.2571
19512TIP3    H280028   1.086   6.874   4.037 -0.5985 -0.4312  1.0072
19513TIP3   OH280029   1.338   6.163   5.822 -0.0818  0.5365  0.0119
19513TIP3    H180030   1.368   6.237   5.770 -2.3094  1.8338  0.5346
19513TIP3    H280031   1.253   6.139   5.785  0.0601 -1.0075  0.6162
19514TIP3   OH280032   3.512   3.382  12.260  0.5372  0.3619 -0.1078
19514TIP3    H180033   3.552   3.359  12.344 -1.9048 -0.7459  0.7972
19514TIP3    H280034   3.461   3.461  12.279 -0.2906 -0.0840 -0.4551
19515TIP3   OH280035   5.993   3.820  13.195  0.0008 -0.1826  0.2381
19515TIP3    H180036   5.912   3.847  13.152  0.8659  2.2971  0.0958
19515TIP3    H280037   6.013   3.735  13.156 -1.2962  0.2438 -1.4167
19516TIP3   OH280038   5.340   6.306   5.138 -0.0350  0.0932 -0.3355
19516TIP3    H180039   5.328   6.401   5.128  1.2955  0.0475 -2.8118
19516TIP3    H280040   5.392   6.297   5.218 -1.2108  1.3510  0.6109
19517TIP3   OH280041   1.976   2.270  11.421 -0.6851  0.3790  0.2625
19517TIP3    H180042   2.019   2.270  11.335  0.4981  0.4737  0.8506
19517TIP3    H280043   2.007   2.189  11.463 -1.6103  0.1060  0.4351
19518TIP3   OH280044   5.964   4.624  14.439  0.3363  0.4856  0.2201
19518TIP3    H180045   5.898   4.684  14.473 -0.7522  0.0153 -1.0159
19518TIP3    H280046   5.920   4.539  14.436  0.9784  0.1751 -0.6652
19519TIP3   OH280047   4.436   4.757   5.714 -0.1425  0.1169  0.5098
19519TIP3    H180048   4.415   4.838   5.667 -0.5960  0.6293  1.5893
19519TIP3    H280049   4.494   4.785   5.785 -0.8337 -0.4162  1.2837
19520TIP3   OH280050   4.430   6.498  12.624  0.4085  0.3581 -0.5318
19520TIP3    H180051   4.444   6.538  12.539  0.6086  0.3294 -0.5124
19520TIP3    H280052   4.387   6.566  12.676  0.0928  0.3052 -0.7190
19521TIP3   OH280053   3.790   1.329   1.754 -0.1590 -0.2834  0.5979
19521TIP3    H180054   3.725   1.382   1.799 -0.4332  1.1556 -1.4365
19521TIP3    H280055   3.755   1.317   1.666  2.2995  0.5190 -0.5468
19522TIP3   OH280056   2.308   3.935   0.111  0.2427 -0.7884  0.8850
19522TIP3    H180057   2.248   3.863   0.090 -1.4933  0.1826  2.4606
19522TIP3    H280058   2.259   4.014   0.089  2.3719 -0.0480 -1.4370
19523TIP3   OH280059   5.778   0.419   5.566  0.4125  0.1154  0.4832
19523TIP3    H180060   5.737   0.434   5.651 -0.9252  0.4769 -0.2053
19523TIP3    H280061   5.743   0.489   5.510  2.0144  0.4547 -0.1160
19524TIP3   OH280062   3.528   6.034  14.536  0.2093 -0.0274 -0.1091
19524TIP3    H180063   3.607   5.995  14.573  0.5925 -1.0945 -1.9698
19524TIP3    H280064   3.456   5.997  14.586  0.7854 -0.4728  0.3926
19525TIP3   OH280065   3.713   4.355   3.773 -0.1508 -0.5630  0.1615
19525TIP3    H180066   3.643   4.304   3.816 -0.7284  0.7913  0.8345
19525TIP3    H280067   3.668   4.430   3.736  0.8120 -0.2049 -0.2828
19526TIP3   OH280068   6.552   4.240   1.742  0.2849 -0.4801 -0.2786
19526TIP3    H180069   6.573   4.169   1.682 -0.1079  0.0659 -1.0878
19526TIP3    H280070   6.622   4.304   1.729 -0.8800  0.5604 -1.6959
19527TIP3   OH280071   0.763   6.153   1.727 -0.3126 -0.0458 -0.4857
19527TIP3    H180072   0.766   6.104   1.645 -0.4529 -0.2789 -0.3504
19527TIP3    H280073   0.683   6.124   1.770  0.7541 -1.4138  0.6597
19528TIP3   OH280074   1.169   5.743  16.529  0.2730 -0.2219 -0.1410
19528TIP3    H180075   1.248   5.778  16.570  0.0026 -1.9321  1.8967
19528TIP3    H280076   1.105   5.738  16.600 -1.1362 -0.4581 -1.4035
19529TIP3   OH280077   0.817   4.035   6.383  0.0386 -0.1131  0.0800
19529TIP3    H180078   0.841   4.118   6.342 -0.0277  0.0286  0.3315
19529TIP3    H280079   0.797   3.977   6.309  0.8308 -0.1394 -0.1258
19530TIP3   OH280080   3.183   3.653  16.193  0.2373 -0.4103  0.3317
19530TIP3    H180081   3.258   3.614  16.146  0.1729 -0.3178  0.1510
19530TIP3    H280082   3.180   3.605  16.276  0.3860 -0.5393  0.2624
19531TIP3   OH280083   1.840   3.708   3.535 -0.2633  0.3224  0.5724
19531TIP3    H180084   1.785   3.780   3.505  0.6613  0.4046 -0.9547
19531TIP3    H280085   1.786   3.630   3.522 -0.4939  0.5337  0.2443
19532TIP3   OH280086   5.815   2.266   4.289  0.2117 -0.2324  0.1496
19532TIP3    H180087   5.779   2.347   4.323  0.1348  0.1848 -0.8944
19532TIP3    H280088   5.910   2.278   4.293  0.2689 -1.3226  2.8785
19533TIP3   OH280089   0.116   4.814  14.425 -0.3006  0.8793 -0.1557
19533TIP3    H180090   0.034   4.790  14.381 -0.7471  2.1488 -0.0191
19533TIP3    H280091   0.091   4.882  14.487  0.5846  0.1363  1.0447
19534TIP3   OH280092   3.916   5.663   5.436 -0.0314  0.0246 -0.2328
19534TIP3    H180093   3.858   5.707   5.374  0.7174  1.9465  0.3826
19534TIP3    H280094   3.991   5.636   5.383 -0.1090  0.2594 -0.4658
19535TIP3   OH280095   6.696   3.919  16.364  0.4785  0.1859  0.1034
19535TIP3    H180096   6.705   3.864  16.287 -1.6291 -1.1590  0.7668
19535TIP3    H280097   6.648   3.996  16.333  0.6440  0.1747 -0.1755
19536TIP3   OH280098   2.947   0.300  16.142 -0.8815 -0.1616  0.6799
19536TIP3    H180099   2.860   0.320  16.108  0.7323  0.9625 -3.0582
19536TIP3    H280100   2.974   0.380  16.187 -1.2202 -0.0043  0.5984
19537TIP3   OH280101   1.502   0.654   2.770 -0.0350  0.0953  0.4135
19537TIP3    H180102   1.558   0.654   2.848  0.0365  0.1686  0.3630
19537TIP3    H280103   1.528   0.733   2.723  1.1787 -0.8864 -0.5832
19538TIP3   OH280104   3.949   1.052  11.449  0.0237  0.2993  0.3081
19538TIP3    H180105   4.025   1.110  11.449  0.5360 -0.3628 -0.5088
19538TIP3    H280106   3.927   1.040  11.356 -0.4260 -0.3448  0.4904
19539TIP3   OH280107   4.776   2.587   1.818 -0.2773 -0.4907  0.3632
19539TIP3    H180108   4.855   2.641   1.826 -0.4857 -0.0500 -0.4971
19539TIP3    H280109   4.794   2.531   1.742 -0.1826 -1.4319  1.0697
19540TIP3   OH280110   5.000   6.809   4.127  0.1331  0.1792 -0.0443
19540TIP3    H180111   5.070   6.784   4.187 -0.0412 -2.3098 -0.8225
19540TIP3    H280112   4.984   6.902   4.146  0.7739 -0.2823  3.0394
19541TIP3   OH280113   3.049   0.432   6.750  0.0124 -0.1335  0.4562
19541TIP3    H180114   3.004   0.347   6.755 -0.2957 -0.0601 -0.8886
19541TIP3    H280115   2.978   0.495   6.737  0.4482  0.0128 -1.4059
19542TIP3   OH280116   1.134   0.213   1.642 -0.2355 -0.3191  0.0584
19542TIP3    H180117   1.226   0.187   1.632  0.1952  1.5178 -0.9668
19542TIP3    H280118   1.124   0.287   1.583 -2.9611 -1.8464 -1.4805
19543TIP3   OH280119   6.225   1.405  11.202  0.3011 -0.7004 -0.1050
19543TIP3    H180120   6.131   1.407  11.184  0.3362 -0.5315 -0.2709
19543TIP3    H280121   6.266   1.424  11.118  0.4388  1.5788  0.4552
19544TIP3   OH280122   0.927   3.617   1.605  0.0471  0.0838 -0.0950
19544TIP3    H180123   0.848   3.663   1.632 -0.3656 -0.4183 -0.4270
19544TIP3    H280124   0.924   3.620   1.509 -0.4615 -1.4072 -0.1459
19545TIP3   OH280125   4.726   2.271   4.532 -0.0341 -0.5648 -0.3258
19545TIP3    H180126   4.646   2.218   4.526  0.1341 -0.6908 -1.4527
19545TIP3    H280127   4.795   2.208   4.552 -0.1632 -0.4885  0.3938
19546TIP3   OH280128   0.109   2.259  13.064  0.2716 -0.5236  0.0371
19546TIP3    H180129   0.087   2.173  13.101 -0.2738 -1.0918 -1.5869
19546TIP3    H280130   0.201   2.252  13.041  0.4148 -0.4191  0.5543
19547TIP3   OH280131   3.236   0.616  16.145 -0.2003  0.2490 -0.9475
19547TIP3    H180132   3.307   0.604  16.082 -1.5786  0.6204 -2.6260
19547TIP3    H280133   3.269   0.577  16.226  3.0758  3.1478 -0.8057
19548TIP3   OH280134   6.336   5.707   3.115  0.2151 -0.3513 -0.0309
19548TIP3    H180135   6.253   5.715   3.070  0.1556 -0.8780 -0.0211
19548TIP3    H280136   6.364   5.797   3.132 -0.3011 -0.1757 -0.1225
19549TIP3   OH280137   6.561   6.552  12.644  0.1708 -0.0807 -0.3865
19549TIP3    H180138   6.520   6.634  12.674  1.1932  0.4751 -0.5080
19549TIP3    H280139   6.644   6.579  12.605  1.3973 -1.3818  1.2947
19550TIP3   OH280140   4.498   6.748  15.476 -0.0563  0.2190  0.0761
19550TIP3    H180141   4.481   6.795  15.558 -0.1800  1.9643 -0.9479
19550TIP3    H280142   4.447   6.794  15.410  1.1661 -0.3031 -1.2625
19551TIP3   OH280143   1.107   2.932  15.204 -0.5783 -0.1668 -0.5152
19551TIP3    H180144   1.101   2.912  15.111 -1.5838 -1.1704 -0.2491
19551TIP3    H280145   1.116   3.027  15.207 -0.9812 -0.0796 -1.6211
19552TIP3   OH280146   0.564   5.494  17.208 -0.3336  0.1718  0.0379
19552TIP3    H180147   0.568   5.571  17.152 -0.2305 -0.6029 -1.0555
19552TIP3    H280148   0.622   5.514  17.281  0.0078  0.9624 -0.4454
19553TIP3   OH280149   0.813   3.657   4.314 -0.0204 -0.3143  0.1031
19553TIP3    H180150   0.800   3.564   4.334  1.3837 -0.9687 -1.8090
19553TIP3    H280151   0.739   3.701   4.355 -1.9789 -2.5416 -0.9237
19554TIP3   OH280152   5.065   3.751   2.149  0.0144  0.0891  0.1271
19554TIP3    H180153   4.984   3.770   2.197  0.6006  0.1983  1.0785
19554TIP3    H280154   5.045   3.671   2.100 -0.9339  0.5566 -0.2733
19555TIP3   OH280155   4.274   4.721  12.930 -0.6656 -0.0738  0.0743
19555TIP3    H180156   4.345   4.660  12.950 -0.7194 -0.8838 -1.9845
19555TIP3    H280157   4.271   4.781  13.004  1.3445 -0.7918  0.7608
19556TIP3   OH280158   5.177   0.091   2.856 -0.2825 -0.3738  0.3135
19556TIP3    H180159   5.135   0.145   2.790 -0.4587 -0.3915  0.4118
19556TIP3    H280160   5.108   0.070   2.918 -0.0900 -0.2597  0.5658
19557TIP3   OH280161   2.254   5.011  12.525 -0.2905 -0.4957 -0.6489
19557TIP3    H180162   2.288   5.070  12.593 -1.5078  0.7751 -1.1097
19557TIP3    H280163   2.178   5.057  12.490 -1.9815 -2.8925 -0.2273
19558TIP3   OH280164   3.912   5.525   6.022 -0.0855 -0.0806  0.1074
19558TIP3    H180165   3.899   5.567   6.107 -2.0676 -0.0576 -0.1621
19558TIP3    H280166   3.901   5.432   6.039  1.1604 -0.2247  0.1534
19559TIP3   OH280167   2.662   2.233  11.125 -0.4944 -0.1616 -0.0047
19559TIP3    H180168   2.674   2.153  11.074 -0.6771 -0.2507  0.0891
19559TIP3    H280169   2.608   2.289  11.069 -1.7851 -0.7704  0.6216
19560TIP3   OH280170   2.250   3.711  10.775 -0.6261  0.2585 -0.4073
19560TIP3    H180171   2.308   3.767  10.827 -1.0615  0.2014  0.1561
19560TIP3    H280172   2.308   3.647  10.734  0.0402  1.9276 -2.1391
19561TIP3   OH280173   0.145   1.417  17.285  0.0914 -0.3089 -0.4071
19561TIP3    H180174   0.075   1.451  17.230 -0.1215 -1.5732 -0.9394
19561TIP3    H280175   0.173   1.492  17.337 -1.3477  0.3240 -0.5137
19562TIP3   OH280176   5.150   1.614  12.495  0.4881  0.4560  0.2947
19562TIP3    H180177   5.063   1.654  12.501  0.4720  0.6535 -1.1087
19562TIP3    H280178   5.138   1.527  12.533 -1.0790 -0.6533 -2.5820
19563TIP3   OH280179   1.214   1.186   4.690 -0.0647 -0.3484  0.0824
19563TIP3    H180180   1.217   1.141   4.605 -0.4782  1.9287 -1.1760
19563TIP3    H280181   1.306   1.198   4.713  0.0539 -1.9308  0.4999
19564TIP3   OH280182   0.366   4.660  11.718 -0.1107  0.0924 -0.1745
19564TIP3    H180183   0.421   4.584  11.700 -1.6111 -0.2338 -3.9780
19564TIP3    H280184   0.279   4.623  11.734 -0.4044  0.8728  0.0482
19565TIP3   OH280185   4.385   2.586   3.406  0.6362 -0.1259  0.4835
19565TIP3    H180186   4.448   2.640   3.453  0.4678 -0.3532  0.9746
19565TIP3    H280187   4.303   2.635   3.409  0.5189 -0.3387  0.8032
19566TIP3   OH280188   0.324   1.468  14.021 -0.2507 -0.4922  0.1048
19566TIP3    H180189   0.336   1.516  13.939  0.3885 -0.2452  0.3482
19566TIP3    H280190   0.289   1.532  14.082 -0.7672 -0.6869  0.0212
19567TIP3   OH280191   3.457   1.750   3.222  0.0293 -0.6408  0.1720
19567TIP3    H180192   3.420   1.792   3.299  2.6660  2.4592 -0.1780
19567TIP3    H280193   3.392   1.683   3.198 -3.0432  1.4462  2.2919
19568TIP3   OH280194   3.682   4.779  16.663  0.2546 -0.1781 -0.2318
19568TIP3    H180195   3.693   4.748  16.752  0.1158  0.6897  0.0917
19568TIP3    H280196   3.628   4.713  16.621  2.1405 -1.7253 -0.3119
19569TIP3   OH280197   3.115   5.300  16.022  0.5508  0.4128  0.1403
19569TIP3    H180198   3.199   5.328  15.985  0.4302 -0.8381 -1.1105
19569TIP3    H280199   3.120   5.326  16.114  2.8971 -0.9333  0.4274
19570TIP3   OH280200   5.317   1.835  13.512 -0.1601 -0.1878  0.0176
19570TIP3    H180201   5.261   1.891  13.566  0.8975 -0.4073  1.3779
19570TIP3    H280202   5.344   1.891  13.439 -0.6319  0.4918  0.3597
19571TIP3   OH280203   2.653   2.860   5.544 -0.0616 -0.4844 -0.9745
19571TIP3    H180204   2.717   2.931   5.550  0.4328 -0.8539 -1.8581
19571TIP3    H280205   2.568   2.904   5.551  0.2724 -0.0520  0.8068
19572TIP3   OH280206   2.775   6.772   5.579  0.1686  0.1170 -0.2165
19572TIP3    H180207   2.836   6.815   5.639 -0.5943  1.2935 -0.2709
19572TIP3    H280208   2.818   6.689   5.557  2.1449  1.2961 -0.9349
19573TIP3   OH280209   3.742   2.937   3.543  0.1414  0.2863 -0.2724
19573TIP3    H180210   3.756   2.877   3.617 -0.9071  0.6669  0.2458
19573TIP3    H280211   3.823   2.987   3.538  0.6391 -0.4872 -0.0685
19574TIP3   OH280212   5.750   2.731  10.583 -0.0706 -0.4256 -0.3210
19574TIP3    H180213   5.735   2.818  10.621  0.2818 -0.2304 -0.6296
19574TIP3    H280214   5.831   2.740  10.533  0.6978 -1.2796  0.7440
19575TIP3   OH280215   4.302   0.685  15.559  0.1701 -0.1716 -0.4407
19575TIP3    H180216   4.387   0.728  15.558 -0.3536  0.8831 -0.5181
19575TIP3    H280217   4.281   0.670  15.467  1.3725 -2.6961 -0.3544
19576TIP3   OH280218   5.819   6.567  16.531 -0.1817  0.0087  0.2393
19576TIP3    H180219   5.816   6.593  16.623 -0.8810 -1.4617  0.6492
19576TIP3    H280220   5.737   6.600  16.494 -0.1284  0.1646  0.2597
19577TIP3   OH280221   3.655   2.267  15.214 -0.0841 -0.1345 -0.2683
19577TIP3    H180222   3.615   2.315  15.141 -0.9461 -0.9532 -0.3519
19577TIP3    H280223   3.651   2.329  15.287  0.8064  0.6995 -0.9110
19578TIP3   OH280224   5.027   2.704   5.423 -0.2433 -0.1945  0.0651
19578TIP3    H180225   4.984   2.694   5.508  0.6606 -1.3736  0.4011
19578TIP3    H280226   5.070   2.789   5.428  1.5846 -1.1471  1.6361
19579TIP3   OH280227   5.812   0.074  16.159  0.2696 -0.5380  0.0230
19579TIP3    H180228   5.738   0.074  16.098  2.6265 -0.1623 -2.9599
19579TIP3    H280229   5.865   0.149  16.134  1.9135 -1.0475  1.7943
19580TIP3   OH280230   4.265   1.046  12.884 -0.1618  0.1122 -0.1308
19580TIP3    H180231   4.283   0.955  12.860  1.1279  0.8045 -1.8582
19580TIP3    H280232   4.202   1.076  12.818  0.4623  0.8776 -0.3833
19581TIP3   OH280233   3.449   0.617  15.743 -0.1295  0.8616  0.1917
19581TIP3    H180234   3.428   0.559  15.816 -1.7993  2.7811  1.3251
19581TIP3    H280235   3.385   0.595  15.675 -1.3088  1.8867  0.9397
19582TIP3   OH280236   1.077   1.807  13.748 -0.2208  0.1186 -0.2004
19582TIP3    H180237   1.096   1.900  13.762  1.4391  0.2129 -2.6691
19582TIP3    H280238   1.009   1.806  13.681 -1.3989 -0.4546  0.9727
19583TIP3   OH280239   5.977   4.950  11.636  0.1516 -0.0835 -0.0234
19583TIP3    H180240   5.964   4.982  11.546  1.5403 -0.4131 -0.3480
19583TIP3    H280241   6.034   5.014  11.677 -1.2874  0.5978  0.9563
19584TIP3   OH280242   1.600   5.642   1.447 -0.5654 -0.6574 -0.1865
19584TIP3    H180243   1.609   5.552   1.415  0.1476 -0.0853 -1.6143
19584TIP3    H280244   1.551   5.687   1.379 -2.2589 -0.3112  1.2108
19585TIP3   OH280245   6.561   6.758  14.928 -0.2667 -0.1637  0.0354
19585TIP3    H180246   6.623   6.705  14.877  0.5776  0.4297  0.4197
19585TIP3    H280247   6.544   6.834  14.873 -0.4407 -0.1996  0.0414
19586TIP3   OH280248   3.404   2.385   0.926  0.1955  0.2407  0.0162
19586TIP3    H180249   3.469   2.315   0.924  1.4692  1.3440  1.2301
19586TIP3    H280250   3.330   2.351   0.877  0.6572 -2.0551  0.8596
19587TIP3   OH280251   4.386   2.690   0.723 -0.6102 -0.4784  0.2834
19587TIP3    H180252   4.325   2.676   0.650  0.5249  1.0180 -0.9842
19587TIP3    H280253   4.384   2.607   0.772 -1.4566 -1.4791 -1.3952
19588TIP3   OH280254   0.545   5.121   3.903 -0.1423  0.0087  0.1618
19588TIP3    H180255   0.510   5.060   3.839 -2.2564 -0.1785  1.4506
19588TIP3    H280256   0.608   5.070   3.954 -1.6955 -1.0681  1.0532
19589TIP3   OH280257   6.198   1.072  10.616 -0.1972 -0.1447 -0.4163
19589TIP3    H180258   6.118   1.120  10.592 -0.0449  0.0277 -0.5776
19589TIP3    H280259   6.269   1.133  10.598  0.1692 -1.2173 -2.7761
19590TIP3   OH280260   0.618   0.569   4.310  0.3787  0.4403  0.2043
19590TIP3    H180261   0.635   0.658   4.339  1.8522 -0.2215  1.5042
19590TIP3    H280262   0.635   0.571   4.215 -1.6901  1.9927 -0.1516
19591TIP3   OH280263   6.242   1.690   5.382 -0.1039  0.1288  0.0983
19591TIP3    H180264   6.206   1.750   5.317  0.3269 -1.4902 -1.6638
19591TIP3    H280265   6.207   1.723   5.465 -2.8977  0.6336 -1.1910
19592TIP3   OH280266   4.351   6.532  15.876  0.1709 -0.1124  0.5601
19592TIP3    H180267   4.437   6.548  15.837 -0.0704 -1.5062 -0.6081
19592TIP3    H280268   4.310   6.469  15.817 -0.8738 -0.9862  2.1912
19593TIP3   OH280269   4.639   1.559  15.045  0.0062  0.3348  0.0699
19593TIP3    H180270   4.592   1.506  14.981 -1.3525  0.1002  1.2472
19593TIP3    H280271   4.608   1.529  15.130 -0.1546  2.4032  0.7920
19594TIP3   OH280272   1.299   1.424   1.736 -0.2423  0.7327  0.6794
19594TIP3    H180273   1.286   1.444   1.643  2.8454  0.0257  0.0387
19594TIP3    H280274   1.346   1.500   1.771 -0.5062  0.5511  1.4398
19595TIP3   OH280275   6.013   5.414  13.074  0.4620 -1.0768  0.5234
19595TIP3    H180276   6.011   5.502  13.112 -2.1008 -0.7774 -0.2561
19595TIP3    H280277   6.106   5.399  13.054  0.9581  1.3478  0.8687
19596TIP3   OH280278   4.900   0.290  13.831  0.4949 -0.0991  0.9806
19596TIP3    H180279   4.877   0.382  13.846  1.2018  0.3194 -0.4284
19596TIP3    H280280   4.851   0.242  13.898 -2.6727  0.9665 -0.4880
19597TIP3   OH280281   2.044   4.295  12.343 -0.1448  0.1224 -0.1664
19597TIP3    H180282   2.036   4.388  12.367  1.4260  0.5277 -1.1981
19597TIP3    H280283   1.983   4.285  12.270 -2.7067 -0.4350  1.9259
19598TIP3   OH280284   3.330   1.532   4.650  0.2893 -0.0064 -0.3912
19598TIP3    H180285   3.277   1.515   4.572  0.2949  0.0528 -0.4081
19598TIP3    H280286   3.267   1.536   4.722  0.3367 -0.5834 -0.3155
19599TIP3   OH280287   1.214   6.617  14.030 -0.4582  0.6188 -0.6913
19599TIP3    H180288   1.289   6.559  14.032 -0.2344  0.9276 -0.2176
19599TIP3    H280289   1.251   6.705  14.020 -0.7316  0.8245  0.0814
19600TIP3   OH280290   5.948   1.751   4.531  0.2784 -0.6347  0.2445
19600TIP3    H180291   5.898   1.704   4.597  0.4148 -0.0406  0.7718
19600TIP3    H280292   5.886   1.766   4.460 -0.0405 -0.7108  0.5059
19601TIP3   OH280293   0.309   5.087   3.332  0.1048  0.2929 -0.8057
19601TIP3    H180294   0.312   5.066   3.239 -1.7837 -1.1344 -0.5511
19601TIP3    H280295   0.333   5.006   3.376 -0.0654  0.6749 -0.0009
19602TIP3   OH280296   4.589   3.654   0.331 -0.3793 -0.0377 -0.3961
19602TIP3    H180297   4.515   3.704   0.295 -0.1662  0.5576 -0.0162
19602TIP3    H280298   4.596   3.683   0.422 -0.0931 -0.5754 -0.2474
19603TIP3   OH280299   2.213   2.599   3.340 -0.4953  1.0617 -0.0372
19603TIP3    H180300   2.215   2.505   3.360 -1.2296  0.5401 -2.2402
19603TIP3    H280301   2.129   2.629   3.374 -0.7767  0.6550 -0.3658
19604TIP3   OH280302   6.664   4.915   0.308 -0.9745 -0.0852  0.0268
19604TIP3    H180303   6.695   4.922   0.218  1.4260 -0.3566  0.8013
19604TIP3    H280304   6.611   4.994   0.322 -0.4329  0.5109 -1.2641
19605TIP3   OH280305   5.021   3.809  12.698  0.1576  0.3903  0.5885
19605TIP3    H180306   5.116   3.819  12.712  0.0857 -1.0643  2.2576
19605TIP3    H280307   4.983   3.824  12.784 -0.8944 -1.8697  0.5305
19606TIP3   OH280308   0.266   5.901  15.864 -0.7336  0.8119  0.7962
19606TIP3    H180309   0.207   5.920  15.791 -0.0784  0.0979  0.0703
19606TIP3    H280310   0.233   5.821  15.903  0.6027 -0.4461 -0.5597
19607TIP3   OH280311   5.787   4.434   5.236  0.2276 -0.2654  0.4048
19607TIP3    H180312   5.835   4.514   5.255 -0.5437  0.1053  0.8491
19607TIP3    H280313   5.841   4.387   5.174  0.3346  0.9673 -0.4528
19608TIP3   OH280314   6.809   0.264  10.845  0.3153 -0.1090  0.3315
19608TIP3    H180315   6.809   0.341  10.788 -1.3351  0.4227  1.0480
19608TIP3    H280316   6.734   0.212  10.816  0.2150 -0.4486  1.1974
19609TIP3   OH280317   0.870   5.955   3.091  0.1009 -0.2089 -0.2570
19609TIP3    H180318   0.961   5.930   3.077  0.0420 -1.3763  1.3035
19609TIP3    H280319   0.846   6.003   3.012  2.3582  0.9928 -0.2499
19610TIP3   OH280320   0.161   2.952   3.923  0.2467 -0.7270 -0.7409
19610TIP3    H180321   0.145   2.954   4.018  0.0119 -0.8687 -0.7773
19610TIP3    H280322   0.186   3.042   3.901 -0.4316 -0.5171 -0.6706
19611TIP3   OH280323   6.220   5.998   1.145  0.4114  0.3050  0.4611
19611TIP3    H180324   6.180   5.914   1.167  0.1497  0.3755  0.2481
19611TIP3    H280325   6.146   6.057   1.130  0.5757  0.1202 -1.1662
19612TIP3   OH280326   1.946   4.750  10.859  0.6919  0.5179 -0.0861
19612TIP3    H180327   1.993   4.688  10.803  1.3856  1.5852 -0.7172
19612TIP3    H280328   2.010   4.820  10.875  0.2967  0.5278  1.5327
19613TIP3   OH280329   0.771   6.251   2.047 -0.7728 -0.0710  0.1286
19613TIP3    H180330   0.827   6.225   1.973  0.9617 -0.8435  1.6554
19613TIP3    H280331   0.729   6.332   2.018  1.8397  1.0398 -0.7683
19614TIP3   OH280332   5.400   4.103   5.583  0.2392 -0.4581 -0.2326
19614TIP3    H180333   5.418   4.067   5.669  0.0509 -0.3197 -0.1351
19614TIP3    H280334   5.378   4.195   5.599  1.5404 -0.0741 -0.5595
19615TIP3   OH280335   1.540   6.511  13.389  0.1146 -0.2917  0.3608
19615TIP3    H180336   1.568   6.447  13.324  0.1528 -0.2892  0.3741
19615TIP3    H280337   1.611   6.513  13.453  0.1272 -0.2121  0.3431
19616TIP3   OH280338   3.875   6.448   5.442 -0.0455  0.3773 -0.6814
19616TIP3    H180339   3.847   6.357   5.432  1.0561  0.1150 -1.4448
19616TIP3    H280340   3.823   6.481   5.516 -0.4731 -0.8541 -0.4205
19617TIP3   OH280341   5.911   6.581  11.370 -0.1491 -0.4360  0.4713
19617TIP3    H180342   5.900   6.525  11.447  0.4990 -0.7179  0.3658
19617TIP3    H280343   5.989   6.546  11.327  1.1362  1.4623  1.1936
19618TIP3   OH280344   1.651   1.331   1.547  0.1889  0.3280  0.2768
19618TIP3    H180345   1.606   1.253   1.578 -2.3694  2.4193  2.0280
19618TIP3    H280346   1.608   1.353   1.465  1.2090 -0.3082 -0.4479
19619TIP3   OH280347   0.458   3.034   2.571 -0.1595  0.3972 -0.2675
19619TIP3    H180348   0.458   2.971   2.644  0.8538  0.8416  0.1181
19619TIP3    H280349   0.404   3.106   2.603  2.0584  1.5785  0.9179
19620TIP3   OH280350   1.653   4.413  12.423  0.3955  0.4413 -0.5986
19620TIP3    H180351   1.638   4.345  12.357 -0.0784 -0.0812  0.0418
19620TIP3    H280352   1.640   4.368  12.507  1.2906  1.0280 -0.1409
19621TIP3   OH280353   3.409   0.653   3.005 -0.0279 -0.1131  0.2047
19621TIP3    H180354   3.474   0.724   3.002  0.1849 -0.3092  0.1409
19621TIP3    H280355   3.461   0.573   3.002 -0.3050 -0.2712 -0.5465
19622TIP3   OH280356   6.168   0.584  14.887 -0.3131 -0.2477  0.2098
19622TIP3    H180357   6.083   0.611  14.922 -0.2629 -0.0150  0.1560
19622TIP3    H280358   6.150   0.562  14.796 -0.0706  1.1111 -0.1861
19623TIP3   OH280359   0.628   3.266  12.331 -0.0062 -1.0640  0.0532
19623TIP3    H180360   0.712   3.266  12.285 -0.2747 -0.8996 -0.4426
19623TIP3    H280361   0.612   3.357  12.353 -0.0769 -1.0867  0.0975
19624TIP3   OH280362   3.206   3.598   2.756 -0.3542 -0.1438  0.1838
19624TIP3    H180363   3.135   3.648   2.716  0.1094 -0.2941 -0.8572
19624TIP3    H280364   3.179   3.506   2.748 -0.1355 -0.1907 -0.0453
19625TIP3   OH280365   4.640   0.438  16.054  0.0839  0.3069 -0.2235
19625TIP3    H180366   4.680   0.507  16.001  1.4633  0.9525  1.6133
19625TIP3    H280367   4.703   0.422  16.124 -1.6755 -0.5874  1.1920
19626TIP3   OH280368   4.186   5.955  13.078  0.0204  0.1193  0.2316
19626TIP3    H180369   4.200   5.892  13.008  0.0092  2.5902 -2.0967
19626TIP3    H280370   4.164   5.902  13.155  2.0023 -2.7791 -1.1071
19627TIP3   OH280371   6.082   1.390   1.627  0.0010 -0.3404  0.2915
19627TIP3    H180372   6.167   1.434   1.629 -0.3176  0.2342  1.5277
19627TIP3    H280373   6.036   1.432   1.554  1.1420 -1.3817 -1.0579
19628TIP3   OH280374   4.304   1.351  14.618  0.1400 -0.1625  0.0520
19628TIP3    H180375   4.256   1.428  14.586  0.3715  0.0781  0.2796
19628TIP3    H280376   4.259   1.277  14.578  0.4011  0.1306 -0.8127
19629TIP3   OH280377   5.416   1.788  10.826  0.1735 -0.2533 -0.2660
19629TIP3    H180378   5.371   1.777  10.910  1.0198  1.0368  0.3760
19629TIP3    H280379   5.370   1.728  10.766 -1.6254  0.1593  0.6563
19630TIP3   OH280380   2.381   2.778   2.043  0.1286 -0.1950 -0.4682
19630TIP3    H180381   2.381   2.800   1.950 -0.8690 -0.6785 -0.5840
19630TIP3    H280382   2.309   2.829   2.080 -0.7318 -1.5136 -0.3188
19631TIP3   OH280383   2.450   0.145  14.921  0.4956 -0.1519 -0.4607
19631TIP3    H180384   2.379   0.172  14.980  0.6668  0.6632 -0.6152
19631TIP3    H280385   2.516   0.107  14.979  1.8341  3.0694  0.2278
19632TIP3   OH280386   0.958   0.735   4.169  0.3309  0.8020 -0.4396
19632TIP3    H180387   0.967   0.830   4.173 -1.5325  1.1102 -2.4149
19632TIP3    H280388   0.878   0.716   4.219  1.5416  0.0837  1.2714
19633TIP3   OH280389   6.151   5.045   4.847  0.1752  0.4079  0.1010
19633TIP3    H180390   6.238   5.014   4.875 -0.4851 -0.6115  1.1022
19633TIP3    H280391   6.141   5.130   4.889 -0.0129 -0.2606  1.4656
19634TIP3   OH280392   2.973   3.108   0.882  0.0595 -0.4918  0.1741
19634TIP3    H180393   2.917   3.080   0.954 -0.0256  1.4332  0.8864
19634TIP3    H280394   3.056   3.063   0.897  0.4642  0.8778  2.2384
19635TIP3   OH280395   6.744   2.895  11.955 -0.9585  0.0263 -0.4598
19635TIP3    H180396   6.824   2.947  11.960  1.2674 -3.3661  0.5329
19635TIP3    H280397   6.702   2.906  12.040 -1.0444  0.9869 -0.6216
19636TIP3   OH280398   0.804   4.396   2.364 -0.0158 -0.4169 -0.1191
19636TIP3    H180399   0.760   4.472   2.326  0.7216  0.7734  1.4032
19636TIP3    H280400   0.732   4.338   2.390 -0.6547  0.8220  0.9044
19637TIP3   OH280401   3.743   2.910  16.337  0.7206  0.1424  0.1989
19637TIP3    H180402   3.653   2.881  16.324  0.4362  1.4388 -0.9146
19637TIP3    H280403   3.772   2.868  16.418  0.2785 -3.0399 -1.2407
19638TIP3   OH280404   6.019   5.220   6.140 -0.0058 -0.8257 -0.2052
19638TIP3    H180405   6.041   5.278   6.212 -0.4243  0.8276 -1.3908
19638TIP3    H280406   6.103   5.199   6.099  0.1595 -1.1876  0.3172
19639TIP3   OH280407   1.948   3.681   5.492  0.2625  0.1946 -0.3635
19639TIP3    H180408   2.015   3.735   5.534 -1.0662  0.5611  1.3213
19639TIP3    H280409   1.969   3.591   5.519  1.9679 -0.0950 -2.4808
19640TIP3   OH280410   2.384   6.402   4.185  0.0447 -0.1655  0.2633
19640TIP3    H180411   2.416   6.485   4.220 -1.0456 -0.1402  1.2319
19640TIP3    H280412   2.348   6.425   4.099  1.2871  0.0506 -0.2154
19641TIP3   OH280413   4.777   6.279   4.148  0.0096 -0.2091 -0.3559
19641TIP3    H180414   4.821   6.362   4.128  0.0633 -0.4201 -1.1473
19641TIP3    H280415   4.689   6.289   4.112  0.1077 -0.5971 -0.7129
19642TIP3   OH280416   6.058   1.681  11.627  0.0485 -0.1814 -0.0860
19642TIP3    H180417   6.027   1.768  11.652  0.6151 -0.0526  0.1611
19642TIP3    H280418   6.098   1.645  11.706  1.9329  0.2698 -0.7958
19643TIP3   OH280419   2.442   5.896   2.408  0.2913 -0.2693  0.1623
19643TIP3    H180420   2.365   5.941   2.441 -0.0990 -0.5780 -0.3287
19643TIP3    H280421   2.434   5.900   2.313  0.6629 -0.6779  0.1102
19644TIP3   OH280422   3.959   3.819   2.010 -0.0912 -0.3375 -0.1329
19644TIP3    H180423   3.895   3.806   1.940  0.6698  0.2063 -0.9457
19644TIP3    H280424   3.953   3.912   2.031  1.9538  0.1914 -1.7363
19645TIP3   OH280425   0.813   5.881   1.271 -1.1095 -0.9089 -0.2338
19645TIP3    H180426   0.891   5.869   1.218 -1.3216  1.3483 -1.1441
19645TIP3    H280427   0.742   5.846   1.218 -1.2956  1.1707 -1.4357
19646TIP3   OH280428   5.424   3.906  16.476 -0.1078 -0.3533 -0.4875
19646TIP3    H180429   5.386   3.864  16.399 -1.7863  0.2371 -0.0011
19646TIP3    H280430   5.357   3.967  16.506 -0.0397 -1.5633  2.2460
19647TIP3   OH280431   4.227   5.420   1.356  0.5298 -0.2523 -0.0271
19647TIP3    H180432   4.278   5.339   1.356  0.4233 -0.3232  1.1640
19647TIP3    H280433   4.238   5.456   1.444 -0.9715  0.0613  0.0398
19648TIP3   OH280434   0.086   3.451   6.635  0.5870  0.8198 -0.4366
19648TIP3    H180435   0.162   3.451   6.693 -1.0870  0.3164  1.8313
19648TIP3    H280436   0.065   3.543   6.624  1.5620  0.9641 -1.1289
19649TIP3   OH280437   5.064   5.512  12.332  0.1767 -0.1364 -0.1053
19649TIP3    H180438   4.976   5.542  12.355 -0.3851 -1.4699 -0.4752
19649TIP3    H280439   5.108   5.591  12.301 -1.5329  0.1652 -1.8597
19650TIP3   OH280440   5.354   5.003  15.140  0.3281  0.4489 -0.3790
19650TIP3    H180441   5.369   5.028  15.231 -0.3882 -1.3955  0.2525
19650TIP3    H280442   5.442   4.999  15.102  0.6303  1.2074  0.2150
19651TIP3   OH280443   2.064   1.749   3.464 -0.6813 -0.3752  0.1753
19651TIP3    H180444   2.105   1.722   3.381  1.6772  2.0598  0.4578
19651TIP3    H280445   1.984   1.793   3.438  0.7820  1.6829 -0.9464
19652TIP3   OH280446   5.509   0.937  13.212 -0.0853 -0.3529 -0.6253
19652TIP3    H180447   5.457   0.926  13.132 -2.8588  0.8323  0.9216
19652TIP3    H280448   5.462   1.005  13.261  2.6789  0.3562  1.1129
19653TIP3   OH280449   0.326   2.832  12.263 -0.2799 -0.0566  0.5350
19653TIP3    H180450   0.284   2.918  12.271 -1.0576 -0.3316 -0.3690
19653TIP3    H280451   0.297   2.800  12.177  2.1957 -0.0652 -0.3317
19654TIP3   OH280452   2.372   0.607   3.736 -0.5291 -0.0887  0.2105
19654TIP3    H180453   2.324   0.529   3.761 -0.2949  0.0252  1.0167
19654TIP3    H280454   2.326   0.679   3.778 -0.4931  0.1640 -0.1801
19655TIP3   OH280455   1.712   1.612  12.926 -0.1698  0.9124 -0.4634
19655TIP3    H180456   1.651   1.596  12.998 -0.0282 -1.1959 -0.7911
19655TIP3    H280457   1.764   1.687  12.955 -1.8734  1.7478  0.4847
19656TIP3   OH280458   5.963   4.554  15.511 -0.2850  0.4285 -0.9212
19656TIP3    H180459   5.927   4.466  15.523 -0.0419  0.5176  0.5706
19656TIP3    H280460   5.888   4.606  15.481 -0.8872  0.1381  0.0550
19657TIP3   OH280461   0.409   2.477  15.788  0.2491  0.0671  0.1020
19657TIP3    H180462   0.361   2.401  15.754  0.7231 -0.4616  0.6107
19657TIP3    H280463   0.365   2.552  15.748 -1.3283 -0.3892  0.9457
19658TIP3   OH280464   3.854   5.188   5.326 -0.3100  0.3760 -0.0504
19658TIP3    H180465   3.898   5.103   5.329 -0.8216  0.1350  0.8423
19658TIP3    H280466   3.924   5.251   5.309  0.3003 -0.0575  0.8495
19659TIP3   OH280467   2.881   2.633  14.799 -0.4334 -0.3530  0.0535
19659TIP3    H180468   2.815   2.564  14.804 -0.7321 -0.2170 -1.7732
19659TIP3    H280469   2.831   2.714  14.806 -0.5887 -0.2249 -2.2961
19660TIP3   OH280470   3.233   4.010  16.846  0.3236  0.0686  0.2580
19660TIP3    H180471   3.222   3.915  16.840 -0.1298  0.0248  1.7219
19660TIP3    H280472   3.291   4.032  16.773 -0.2247 -1.2238 -0.5740
19661TIP3   OH280473   3.151   1.579   5.160  0.6514  0.4138 -0.0758
19661TIP3    H180474   3.190   1.504   5.204  1.5020  0.9914  0.1816
19661TIP3    H280475   3.124   1.546   5.074 -0.4093 -0.5570  0.6232
19662TIP3   OH280476   1.477   3.065   5.131  0.1997  0.2595 -0.0429
19662TIP3    H180477   1.476   2.979   5.172  0.4164  0.9834  1.5230
19662TIP3    H280478   1.386   3.083   5.108  0.1368 -0.3301 -0.2428
19663TIP3   OH280479   0.095   5.046  12.701 -0.0632 -0.3102 -0.0189
19663TIP3    H180480   0.011   5.090  12.693  0.1257  0.2009  0.7021
19663TIP3    H280481   0.134   5.052  12.614 -0.0484  0.9420  0.0670
19664TIP3   OH280482   3.820   0.631  11.150  0.5821 -0.1376 -0.0598
19664TIP3    H180483   3.731   0.623  11.182  0.1262 -0.1963 -1.3183
19664TIP3    H280484   3.857   0.543  11.159  0.6050 -0.0508  0.7126
19665TIP3   OH280485   4.316   0.660   3.779  0.0515 -0.2539 -0.0897
19665TIP3    H180486   4.269   0.689   3.857  0.2584 -0.0845 -0.0302
19665TIP3    H280487   4.246   0.631   3.720 -0.0656 -0.9649  0.3945
19666TIP3   OH280488   6.283   2.177  13.178  0.0126 -0.5553  0.3400
19666TIP3    H180489   6.230   2.234  13.122 -0.0660 -0.9425  0.0259
19666TIP3    H280490   6.318   2.236  13.245 -1.2346 -0.3780  0.8581
19667TIP3   OH280491   2.304   1.774  13.917 -0.3364  0.6960  0.0857
19667TIP3    H180492   2.337   1.770  13.827 -1.3148  2.6426 -0.4013
19667TIP3    H280493   2.338   1.696  13.959  1.8116  0.7851 -1.4125
19668TIP3   OH280494   6.097   3.093   3.479 -0.5219  0.2996  0.3571
19668TIP3    H180495   6.018   3.133   3.442 -1.4771 -2.4423 -0.6997
19668TIP3    H280496   6.072   3.069   3.569 -0.2641  1.1283  0.6574
19669TIP3   OH280497   3.561   4.823  12.495  0.1268 -0.4569  0.2109
19669TIP3    H180498   3.653   4.830  12.521  0.7867 -2.6525 -1.4080
19669TIP3    H280499   3.547   4.729  12.481 -2.3795 -0.1517  0.4638
19670TIP3   OH280500   5.156   5.580  13.814  0.7407  0.2328 -0.1118
19670TIP3    H180501   5.079   5.574  13.871 -0.4798  0.4285 -1.7125
19670TIP3    H280502   5.217   5.515  13.849 -0.0127  0.3113  1.3730
19671TIP3   OH280503   1.834   2.242  15.777  0.3825  0.4177 -0.2138
19671TIP3    H180504   1.808   2.187  15.851 -1.9075  1.9086  0.1317
19671TIP3    H280505   1.928   2.225  15.766 -0.0957 -2.9796  0.3488
19672TIP3   OH280506   1.809   3.555  11.188  0.0802 -0.6441  0.3285
19672TIP3    H180507   1.878   3.616  11.163  0.3714 -1.1192 -0.0455
19672TIP3    H280508   1.842   3.470  11.159 -1.4354 -0.6506 -1.4326
19673TIP3   OH280509   1.536   4.051   3.751 -0.3393  0.0199  0.2276
19673TIP3    H180510   1.580   4.000   3.682 -2.1312  1.2261 -1.8688
19673TIP3    H280511   1.471   3.992   3.788 -0.2733 -0.2053 -0.0180
19674TIP3   OH280512   3.849   2.431  16.572 -0.0463  0.0334 -0.3823
19674TIP3    H180513   3.854   2.525  16.558 -0.2310  0.2137  0.6824
19674TIP3    H280514   3.830   2.394  16.486  0.8696  0.8975 -0.9587
19675TIP3   OH280515   6.814   4.843   4.333 -0.1023  0.3306  0.3796
19675TIP3    H180516   6.782   4.910   4.273 -2.5649 -1.4355 -0.3409
19675TIP3    H280517   6.845   4.772   4.277 -0.4042 -0.4258  1.1525
19676TIP3   OH280518   3.249   1.889   1.328 -0.6897 -0.0449 -0.3121
19676TIP3    H180519   3.317   1.922   1.270  0.7848  0.3357  1.5972
19676TIP3    H280520   3.274   1.798   1.345 -1.7524 -0.5130 -1.1766
19677TIP3   OH280521   2.535   5.009   4.552  0.4231 -0.6665 -0.6536
19677TIP3    H180522   2.462   5.068   4.532  2.6550  3.1750  1.8717
19677TIP3    H280523   2.597   5.022   4.480  1.1357  0.5664  0.1523
19678TIP3   OH280524   4.935   3.373  11.756 -0.2785 -0.0825  0.3076
19678TIP3    H180525   4.910   3.451  11.706 -0.3210 -0.6509 -0.5717
19678TIP3    H280526   4.930   3.301  11.692  0.5086 -0.6852  0.9173
19679TIP3   OH280527   2.694   3.683  16.180 -0.8747 -0.5751 -0.1859
19679TIP3    H180528   2.604   3.651  16.171 -0.6575 -1.3612  0.4101
19679TIP3    H280529   2.743   3.607  16.212 -0.2852  0.2574  0.9159
19680TIP3   OH280530   1.455   4.273   2.195  0.1554  0.0581  0.0778
19680TIP3    H180531   1.413   4.298   2.113  1.4812  1.5460 -0.1780
19680TIP3    H280532   1.528   4.218   2.169 -0.1963 -0.5535  0.3638
19681TIP3   OH280533   5.138   4.428  17.103 -0.3323  0.7240 -0.1758
19681TIP3    H180534   5.138   4.427  17.008  0.8945 -1.3887 -0.1797
19681TIP3    H280535   5.214   4.482  17.127  1.5004 -1.6808 -0.4267
19682TIP3   OH280536   4.361   5.826   2.345 -0.2865 -0.5486  0.6729
19682TIP3    H180537   4.366   5.917   2.315 -1.4298 -0.1397  1.6541
19682TIP3    H280538   4.452   5.800   2.359  0.0551  0.4132  0.2751
19683TIP3   OH280539   4.856   6.327   0.466 -0.0340 -0.2964 -0.8066
19683TIP3    H180540   4.896   6.409   0.438 -3.6564  1.3039 -1.6351
19683TIP3    H280541   4.836   6.281   0.384 -1.1694 -0.3792 -0.4953
19684TIP3   OH280542   6.089   5.313   4.274  0.4619  0.0779  0.2833
19684TIP3    H180543   5.997   5.287   4.267  0.4416 -0.5716  2.3866
19684TIP3    H280544   6.136   5.230   4.289  1.1106  0.6293  1.3475
19685TIP3   OH280545   2.062   6.794   3.403  0.3142 -0.4307  0.2791
19685TIP3    H180546   2.013   6.738   3.463  1.4150  0.5764  2.1401
19685TIP3    H280547   2.096   6.734   3.337 -0.7905 -1.5695  0.7228
19686TIP3   OH280548   1.602   5.925   1.533 -0.7705 -0.4462 -0.2681
19686TIP3    H180549   1.623   5.836   1.505  0.8440 -1.2359  3.1730
19686TIP3    H280550   1.517   5.917   1.577 -1.0036 -0.1258 -0.6564
19687TIP3   OH280551   3.387   5.322   1.330  0.6367  0.5246  0.0815
19687TIP3    H180552   3.435   5.251   1.288 -0.4186 -0.2120  0.1171
19687TIP3    H280553   3.325   5.279   1.388  0.0481  1.4785  0.1756
19688TIP3   OH280554   1.528   4.336  14.805 -0.0752 -0.6649  0.2601
19688TIP3    H180555   1.498   4.426  14.817  0.6250 -0.1670 -1.4692
19688TIP3    H280556   1.448   4.284  14.798 -0.4814 -0.1306  0.9468
19689TIP3   OH280557   0.634   5.315  11.659  0.1542  0.0335 -0.3397
19689TIP3    H180558   0.639   5.220  11.667 -1.4051 -0.2817 -2.6851
19689TIP3    H280559   0.726   5.344  11.659  0.6906 -1.6220 -1.0872
19690TIP3   OH280560   4.325   2.569   0.176 -0.1828 -0.2907 -0.3619
19690TIP3    H180561   4.360   2.583   0.087 -0.5405 -1.0124 -0.6223
19690TIP3    H280562   4.333   2.475   0.190  0.3289 -0.1106  0.5737
19691TIP3   OH280563   2.404   5.246   1.238 -0.2696 -0.1916 -0.3115
19691TIP3    H180564   2.386   5.152   1.246 -1.2368 -0.2112 -2.4435
19691TIP3    H280565   2.436   5.271   1.325 -0.7563 -2.3220  0.5261
19692TIP3   OH280566   4.328   0.514  16.982 -0.2253 -0.1085 -0.0363
19692TIP3    H180567   4.268   0.507  16.907 -1.3832 -1.0844  0.9558
19692TIP3    H280568   4.296   0.449  17.044  0.5831  0.8563  1.4220
19693TIP3   OH280569   2.969   3.800  10.976  0.6516 -0.0076 -0.2518
19693TIP3    H180570   2.937   3.889  10.986 -0.1075 -0.4806  1.7845
19693TIP3    H280571   3.063   3.806  10.994  0.5551  0.3496  0.1331
19694TIP3   OH280572   0.489   2.320  14.634  0.7172 -0.2816  0.0402
19694TIP3    H180573   0.418   2.383  14.640  1.1123  0.2123 -0.4593
19694TIP3    H280574   0.497   2.301  14.541  1.2747 -0.3001  0.0905
19695TIP3   OH280575   0.746   5.677   3.323 -0.3305 -0.1712 -0.1769
19695TIP3    H180576   0.738   5.772   3.313  1.2520 -0.0698 -0.6016
19695TIP3    H280577   0.667   5.651   3.371 -1.1401  1.2511 -0.7178
19696TIP3   OH280578   2.761   2.431  16.459  0.5621 -0.0085  0.7919
19696TIP3    H180579   2.789   2.416  16.369  1.6987 -0.3962  1.2110
19696TIP3    H280580   2.696   2.363  16.476 -0.1226  0.4533  0.0656
19697TIP3   OH280581   0.806   4.380  11.694 -0.0831  0.2205  0.3358
19697TIP3    H180582   0.824   4.466  11.733  1.4136  0.3700 -0.6604
19697TIP3    H280583   0.830   4.390  11.602 -2.3726 -0.5154 -0.3701
19698TIP3   OH280584   0.650   2.302   4.697  0.2538 -0.3204 -0.2425
19698TIP3    H180585   0.647   2.214   4.733 -3.2432 -0.3870 -0.5524
19698TIP3    H280586   0.667   2.358   4.773  1.3950 -1.1644  0.1285
19699TIP3   OH280587   0.675   3.260  14.825  0.1805  0.3736  0.4137
19699TIP3    H180588   0.758   3.307  14.820 -0.8959  2.3495  1.0100
19699TIP3    H280589   0.684   3.204  14.903  1.5625 -0.6798 -0.4690
19700TIP3   OH280590   2.322   0.937  14.715 -0.0960 -0.1610 -0.0911
19700TIP3    H180591   2.304   0.942  14.621 -0.4313  0.8791  0.0188
19700TIP3    H280592   2.322   0.843  14.734  0.5643 -0.4139 -1.2414
19701TIP3   OH280593   6.397   6.755  13.571  0.1247 -0.1359 -0.0207
19701TIP3    H180594   6.391   6.742  13.476 -2.7904  0.6834 -0.0023
19701TIP3    H280595   6.422   6.847  13.581  2.6613 -0.8022  0.0147
19702TIP3   OH280596   0.767   5.645  15.815  0.5489  0.1386 -0.5339
19702TIP3    H180597   0.701   5.713  15.801  2.4941  2.2563  0.3003
19702TIP3    H280598   0.815   5.639  15.733  0.0896 -0.5662 -0.7564
19703TIP3   OH280599   0.921   3.973   1.856  0.3328  0.3774 -0.0999
19703TIP3    H180600   0.866   3.994   1.780  0.5817  0.1018 -0.3530
19703TIP3    H280601   0.953   3.885   1.840  1.7462  0.9426 -0.4817
19704TIP3   OH280602   0.783   6.332   6.933 -0.4705  0.0235 -0.0111
19704TIP3    H180603   0.847   6.386   6.885 -0.1430 -0.2499  0.1199
19704TIP3    H280604   0.747   6.274   6.867 -2.3502  1.8003 -0.6141
19705TIP3   OH280605   0.612   2.095   2.843  0.4943 -0.1918 -0.1464
19705TIP3    H180606   0.690   2.144   2.871 -0.4675  0.8994  0.6406
19705TIP3    H280607   0.566   2.076   2.925  0.6708 -2.1095 -0.4730
19706TIP3   OH280608   3.541   1.459  14.721 -0.4476  0.0346 -0.0523
19706TIP3    H180609   3.518   1.418  14.805  0.1818  2.3867  1.3155
19706TIP3    H280610   3.487   1.537  14.717  0.5065  0.6461 -1.2207
19707TIP3   OH280611   6.707   1.892  15.768  0.0680  0.2569  0.5119
19707TIP3    H180612   6.625   1.922  15.729  0.9412 -0.6216 -2.1019
19707TIP3    H280613   6.680   1.819  15.824 -0.7287 -1.5339 -2.1077
19708TIP3   OH280614   5.289   5.063  11.138 -0.4257 -0.2575 -0.2249
19708TIP3    H180615   5.383   5.044  11.145 -0.9169 -2.8546 -0.3125
19708TIP3    H280616   5.269   5.052  11.045 -1.3972 -2.7877  0.2380
19709TIP3   OH280617   3.711   4.961   3.092  0.4510  0.1669 -0.5021
19709TIP3    H180618   3.756   5.042   3.069  1.1720 -0.0042  0.2904
19709TIP3    H280619   3.770   4.917   3.153 -0.5566 -0.2989  0.1563
19710TIP3   OH280620   3.889   3.170   0.229  0.5328 -1.4088  0.5254
19710TIP3    H180621   3.910   3.225   0.304 -0.4386 -0.7432  0.3215
19710TIP3    H280622   3.967   3.174   0.173  0.2079  0.3456  0.1701
19711TIP3   OH280623   0.703   5.594   2.913  0.3270  0.2089  0.4193
19711TIP3    H180624   0.743   5.594   2.999 -1.3835 -0.2252  1.2351
19711TIP3    H280625   0.726   5.680   2.876  0.9810  0.4312  1.3395
19712TIP3   OH280626   4.510   5.876  12.200 -0.1957 -0.0701  0.3901
19712TIP3    H180627   4.433   5.901  12.251  0.7114 -0.1931  1.8517
19712TIP3    H280628   4.530   5.786  12.227 -0.1213 -0.4016 -0.7175
19713TIP3   OH280629   2.518   3.537  12.463  0.4427 -0.2121  0.0765
19713TIP3    H180630   2.474   3.528  12.548 -1.7445  1.1306 -0.8603
19713TIP3    H280631   2.522   3.448  12.428  0.2459 -0.6059  1.0481
19714TIP3   OH280632   4.058   0.497   6.555  0.4618 -0.0064  0.0602
19714TIP3    H180633   4.128   0.504   6.620  0.8444 -1.1317 -0.2200
19714TIP3    H280634   4.061   0.406   6.526  0.0643  0.4008 -1.2907
19715TIP3   OH280635   5.908   5.282  12.255  0.3622 -0.8997  0.5347
19715TIP3    H180636   5.985   5.258  12.203  0.8073  2.0890 -0.2529
19715TIP3    H280637   5.834   5.243  12.207  1.1033 -1.2484 -0.3401
19716TIP3   OH280638   3.105   2.116  11.497 -0.1266 -0.2416  0.0106
19716TIP3    H180639   3.011   2.128  11.482  0.0512 -0.5621 -1.4327
19716TIP3    H280640   3.112   2.103  11.592 -1.8796 -3.3258 -0.2091
19717TIP3   OH280641   1.749   3.453  12.005  0.2656 -0.4365  0.3328
19717TIP3    H180642   1.677   3.391  12.007  1.4765 -1.8549  1.0249
19717TIP3    H280643   1.778   3.454  11.914 -0.8845  0.4671 -0.0358
19718TIP3   OH280644   2.777   1.418  14.573 -0.6965  0.6172 -0.3304
19718TIP3    H180645   2.831   1.364  14.631  0.3100  0.2648 -1.5639
19718TIP3    H280646   2.747   1.358  14.505 -2.4765  0.8729  0.2160
19719TIP3   OH280647   5.649   6.441  12.834 -0.1527 -0.1002  0.6849
19719TIP3    H180648   5.625   6.520  12.883  1.3036  0.6989  0.1299
19719TIP3    H280649   5.593   6.373  12.870 -2.3080  1.4357  0.3622
19720TIP3   OH280650   6.386   2.315  15.036 -0.2641 -0.4095 -0.3308
19720TIP3    H180651   6.360   2.224  15.026  0.8916 -0.7685 -0.1865
19720TIP3    H280652   6.315   2.355  15.085 -1.5806 -0.8173 -1.8772
19721TIP3   OH280653   4.218   2.588  13.014  0.0046 -0.2647 -0.1210
19721TIP3    H180654   4.170   2.536  13.079  2.5427 -0.9449  1.3231
19721TIP3    H280655   4.235   2.527  12.942 -1.4463  0.0334 -0.7185
19722TIP3   OH280656   0.528   1.747   1.384 -0.1608 -0.1470  0.3984
19722TIP3    H180657   0.479   1.808   1.329 -0.3079 -0.0935  0.5901
19722TIP3    H280658   0.588   1.704   1.323  0.9749  1.2358  0.5252
19723TIP3   OH280659   0.508   6.536   1.284  0.0196 -0.0015 -0.5311
19723TIP3    H180660   0.460   6.588   1.219  1.2591  1.9805  0.1029
19723TIP3    H280661   0.535   6.600   1.350  0.2271 -1.7232  1.0876
19724TIP3   OH280662   2.673   1.796  16.277 -0.4298 -0.4176 -0.3307
19724TIP3    H180663   2.604   1.790  16.344 -0.8387 -0.4334 -0.7501
19724TIP3    H280664   2.625   1.799  16.194  0.0808 -0.5200 -0.6287
19725TIP3   OH280665   2.278   1.563   3.826 -0.0262 -0.2081 -0.0843
19725TIP3    H180666   2.333   1.555   3.748 -0.6882 -1.3794 -0.4481
19725TIP3    H280667   2.311   1.495   3.885 -2.2456 -2.1859 -1.0417
19726TIP3   OH280668   4.955   0.848  13.101  0.4626 -0.4809 -0.1623
19726TIP3    H180669   4.878   0.807  13.062  0.0370  0.4933 -0.3683
19726TIP3    H280670   4.924   0.880  13.186 -0.2873  2.8454 -1.6092
19727TIP3   OH280671   3.580   4.360   5.183  0.6575  0.0253  0.6415
19727TIP3    H180672   3.666   4.340   5.218  0.2142 -1.9417  0.6509
19727TIP3    H280673   3.524   4.288   5.213 -0.6588  0.4989 -0.5938
19728TIP3   OH280674   2.033   5.852  16.851 -0.0452  0.3955  0.2760
19728TIP3    H180675   2.106   5.892  16.897  1.1314  0.0299 -1.2060
19728TIP3    H280676   1.994   5.923  16.800 -1.2795  0.7771  1.7153
19729TIP3   OH280677   6.499   3.677  11.170 -0.1177 -0.5991  0.5464
19729TIP3    H180678   6.550   3.638  11.099 -0.2147 -0.3785  0.3538
19729TIP3    H280679   6.476   3.764  11.138 -0.7316 -0.7509  0.5805
19730TIP3   OH280680   4.842   6.486  12.849 -0.0301  0.3240  0.3552
19730TIP3    H180681   4.921   6.477  12.797  0.7256 -0.5604  1.6074
19730TIP3    H280682   4.775   6.436  12.802  0.6459 -0.4737  0.2264
19731TIP3   OH280683   5.173   2.053   5.821 -0.1773 -0.5628 -0.4396
19731TIP3    H180684   5.160   1.969   5.864  0.4340 -0.0335  0.7945
19731TIP3    H280685   5.103   2.057   5.755 -1.2762 -1.2939  0.6502
19732TIP3   OH280686   2.676   5.281  14.286 -0.3901  0.5460 -0.0290
19732TIP3    H180687   2.645   5.231  14.210 -0.8426  0.2683  0.3315
19732TIP3    H280688   2.728   5.352  14.249 -1.8598  1.3101 -0.6916
19733TIP3   OH280689   0.279   4.884   5.240  0.4863 -0.0936 -0.4448
19733TIP3    H180690   0.208   4.846   5.189  1.2312 -0.3766 -1.2941
19733TIP3    H280691   0.247   4.971   5.264 -0.0404 -0.1193 -1.0395
19734TIP3   OH280692   6.395   2.568  16.786 -0.2568 -0.4331 -0.1946
19734TIP3    H180693   6.424   2.588  16.875 -3.2630  1.7561  0.3878
19734TIP3    H280694   6.339   2.642  16.762 -0.5087 -1.5996 -3.4254
19735TIP3   OH280695   6.524   0.355   5.195  0.6053 -0.1538  0.6078
19735TIP3    H180696   6.585   0.297   5.240 -0.5643 -1.7788  0.1661
19735TIP3    H280697   6.519   0.433   5.251  1.1611 -1.0461  1.9254
19736TIP3   OH280698   1.422   0.733   0.367 -0.6157  0.3930 -0.0222
19736TIP3    H180699   1.458   0.758   0.281 -0.4088  2.0148  0.5362
19736TIP3    H280700   1.417   0.814   0.416 -0.9898 -0.4954  1.4335
19737TIP3   OH280701   2.825   6.619   4.531 -0.2446  0.6425 -0.0346
19737TIP3    H180702   2.909   6.661   4.549  1.0710 -1.0682 -1.8192
19737TIP3    H280703   2.763   6.661   4.589  1.8203  2.1351  1.1357
19738TIP3   OH280704   1.349   3.704  15.886 -0.2806  0.1716  0.5387
19738TIP3    H180705   1.322   3.753  15.808  1.2024  0.4244  0.1755
19738TIP3    H280706   1.396   3.628  15.852 -0.2693 -0.1087  1.1672
19739TIP3   OH280707   5.743   3.315   0.777 -0.6017  0.3559 -0.5072
19739TIP3    H180708   5.791   3.261   0.840  1.1692  2.6075  0.1308
19739TIP3    H280709   5.738   3.260   0.698  1.7512 -0.5005 -0.1020
19740TIP3   OH280710   6.111   6.168   0.203 -0.2594 -0.6726 -0.2576
19740TIP3    H180711   6.094   6.183   0.109  0.4130 -0.4207 -0.3391
19740TIP3    H280712   6.123   6.073   0.210  1.5184 -0.5056 -0.7331
19741TIP3   OH280713   4.397   2.238   2.845 -1.0372  0.1931 -0.2926
19741TIP3    H180714   4.408   2.238   2.940 -1.3547  2.2920 -0.2258
19741TIP3    H280715   4.326   2.176   2.829  0.1151 -1.4038  0.6849
19742TIP3   OH280716   1.845   1.271   5.987  0.6732 -0.1527 -0.0361
19742TIP3    H180717   1.849   1.198   6.048  0.6314 -0.3065 -0.2180
19742TIP3    H280718   1.798   1.340   6.036  0.3318 -0.3962 -0.0193
19743TIP3   OH280719   1.911   2.541  13.846 -0.4796  0.2482 -0.1151
19743TIP3    H180720   1.941   2.458  13.882 -1.5045  1.3496  3.4892
19743TIP3    H280721   1.833   2.563  13.898  0.6674  4.1795  0.0624
19744TIP3   OH280722   2.846   1.609  16.408  0.2760  0.8035 -0.0723
19744TIP3    H180723   2.819   1.578  16.494 -0.5136 -3.1493 -1.6430
19744TIP3    H280724   2.767   1.646  16.369  0.1509  0.8065  0.1882
19745TIP3   OH280725   6.298   0.702   0.723  0.0134 -0.0047 -0.4094
19745TIP3    H180726   6.263   0.744   0.644  0.0567  1.9666  0.5878
19745TIP3    H280727   6.260   0.752   0.796  0.9937 -0.9815  0.8027
19746TIP3   OH280728   3.279   0.593   2.592  0.0870  0.0460 -0.3359
19746TIP3    H180729   3.326   0.636   2.662  0.6215  0.1002 -0.7266
19746TIP3    H280730   3.193   0.634   2.591  0.4124  0.7194 -0.3542
19747TIP3   OH280731   4.878   5.864   1.518  0.1985  0.6943 -0.0329
19747TIP3    H180732   4.815   5.878   1.589 -0.1032  1.1247 -0.3796
19747TIP3    H280733   4.854   5.779   1.481  0.3551  0.4710  0.3799
19748TIP3   OH280734   2.405   5.907  11.968 -0.0739  0.0078 -0.3339
19748TIP3    H180735   2.413   5.842  11.899  0.1645 -0.2091 -0.1068
19748TIP3    H280736   2.488   5.954  11.965 -0.3374  0.4489 -0.6465
19749TIP3   OH280737   6.689   0.386  11.743 -0.3069 -0.6808  0.2946
19749TIP3    H180738   6.727   0.372  11.829  0.0894 -1.3925  0.0092
19749TIP3    H280739   6.673   0.298  11.709 -1.1970 -0.3965 -0.0367
19750TIP3   OH280740   5.276   1.195  12.458  0.2887 -0.1496  0.1109
19750TIP3    H180741   5.307   1.286  12.456  1.7658 -0.6223  0.6962
19750TIP3    H280742   5.181   1.202  12.451  0.1564  1.6189  2.7556
19751TIP3   OH280743   3.532   0.131   4.244  0.3225 -0.6872  0.3955
19751TIP3    H180744   3.529   0.045   4.286  1.4872  0.1765  2.2847
19751TIP3    H280745   3.625   0.154   4.242 -0.0510  0.9147  0.7116
19752TIP3   OH280746   2.879   2.903   3.507  0.0645 -0.3046 -0.0986
19752TIP3    H180747   2.860   2.852   3.428 -2.9718 -3.5609  2.5545
19752TIP3    H280748   2.804   2.961   3.517  1.3325  1.4533 -0.5869
19753TIP3   OH280749   4.107   3.404  17.026 -0.3727  0.0471 -0.1071
19753TIP3    H180750   4.039   3.404  17.093  0.2850 -1.4315  0.5850
19753TIP3    H280751   4.188   3.383  17.074  0.6759  2.2297 -0.8174
19754TIP3   OH280752   1.137   0.643  15.063 -0.5345  0.4216 -0.1746
19754TIP3    H180753   1.126   0.721  15.009 -2.7761  1.2229  1.3805
19754TIP3    H280754   1.098   0.572  15.012  3.7583 -0.2846 -2.7334
19755TIP3   OH280755   4.062   3.562  12.079  0.2284 -0.1528  0.4028
19755TIP3    H180756   4.081   3.545  11.987  0.6641  1.0289  0.2594
19755TIP3    H280757   4.139   3.610  12.111 -0.4414  0.5090  1.0564
19756TIP3   OH280758   2.801   0.785  15.065  0.5422  0.4857  0.4089
19756TIP3    H180759   2.749   0.861  15.039  0.3225 -0.2324 -1.3407
19756TIP3    H280760   2.745   0.739  15.128 -1.1732 -0.5192 -1.7836
19757TIP3   OH280761   5.687   0.591   2.868 -0.4123  1.0367  0.4459
19757TIP3    H180762   5.646   0.570   2.784 -0.2148 -2.4427  1.1748
19757TIP3    H280763   5.644   0.533   2.931  1.7558  1.2639  2.1750
19758TIP3   OH280764   0.505   4.476   2.120  0.4398  0.6029  0.2918
19758TIP3    H180765   0.587   4.470   2.071  0.2452  1.5911 -0.1604
19758TIP3    H280766   0.493   4.389   2.158  2.2739  0.7542  1.2788
19759TIP3   OH280767   0.551   3.646   6.464 -1.0509 -0.4713  0.2223
19759TIP3    H180768   0.634   3.635   6.417 -2.4218  0.2317 -2.5193
19759TIP3    H280769   0.510   3.560   6.460 -1.1697 -0.4098  0.1015
19760TIP3   OH280770   6.360   3.699   3.486  0.7005 -0.2736  0.5285
19760TIP3    H180771   6.401   3.760   3.424  1.6062 -0.7979  0.6055
19760TIP3    H280772   6.283   3.746   3.518  0.8968  0.4808 -0.0824
19761TIP3   OH280773   1.107   3.865  15.918  0.4760  0.0583 -0.1186
19761TIP3    H180774   1.155   3.885  15.837  2.2172 -0.4983  0.7598
19761TIP3    H280775   1.128   3.774  15.936 -3.0366 -1.0400 -1.1240
19762TIP3   OH280776   2.101   6.685   1.625  0.2657  0.0322  0.1789
19762TIP3    H180777   2.104   6.730   1.709 -1.1242 -0.8005  0.6947
19762TIP3    H280778   2.062   6.600   1.645 -0.4289 -0.0283 -1.3687
19763TIP3   OH280779   2.274   6.773  15.702  0.1026  0.1467 -0.0393
19763TIP3    H180780   2.316   6.796  15.620  2.4381 -0.4795  0.9413
19763TIP3    H280781   2.311   6.834  15.766  1.3406 -1.9363  1.2906
19764TIP3   OH280782   0.566   1.969  17.137  0.2297  0.3001 -0.5199
19764TIP3    H180783   0.657   1.939  17.132 -0.0503 -0.9235  1.1752
19764TIP3    H280784   0.514   1.889  17.133 -0.6848  0.8299  0.3849
19765TIP3   OH280785   5.276   4.982  12.591 -0.5626 -0.1984  0.1995
19765TIP3    H180786   5.187   5.018  12.600 -0.9631 -0.9599 -0.6419
19765TIP3    H280787   5.283   4.958  12.499 -0.2760 -2.1781  0.7116
19766TIP3   OH280788   5.923   3.519   2.948 -0.0514  0.6286  0.2321
19766TIP3    H180789   5.858   3.455   2.919  0.8250 -0.2475  0.1377
19766TIP3    H280790   5.943   3.570   2.870 -0.3615  0.6638  0.1746
19767TIP3   OH280791   1.831   3.747  11.933 -0.2926  0.7731  0.0193
19767TIP3    H180792   1.755   3.795  11.966 -0.3609  0.6597  0.0274
19767TIP3    H280793   1.819   3.747  11.838 -1.4268 -1.1001  0.1328
19768TIP3   OH280794   0.383   2.177   5.336  0.5295  0.5990 -0.3481
19768TIP3    H180795   0.332   2.097   5.328  0.8315  0.4124 -0.4144
19768TIP3    H280796   0.454   2.167   5.272  0.9084  0.6539  0.0606
19769TIP3   OH280797   1.992   1.543   5.965  0.4174  0.4336 -0.1398
19769TIP3    H180798   1.983   1.583   6.052 -0.9807  0.1215 -0.1438
19769TIP3    H280799   2.052   1.602   5.918  1.4340  0.4362  1.1270
19770TIP3   OH280800   6.052   5.141  12.443 -0.1528 -0.3145 -0.6141
19770TIP3    H180801   5.997   5.193  12.385  0.4284  1.7475  0.6366
19770TIP3    H280802   6.137   5.185  12.441 -0.0827 -0.3168  1.6700
19771TIP3   OH280803   2.184   0.332  12.634  0.3733 -0.7429  0.0000
19771TIP3    H180804   2.113   0.268  12.636  0.8245 -1.3254 -1.5171
19771TIP3    H280805   2.142   0.414  12.607  0.5453 -1.4927 -2.6316
19772TIP3   OH280806   6.050   1.988  15.246  0.4315  0.0291  0.3923
19772TIP3    H180807   6.044   1.984  15.342 -0.5745  0.2780  0.3494
19772TIP3    H280808   6.143   1.999  15.228  0.9677 -2.6660  1.2696
19773TIP3   OH280809   1.034   1.714  12.111 -0.0444 -0.0659  0.4799
19773TIP3    H180810   1.043   1.711  12.206 -0.4723 -2.0277  0.4885
19773TIP3    H280811   1.079   1.635  12.080 -0.9828 -0.1014 -0.8445
19774TIP3   OH280812   3.708   5.397  15.587 -0.1461  0.8205 -0.2665
19774TIP3    H180813   3.728   5.334  15.518 -0.0754  0.3875  0.1482
19774TIP3    H280814   3.781   5.460  15.584 -1.8409  2.7560 -2.8285
19775TIP3   OH280815   1.791   4.918   4.175 -0.4146  0.2062 -0.1266
19775TIP3    H180816   1.883   4.940   4.193 -0.6820  1.3225 -0.1118
19775TIP3    H280817   1.775   4.952   4.087 -1.5166  2.2363  0.8235
19776TIP3   OH280818   3.011   6.665   3.044  1.0091 -0.1135  0.5517
19776TIP3    H180819   3.080   6.721   3.079  1.7318 -1.5098  1.3852
19776TIP3    H280820   2.947   6.657   3.115  0.4009  0.4712  0.0815
19777TIP3   OH280821   3.776   4.377  12.666  0.2937  0.2598 -0.0716
19777TIP3    H180822   3.841   4.358  12.598  0.5257 -0.0913  0.2534
19777TIP3    H280823   3.797   4.467  12.693  3.4524 -1.3418  3.1598
19778TIP3   OH280824   6.562   4.032   2.365  0.2196  0.0420  0.5407
19778TIP3    H180825   6.640   4.054   2.313  0.5483 -0.0757  0.9757
19778TIP3    H280826   6.503   4.106   2.352 -0.8981 -1.2756 -2.3019
19779TIP3   OH280827   5.006   0.403   1.394 -0.3807  0.0325 -0.0692
19779TIP3    H180828   5.070   0.441   1.455 -0.1940  0.7883 -0.7258
19779TIP3    H280829   4.927   0.392   1.446  0.0683 -0.2388  0.5637
19780TIP3   OH280830   0.351   1.145  15.191  0.0188  0.3767  0.0032
19780TIP3    H180831   0.259   1.127  15.172  0.2389 -0.1596 -0.5572
19780TIP3    H280832   0.379   1.205  15.123  0.0604  0.6105  0.2247
19781TIP3   OH280833   1.148   5.506  15.603  0.4349  0.6236 -0.5295
19781TIP3    H180834   1.086   5.454  15.655  1.4195  1.5116  1.6135
19781TIP3    H280835   1.212   5.537  15.667  0.6019  3.3714 -1.9585
19782TIP3   OH280836   5.189   3.941   3.384  0.4605 -0.0543  0.3586
19782TIP3    H180837   5.193   3.955   3.289  1.5702 -0.3745  0.3575
19782TIP3    H280838   5.171   4.027   3.420 -0.1841  0.0333 -0.1495
19783TIP3   OH280839   1.730   0.132  13.769  0.2056 -0.2821 -0.0384
19783TIP3    H180840   1.740   0.194  13.697  0.7595 -0.8305 -0.4358
19783TIP3    H280841   1.814   0.087  13.775  0.6461  0.7600  1.8876
19784TIP3   OH280842   1.620   2.247   5.173  0.0459 -0.1028  0.4105
19784TIP3    H180843   1.653   2.323   5.221 -1.0852 -0.9061  2.5180
19784TIP3    H280844   1.698   2.200   5.146  0.7109  0.4227  1.3868
19785TIP3   OH280845   6.261   2.652   3.199 -0.0408 -0.4554 -0.2407
19785TIP3    H180846   6.332   2.706   3.233 -1.4316  0.9780  0.4369
19785TIP3    H280847   6.198   2.647   3.271 -1.6133  0.0912 -1.5537
19786TIP3   OH280848   5.238   1.164  15.163 -0.2026 -0.3707 -0.6473
19786TIP3    H180849   5.327   1.137  15.185  0.1335  0.3984 -1.0379
19786TIP3    H280850   5.237   1.165  15.067 -0.6960 -0.5863 -0.6452
19787TIP3   OH280851   3.915   2.399  15.541 -0.1022  0.4394 -0.1917
19787TIP3    H180852   3.968   2.428  15.615  0.7763  0.2982 -0.7519
19787TIP3    H280853   3.855   2.472  15.524 -0.8821  0.1241  1.1881
19788TIP3   OH280854   5.280   4.784   4.445  0.2842 -0.8437  0.3601
19788TIP3    H180855   5.338   4.708   4.451  0.2534 -1.1439 -2.2526
19788TIP3    H280856   5.335   4.859   4.465  0.9255 -1.3660  0.5505
19789TIP3   OH280857   0.307   1.662  14.452  0.1009  0.2817  0.7016
19789TIP3    H180858   0.339   1.714  14.378  0.9556 -1.0846  0.1021
19789TIP3    H280859   0.342   1.707  14.529  0.5430  0.7897  0.2125
19790TIP3   OH280860   5.035   0.803   1.871 -0.3050  0.9980  0.0694
19790TIP3    H180861   4.941   0.788   1.872 -0.0645 -0.6424  2.3334
19790TIP3    H280862   5.056   0.833   1.960  1.4251  0.3647 -0.0915
19791TIP3   OH280863   5.732   0.370  15.370 -0.3205 -0.0264  0.6147
19791TIP3    H180864   5.734   0.297  15.308  0.3691 -0.1322  0.7622
19791TIP3    H280865   5.819   0.370  15.410 -0.5059  0.5295  1.0182
19792TIP3   OH280866   5.446   0.691   1.421 -0.6925  0.0974  0.2718
19792TIP3    H180867   5.471   0.775   1.460 -0.2302  0.3045 -0.4412
19792TIP3    H280868   5.479   0.625   1.481  0.2522  0.4034  0.1000
19793TIP3   OH280869   2.976   5.819   4.421  0.5668 -0.4341  0.2697
19793TIP3    H180870   3.032   5.777   4.486  0.7036 -1.5602 -0.5606
19793TIP3    H280871   2.961   5.751   4.355  0.5514  0.7368 -0.9473
19794TIP3   OH280872   5.679   6.081  15.480 -0.1192 -0.3536 -0.3188
19794TIP3    H180873   5.736   6.040  15.545 -0.2541  0.9680  0.6708
19794TIP3    H280874   5.722   6.165  15.461 -0.6901 -0.2261 -1.0567
19795TIP3   OH280875   6.242   3.658   0.366  0.1983  0.2240  0.6059
19795TIP3    H180876   6.229   3.740   0.415 -0.7999 -1.4284  3.1921
19795TIP3    H280877   6.296   3.604   0.424  2.1825 -0.3872 -1.7554
19796TIP3   OH280878   3.080   6.569   2.003 -0.6458 -0.3297 -0.0482
19796TIP3    H180879   3.117   6.485   1.975  0.3355 -0.4194  1.4766
19796TIP3    H280880   3.130   6.635   1.954 -0.2313 -0.5645  0.0567
19797TIP3   OH280881   2.707   6.052   3.496 -0.5339 -0.2681 -0.1257
19797TIP3    H180882   2.626   6.001   3.495 -1.2911  0.9040 -2.5162
19797TIP3    H280883   2.686   6.128   3.552 -0.4927 -0.8505  0.6924
19798TIP3   OH280884   1.154   4.345  11.471 -0.1432 -0.8204 -0.4235
19798TIP3    H180885   1.079   4.290  11.446 -0.8129  0.4362 -1.2469
19798TIP3    H280886   1.117   4.410  11.530  0.6367 -1.2162  0.4986
19799TIP3   OH280887   0.137   4.763  15.280  0.1213  0.2603  0.2556
19799TIP3    H180888   0.059   4.774  15.335  0.7874  0.4119  1.1819
19799TIP3    H280889   0.161   4.852  15.255 -0.9879  0.0975 -1.4348
19800TIP3   OH280890   2.860   3.216   5.229  0.5078 -0.1422 -0.5310
19800TIP3    H180891   2.955   3.207   5.241  0.6608  1.4143 -0.4277
19800TIP3    H280892   2.834   3.136   5.184  2.0872 -0.0311 -1.7226
19801TIP3   OH280893   2.681   2.577   5.430 -0.5186  0.2399  0.3879
19801TIP3    H180894   2.651   2.667   5.416 -0.7677  0.5343  2.6409
19801TIP3    H280895   2.600   2.525   5.433 -0.4030  0.0038 -0.3468
19802TIP3   OH280896   1.143   5.313   2.319  0.6593 -0.4257  0.2593
19802TIP3    H180897   1.203   5.341   2.249  0.1065  0.8476  0.2687
19802TIP3    H280898   1.143   5.387   2.380 -0.2678 -0.7683  0.6813
19803TIP3   OH280899   2.579   0.769   4.236  0.4954 -0.5951  0.3356
19803TIP3    H180900   2.617   0.852   4.204 -1.4374  1.3136  2.8059
19803TIP3    H280901   2.589   0.709   4.163  2.3988  1.6867 -1.3731
19804TIP3   OH280902   4.175   6.445   4.893  0.2442 -0.3383  0.5935
19804TIP3    H180903   4.109   6.489   4.947 -1.0719  0.8583 -1.9230
19804TIP3    H280904   4.126   6.407   4.820  2.1409 -0.7213 -0.5241
19805TIP3   OH280905   6.018   2.916  12.368  0.2654  0.0301  0.0207
19805TIP3    H180906   5.956   2.865  12.316 -0.0049 -0.6718  1.0188
19805TIP3    H280907   5.976   3.001  12.380 -0.1757 -0.1934  0.0682
19806TIP3   OH280908   4.870   2.559  11.735  0.5864  0.6654 -0.0094
19806TIP3    H180909   4.819   2.636  11.761  0.0158  1.0913 -2.2911
19806TIP3    H280910   4.934   2.593  11.671 -0.9237 -1.0329 -2.4994
19807TIP3   OH280911   3.246   1.111  11.607  0.4707  0.1134 -0.5128
19807TIP3    H180912   3.295   1.160  11.673  0.7919  1.4735 -1.7623
19807TIP3    H280913   3.304   1.108  11.531  0.4051 -2.0916 -0.5204
19808TIP3   OH280914   1.254   6.113  13.882 -0.2237  0.1165 -0.3434
19808TIP3    H180915   1.212   6.043  13.932 -0.4330  0.2369 -0.3532
19808TIP3    H280916   1.263   6.185  13.943  1.3274 -0.4180  0.0956
19809TIP3   OH280917   4.072   0.713   1.712 -0.3946  0.1614 -0.5325
19809TIP3    H180918   3.991   0.667   1.733  0.9435 -1.7764  0.5400
19809TIP3    H280919   4.080   0.704   1.617 -1.0044 -0.3680 -0.5401
19810TIP3   OH280920   3.143   4.473  17.265 -0.2776  0.2299  0.2474
19810TIP3    H180921   3.149   4.379  17.284 -0.7854  0.2153  0.3440
19810TIP3    H280922   3.088   4.478  17.188 -0.5240  0.4714  0.4392
19811TIP3   OH280923   3.941   3.633   0.429 -0.3556  0.0331 -0.3902
19811TIP3    H180924   3.945   3.722   0.465 -2.4468 -0.3480  0.8929
19811TIP3    H280925   4.030   3.616   0.398  0.2308  2.3387 -0.0957
19812TIP3   OH280926   6.755   6.606   5.006 -0.4568 -0.2413  0.6713
19812TIP3    H180927   6.829   6.667   5.014 -1.3053  0.8441  0.3664
19812TIP3    H280928   6.679   6.662   4.989 -1.0654 -1.4601 -0.8153
19813TIP3   OH280929   6.433   6.166   1.518  0.0308  0.0322 -0.1789
19813TIP3    H180930   6.444   6.231   1.588 -0.8297  0.9254 -0.8553
19813TIP3    H280931   6.437   6.082   1.563  0.3401  0.5785  0.8316
19814TIP3   OH280932   5.523   5.255  14.532 -0.1808  1.0737 -0.2065
19814TIP3    H180933   5.448   5.314  14.534  0.0253  1.3354 -0.2219
19814TIP3    H280934   5.502   5.187  14.596 -0.8255  0.6712 -0.8425
19815TIP3   OH280935   4.809   3.688  10.860 -0.6650 -0.2106  0.4233
19815TIP3    H180936   4.886   3.732  10.896  0.7954 -0.2441 -2.4920
19815TIP3    H280937   4.836   3.597  10.849 -1.6775 -0.5697  0.8537
19816TIP3   OH280938   3.584   3.033  14.023  0.5090  0.3259 -0.3235
19816TIP3    H180939   3.661   2.980  14.002  3.0480  3.5896  0.4071
19816TIP3    H280940   3.523   3.017  13.951  2.1245 -1.7754 -1.2795
19817TIP3   OH280941   5.892   3.852   6.408 -0.4868 -0.3022 -0.2029
19817TIP3    H180942   5.983   3.858   6.380 -0.9784  2.0128 -1.4188
19817TIP3    H280943   5.879   3.759   6.426  1.3679 -1.0847 -2.5854
19818TIP3   OH280944   1.551   0.250  16.904  0.2600  0.0328 -0.1204
19818TIP3    H180945   1.534   0.283  16.992  2.6567 -1.7085  1.0363
19818TIP3    H280946   1.614   0.311  16.867  0.6503 -0.2679  0.0515
19819TIP3   OH280947   0.933   1.052  13.379  0.2085 -0.4141 -0.3749
19819TIP3    H180948   0.962   0.982  13.321 -1.5164 -0.1777 -1.5797
19819TIP3    H280949   0.906   1.122  13.320  0.3045  0.6050  0.7715
19820TIP3   OH280950   1.982   4.749  11.672 -0.3088 -0.4619 -0.4117
19820TIP3    H180951   1.888   4.747  11.688 -0.0282 -1.2992  1.2810
19820TIP3    H280952   2.009   4.837  11.699 -0.2822 -0.9497  1.2295
19821TIP3   OH280953   1.073   5.087  16.049  0.3569  0.6676 -0.1764
19821TIP3    H180954   1.102   5.075  15.958  0.4285 -2.0333  0.1612
19821TIP3    H280955   1.148   5.125  16.094  0.2902  2.1284 -1.2377
19822TIP3   OH280956   0.212   3.615  12.281  0.1933  0.3658 -0.0611
19822TIP3    H180957   0.128   3.584  12.315  0.2787 -1.1417 -1.1962
19822TIP3    H280958   0.227   3.698  12.327 -2.6169  1.4198 -0.9206
19823TIP3   OH280959   0.844   6.483   3.000 -0.0043 -0.0096 -0.1735
19823TIP3    H180960   0.872   6.487   2.909  1.8929 -3.4949  0.1507
19823TIP3    H280961   0.792   6.403   3.006 -0.1822  0.2086  1.7932
19824TIP3   OH280962   5.901   2.607  13.491 -0.0343  0.0619  0.1910
19824TIP3    H180963   5.839   2.617  13.419  0.0362 -0.1693  0.0974
19824TIP3    H280964   5.847   2.598  13.569 -0.1359 -1.3422 -0.0421
19825TIP3   OH280965   5.338   5.905  11.628  0.5726  0.7847  0.3509
19825TIP3    H180966   5.343   5.837  11.561  0.8255  0.7536  0.4016
19825TIP3    H280967   5.370   5.862  11.708  0.3683  0.8505  0.4691
19826TIP3   OH280968   3.466   5.224  15.891  0.2345  0.2526 -0.3868
19826TIP3    H180969   3.538   5.208  15.830  0.4401  1.8978 -0.6004
19826TIP3    H280970   3.498   5.192  15.975  1.1713  0.8795 -0.5013
19827TIP3   OH280971   3.807   4.106   0.271  0.7511 -0.5102 -0.6810
19827TIP3    H180972   3.719   4.092   0.237  1.4874 -2.0575 -2.0089
19827TIP3    H280973   3.797   4.102   0.366 -0.9006  1.2108 -0.7531
19828TIP3   OH280974   4.454   5.770  13.453 -0.2835 -0.4013  0.2020
19828TIP3    H180975   4.533   5.787  13.402 -1.0664  1.0346 -0.5498
19828TIP3    H280976   4.409   5.702  13.403 -1.5839  1.7644 -1.6563
19829TIP3   OH280977   0.688   1.214   1.567  0.5796 -0.1067 -0.5677
19829TIP3    H180978   0.702   1.166   1.648 -0.5575 -1.0169 -0.9046
19829TIP3    H280979   0.697   1.149   1.498  1.4750  0.6503 -1.1758
19830TIP3   OH280980   0.747   2.575   6.741  0.1613  0.3522 -0.1341
19830TIP3    H180981   0.751   2.653   6.796  0.3981 -0.1756  0.6005
19830TIP3    H280982   0.803   2.595   6.667 -0.4838  1.2280 -0.3934
19831TIP3   OH280983   1.963   3.577   2.360 -0.1839 -0.2568 -0.2133
19831TIP3    H180984   1.993   3.665   2.338 -1.3946 -0.0714 -1.1922
19831TIP3    H280985   1.923   3.586   2.446  0.4319 -0.0234  0.0508
19832TIP3   OH280986   5.599   5.265   3.768  0.0875 -0.0287 -0.3199
19832TIP3    H180987   5.564   5.226   3.848  0.4117  0.6153  0.1385
19832TIP3    H280988   5.522   5.289   3.717 -0.1192 -0.2735 -0.1243
19833TIP3   OH280989   2.746   3.311   2.571  0.1617  0.0907 -0.6688
19833TIP3    H180990   2.715   3.289   2.483 -0.0076 -0.2338 -0.5291
19833TIP3    H280991   2.724   3.404   2.581 -1.5094 -0.3113 -0.2872
19834TIP3   OH280992   4.358   0.369  14.946 -0.8325  0.2708  0.2146
19834TIP3    H180993   4.366   0.332  15.034  1.7777  2.0939  0.7993
19834TIP3    H280994   4.442   0.350  14.904 -1.3306  1.1268 -1.2189
19835TIP3   OH280995   5.969   1.513  14.288 -0.0504 -0.3514  0.3059
19835TIP3    H180996   5.889   1.483  14.245 -1.7274  3.4070  0.6706
19835TIP3    H280997   6.036   1.505  14.220 -1.1310 -1.5534 -0.6630
19836TIP3   OH280998   1.972   6.471  11.171 -0.5744 -0.2894  0.3684
19836TIP3    H180999   2.045   6.409  11.164  1.3873  2.1571 -1.5502
19836TIP3    H281000   1.990   6.520  11.251  2.2053  3.0407 -2.1446
19837TIP3   OH281001   2.029   2.390   1.504 -0.4911  0.3485  0.3269
19837TIP3    H181002   2.008   2.344   1.585 -1.2989  1.2587  0.6382
19837TIP3    H281003   1.953   2.376   1.448 -0.7339  1.2640  0.4126
19838TIP3   OH281004   6.561   3.549   1.846  0.3959  0.1221 -0.1557
19838TIP3    H181005   6.617   3.531   1.770 -1.6066  1.2898 -1.9690
19838TIP3    H281006   6.497   3.479   1.845  0.6096 -0.0901  0.7325
19839TIP3   OH281007   3.178   0.126   6.501 -0.3280 -0.5865  0.1306
19839TIP3    H181008   3.211   0.042   6.530 -0.3122 -0.9028 -0.8035
19839TIP3    H281009   3.166   0.176   6.582  0.1752 -1.2886  0.6424
19840TIP3   OH281010   0.229   1.136  13.685  0.3898 -0.1904 -0.2846
19840TIP3    H181011   0.257   1.189  13.609  1.7113  0.5154  0.6758
19840TIP3    H281012   0.149   1.178  13.715  0.0969 -0.2102 -1.0192
19841TIP3   OH281013   2.520   1.754   6.870  0.3527  0.1696 -0.0475
19841TIP3    H181014   2.427   1.766   6.850  0.2005 -0.2218  0.4170
19841TIP3    H281015   2.521   1.694   6.945  1.0212 -0.6402 -0.6965
19842TIP3   OH281016   4.722   1.859   1.069  0.1083  0.2217 -0.2053
19842TIP3    H181017   4.758   1.826   0.987  0.1676  0.0951 -0.1288
19842TIP3    H281018   4.758   1.800   1.136  0.2084  0.4383 -0.0694
19843TIP3   OH281019   5.525   6.581  12.119 -0.3512  0.0903  0.6126
19843TIP3    H181020   5.550   6.497  12.079 -0.1496  0.8440 -0.8898
19843TIP3    H281021   5.440   6.601  12.081 -0.2860  0.6777  0.7719
19844TIP3   OH281022   0.601   5.882   3.682 -0.0271 -0.4342  0.4946
19844TIP3    H181023   0.512   5.893   3.646 -0.5621 -0.3229  1.8365
19844TIP3    H281024   0.619   5.788   3.672  0.8717  0.0026 -2.4403
19845TIP3   OH281025   6.662   4.564  12.025  0.0651  0.3003 -0.3516
19845TIP3    H181026   6.669   4.658  12.040  1.3382  0.5217 -2.1932
19845TIP3    H281027   6.641   4.556  11.932  0.8642 -1.2663 -0.4184
19846TIP3   OH281028   3.004   0.410  11.710  0.3249  0.5036 -0.6993
19846TIP3    H181029   2.960   0.373  11.633 -1.0426  1.9024 -0.5977
19846TIP3    H281030   3.041   0.492  11.679  2.1682 -0.2406 -0.5540
19847TIP3   OH281031   6.445   2.386   5.356  0.1305  0.1292  0.0571
19847TIP3    H181032   6.463   2.475   5.383 -1.6141  1.1126 -1.8556
19847TIP3    H281033   6.506   2.370   5.283  1.2119 -0.6514  1.1171
19848TIP3   OH281034   2.242   2.408  14.799  0.2399 -0.1788  0.2218
19848TIP3    H181035   2.207   2.428  14.886  1.9785 -0.6584  1.0508
19848TIP3    H281036   2.303   2.480  14.781  1.0977 -0.9275  0.1122
19849TIP3   OH281037   5.981   2.545   5.764 -1.0117  0.5752 -0.2458
19849TIP3    H181038   5.915   2.612   5.746  0.6610  1.7931 -2.1032
19849TIP3    H281039   6.030   2.580   5.839 -1.5016  0.3940  0.1620
19850TIP3   OH281040   2.810   4.998   5.406  0.1940  0.7178 -0.6583
19850TIP3    H181041   2.722   5.003   5.370 -0.8233  0.6947  1.7197
19850TIP3    H281042   2.843   5.088   5.401  0.3050  0.6030 -2.1641
19851TIP3   OH281043   0.927   0.830   0.433  0.2037  0.3325 -0.1269
19851TIP3    H181044   0.876   0.750   0.441 -0.8111  0.9731 -0.0414
19851TIP3    H281045   0.872   0.887   0.378  0.5842  1.2274  0.4192
19852TIP3   OH281046   5.501   4.117  16.880 -0.1325  0.3246 -0.3968
19852TIP3    H181047   5.552   4.078  16.810  0.3676  1.2507 -0.5566
19852TIP3    H281048   5.501   4.052  16.950 -1.8573 -1.2155 -1.7855
19853TIP3   OH281049   4.267   0.323  14.141  0.7044 -0.9347 -0.0510
19853TIP3    H181050   4.251   0.296  14.231 -1.3392 -0.7870 -0.3479
19853TIP3    H281051   4.195   0.286  14.091  1.1056  0.0751 -1.4234
19854TIP3   OH281052   5.990   5.518  14.705 -0.3222 -0.4842 -0.5431
19854TIP3    H181053   5.994   5.612  14.686 -1.4153 -0.5492 -1.0960
19854TIP3    H281054   5.915   5.486  14.656  0.6775 -1.8649 -1.2055
19855TIP3   OH281055   4.624   1.115   1.534  0.0446  0.5721  0.1975
19855TIP3    H181056   4.675   1.042   1.498 -0.6205  1.4280 -2.6380
19855TIP3    H281057   4.683   1.157   1.597  1.5003 -0.6715 -0.3087
19856TIP3   OH281058   5.971   2.558   5.036  0.1314  0.0249  0.5285
19856TIP3    H181059   6.013   2.496   5.096  1.4166 -1.9265 -2.3082
19856TIP3    H281060   5.880   2.531   5.032  0.7220 -1.8733 -0.8414
19857TIP3   OH281061   0.106   5.040   1.800 -0.2811  0.1940 -0.2215
19857TIP3    H181062   0.123   5.112   1.860 -0.9788  1.0527 -1.0477
19857TIP3    H281063   0.178   4.979   1.814  0.7618  1.4397 -0.1285
19858TIP3   OH281064   4.950   4.104   4.296 -0.4744  0.4504 -0.2628
19858TIP3    H181065   4.923   4.028   4.349 -0.0903  1.0693  0.8423
19858TIP3    H281066   4.970   4.067   4.210 -1.5177 -0.5114 -0.1057
19859TIP3   OH281067   4.916   4.741  10.627  0.3618  0.0040  0.2104
19859TIP3    H181068   4.880   4.704  10.708 -0.1237  2.1630  1.0176
19859TIP3    H281069   4.954   4.666  10.581 -1.2606 -1.6046  1.4269
19860TIP3   OH281070   4.914   4.106   5.649  0.2291 -0.4528 -0.4657
19860TIP3    H181071   4.935   4.014   5.666 -0.9013 -0.9300 -1.5963
19860TIP3    H281072   4.820   4.111   5.662  0.3683  0.6888  0.1493
19861TIP3   OH281073   4.071   3.985  11.391 -0.8174  0.4424 -0.6465
19861TIP3    H181074   4.016   4.014  11.318  0.1660 -0.7063 -1.8698
19861TIP3    H281075   4.131   4.058  11.406 -1.4721  0.9560 -0.5380
19862TIP3   OH281076   3.038   0.227   1.367 -0.4708  0.0653  0.0245
19862TIP3    H181077   3.051   0.226   1.272  0.5133 -0.1386  0.1499
19862TIP3    H281078   3.034   0.320   1.389  0.3707  0.1411 -0.0950
19863TIP3   OH281079   1.554   3.851  13.612 -0.2789 -0.1310  0.2882
19863TIP3    H181080   1.504   3.928  13.584  0.1249 -0.0120 -0.1174
19863TIP3    H281081   1.543   3.788  13.541 -0.6347 -0.4623  0.6349
19864TIP3   OH281082   3.860   3.893  16.081  0.2318  0.1383 -0.5506
19864TIP3    H181083   3.788   3.956  16.088 -1.2422 -1.6383  0.6911
19864TIP3    H281084   3.854   3.841  16.161  1.2815 -1.7473 -1.6690
19865TIP3   OH281085   5.508   0.592   3.790 -0.7178 -0.7063  0.4069
19865TIP3    H181086   5.504   0.518   3.850 -1.8066  0.7540  2.1909
19865TIP3    H281087   5.530   0.667   3.845 -0.2626  0.4135 -1.2569
19866TIP3   OH281088   5.468   0.378  11.984 -0.0398 -0.5279  0.9043
19866TIP3    H181089   5.445   0.309  12.046  1.7032 -1.3706  0.6418
19866TIP3    H281090   5.563   0.369  11.973  0.0964  1.4570  0.3267
19867TIP3   OH281091   3.205   4.881  14.723  0.3670 -0.2736  0.0771
19867TIP3    H181092   3.141   4.917  14.785 -0.7097 -0.7878 -0.7014
19867TIP3    H281093   3.154   4.867  14.643  0.8597 -3.1320  0.2325
19868TIP3   OH281094   5.996   1.947  14.219  0.4902  0.0737 -0.0127
19868TIP3    H181095   6.055   1.913  14.151 -0.1078  2.2125 -1.6365
19868TIP3    H281096   6.035   2.029  14.246 -0.3460  0.2106  0.7998
19869TIP3   OH281097   5.362   5.151   2.234 -0.1279 -0.4493 -0.1684
19869TIP3    H181098   5.371   5.240   2.266  0.6648 -0.6692  0.2281
19869TIP3    H281099   5.441   5.106   2.264  0.3607 -0.8134 -1.9651
19870TIP3   OH281100   3.027   2.628   2.822  0.1123 -0.3968 -0.1335
19870TIP3    H181101   3.108   2.608   2.868  0.3871 -0.3725 -0.6038
19870TIP3    H281102   2.986   2.697   2.874  0.6360 -0.0573 -0.1698
19871TIP3   OH281103   5.142   1.462   4.825  0.3643 -0.2734  0.5699
19871TIP3    H181104   5.050   1.467   4.851 -0.1630  0.3785 -1.3620
19871TIP3    H281105   5.186   1.530   4.876 -0.4925  0.3960  0.4081
19872TIP3   OH281106   1.333   4.876   4.470  0.0557 -0.1504 -0.2614
19872TIP3    H181107   1.353   4.783   4.471 -1.1280 -0.4169  0.3920
19872TIP3    H281108   1.398   4.914   4.411  1.1483 -1.2377  0.2121
19873TIP3   OH281109   6.464   2.196   2.290 -0.5589  0.2140  0.4243
19873TIP3    H181110   6.488   2.119   2.341  0.3719 -0.2083 -0.6143
19873TIP3    H281111   6.526   2.196   2.216 -1.7584  0.9019 -0.6070
19874TIP3   OH281112   6.671   6.277   5.278 -0.0818  0.5473  0.3393
19874TIP3    H181113   6.689   6.194   5.232  2.0570  1.3729 -0.3449
19874TIP3    H281114   6.689   6.257   5.370  1.1545  0.4373  0.0856
19875TIP3   OH281115   0.406   5.107  17.137 -0.0381  0.4792 -0.1680
19875TIP3    H181116   0.415   5.020  17.176 -0.4081  0.7117  0.4374
19875TIP3    H281117   0.460   5.103  17.058  1.3780  0.2608  0.7936
19876TIP3   OH281118   1.676   6.329  16.999 -0.1044  0.1825 -0.2864
19876TIP3    H181119   1.704   6.239  16.981  1.7043  0.6100  0.3132
19876TIP3    H281120   1.758   6.378  17.011 -1.1219  1.1443  3.2282
19877TIP3   OH281121   0.373   5.055   1.540 -0.1515  0.3910 -0.0618
19877TIP3    H181122   0.379   5.008   1.623 -0.9316  0.0086 -0.2187
19877TIP3    H281123   0.457   5.040   1.497  0.9477  2.0392  1.4255
19878TIP3   OH281124   5.053   5.129   2.276  0.3262  0.1062  0.1634
19878TIP3    H181125   5.077   5.221   2.291  1.3002  0.0592 -0.9997
19878TIP3    H281126   5.137   5.085   2.260 -0.1498 -0.9558  0.5820
19879TIP3   OH281127   4.001   4.864   1.427  0.0054  0.3209 -0.1753
19879TIP3    H181128   3.971   4.954   1.418  0.8193  0.4803 -1.4218
19879TIP3    H281129   4.097   4.870   1.420  0.1351 -0.5020  0.8588
19880TIP3   OH281130   4.236   0.228  11.530 -0.3702 -0.7015  0.2110
19880TIP3    H181131   4.180   0.272  11.595  1.8822  0.3362  1.5229
19880TIP3    H281132   4.222   0.135  11.546  0.2664 -0.4718  2.3641
19881TIP3   OH281133   0.252   4.149  13.491  1.2341 -0.2452  0.2951
19881TIP3    H181134   0.319   4.159  13.559 -0.7302  2.5083  1.8799
19881TIP3    H281135   0.215   4.237  13.480  0.1661 -1.0390 -2.9638
19882TIP3   OH281136   0.889   5.532  12.056  0.1225  0.3512  0.7266
19882TIP3    H181137   0.913   5.581  11.978 -2.2458  0.3947 -0.0397
19882TIP3    H281138   0.901   5.593  12.128 -0.6608  1.3388  0.0329
19883TIP3   OH281139   5.138   3.887  13.628  0.3009 -0.3253 -0.4984
19883TIP3    H181140   5.089   3.939  13.564  0.8157 -0.0835 -0.6982
19883TIP3    H281141   5.229   3.910  13.613  0.4335 -0.3276  0.2718
19884TIP3   OH281142   2.609   4.455   3.751 -0.2834 -0.4964 -0.2406
19884TIP3    H181143   2.521   4.449   3.714  0.1635 -0.8720 -1.2545
19884TIP3    H281144   2.602   4.410   3.835 -0.8560 -1.2781 -0.6975
19885TIP3   OH281145   3.573   0.477   6.233 -0.2501  0.2214 -0.2514
19885TIP3    H181146   3.539   0.450   6.147 -0.3169 -1.0798  0.1696
19885TIP3    H281147   3.541   0.566   6.244 -1.3963 -0.0817 -0.9840
19886TIP3   OH281148   2.786   5.345   1.710  0.5595 -0.0230 -0.2687
19886TIP3    H181149   2.874   5.309   1.722  0.7862 -0.5254 -3.1127
19886TIP3    H281150   2.768   5.335   1.617 -2.1024  1.0672  0.0697
19887TIP3   OH281151   4.511   3.627  14.159  0.3784  0.0690  0.2019
19887TIP3    H181152   4.578   3.600  14.221  0.2080  0.1978  0.4444
19887TIP3    H281153   4.546   3.603  14.073 -1.0179 -3.5676  0.5839
19888TIP3   OH281154   6.066   6.438  15.455 -0.0387  0.2844 -0.3155
19888TIP3    H181155   6.088   6.501  15.387  0.3321  0.1428 -0.3281
19888TIP3    H281156   6.147   6.390  15.471 -0.0460  0.5117  0.4311
19889TIP3   OH281157   6.540   4.044  14.329  0.4176  0.3820 -0.3227
19889TIP3    H181158   6.629   4.011  14.314  0.4090  0.5291 -0.7001
19889TIP3    H281159   6.511   4.073  14.242 -0.3777 -0.6127 -0.4035
19890TIP3   OH281160   1.657   6.254   2.802 -0.4792 -0.1076  0.5758
19890TIP3    H181161   1.607   6.175   2.782 -1.1773  0.4792 -0.0043
19890TIP3    H281162   1.703   6.233   2.883  1.3959 -2.0419 -0.9614
19891TIP3   OH281163   5.064   5.503  17.015  0.4429 -0.0855 -0.1264
19891TIP3    H181164   5.022   5.578  16.973 -0.1901 -0.1655  0.3654
19891TIP3    H281165   5.107   5.540  17.093  1.5715  0.0554 -0.8117
19892TIP3   OH281166   5.777   1.151   3.892  0.1782  0.4227  0.1622
19892TIP3    H181167   5.724   1.229   3.873 -0.0273  0.7937  2.1870
19892TIP3    H281168   5.731   1.080   3.846 -0.1013  1.3255 -1.0055
19893TIP3   OH281169   1.086   2.866  13.821  0.2098 -0.1960  0.1809
19893TIP3    H181170   0.991   2.858  13.813  0.2775 -1.2175  0.3217
19893TIP3    H281171   1.120   2.780  13.795  1.0959  0.1687  0.1057
19894TIP3   OH281172   1.910   2.212   5.966  0.3653  0.1879 -0.2247
19894TIP3    H181173   1.842   2.169   6.018  0.4102 -1.5318 -1.5459
19894TIP3    H281174   1.861   2.265   5.903  0.2771  0.3991  0.0203
19895TIP3   OH281175   5.393   2.201  16.551 -0.1209  0.2751 -0.2465
19895TIP3    H181176   5.307   2.181  16.588  0.2072  2.5378  1.8395
19895TIP3    H281177   5.373   2.258  16.476 -0.4156  1.3690  0.6512
19896TIP3   OH281178   3.561   2.088  16.491 -0.1608 -0.5689  0.3513
19896TIP3    H181179   3.516   2.004  16.504 -1.3740  0.4568  3.1947
19896TIP3    H281180   3.494   2.154  16.508  1.5066  0.9747  1.1041
19897TIP3   OH281181   0.917   1.243  12.506 -0.1206 -0.2810 -0.3318
19897TIP3    H181182   0.880   1.205  12.426  0.1429  0.1509 -0.6588
19897TIP3    H281183   0.966   1.320  12.476  0.3516 -0.3725  0.1935
19898TIP3   OH281184   5.696   6.048  13.540 -0.1876 -0.5785 -0.2806
19898TIP3    H181185   5.706   5.992  13.463 -0.9748  0.5040 -1.1795
19898TIP3    H281186   5.706   5.988  13.614  2.4679 -1.3127 -1.1777
19899TIP3   OH281187   5.311   5.252  11.577 -0.0447  0.3675 -0.4058
19899TIP3    H181188   5.337   5.163  11.601  0.7338  0.8092  0.4026
19899TIP3    H281189   5.308   5.251  11.482 -0.5583 -0.6684 -0.3890
19900TIP3   OH281190   1.093   1.675   2.710 -0.2670  0.3813  1.3191
19900TIP3    H181191   1.130   1.611   2.771 -1.1913  1.0882  2.6609
19900TIP3    H281192   0.999   1.669   2.724 -0.6596 -0.7692 -1.4224
19901TIP3   OH281193   0.731   5.735   0.867 -0.2797 -0.4524  0.0060
19901TIP3    H181194   0.755   5.674   0.936 -2.4483  1.4400  2.5444
19901TIP3    H281195   0.698   5.679   0.796 -0.4798 -2.3151  1.5379
19902TIP3   OH281196   3.390   3.798   6.011  0.0260 -0.0930  1.1374
19902TIP3    H181197   3.377   3.877   6.063  1.2569 -0.9831  2.8266
19902TIP3    H281198   3.323   3.737   6.042 -0.2828 -0.0750  0.5280
19903TIP3   OH281199   0.717   2.572  12.755  0.6122 -0.1325  0.1897
19903TIP3    H181200   0.660   2.643  12.724  0.9605  0.3603  0.6648
19903TIP3    H281201   0.805   2.602  12.735  1.0190  1.2331  3.6551
19904TIP3   OH281202   2.343   3.039  11.299  0.5822 -0.1871  0.4627
19904TIP3    H181203   2.309   3.129  11.301 -0.1130 -0.4228 -0.5987
19904TIP3    H281204   2.291   2.995  11.232  1.6544 -1.0943  0.2154
19905TIP3   OH281205   4.029   6.358  13.311 -0.0459  0.0581 -0.1413
19905TIP3    H181206   4.004   6.265  13.308 -1.7429  0.4890  0.4639
19905TIP3    H281207   4.041   6.382  13.219 -0.6292 -0.4902 -0.3653
19906TIP3   OH281208   4.794   5.119   2.157 -0.3204 -0.0704  0.4239
19906TIP3    H181209   4.883   5.139   2.185 -1.3335  3.5798  1.2724
19906TIP3    H281210   4.738   5.166   2.219 -2.8700 -1.9851 -0.3125
19907TIP3   OH281211   4.178   6.536   3.856  0.0813  0.0542 -0.0492
19907TIP3    H181212   4.085   6.525   3.873  0.2201  2.2709  2.3572
19907TIP3    H281213   4.187   6.629   3.831  1.8244  0.1963  1.0479
19908TIP3   OH281214   5.583   4.445  13.364 -0.3756  0.2351  0.0842
19908TIP3    H181215   5.563   4.442  13.458 -0.3156  0.0985  0.0926
19908TIP3    H281216   5.560   4.359  13.331 -0.7446  0.4062 -0.0996
19909TIP3   OH281217   5.241   0.669   6.315  0.4351  0.4415 -0.4337
19909TIP3    H181218   5.156   0.711   6.329  0.0668 -1.4597  3.9286
19909TIP3    H281219   5.220   0.577   6.298  1.5816 -0.0022  0.4948
19910TIP3   OH281220   6.628   6.186  13.506 -0.2155  0.0525 -0.6246
19910TIP3    H181221   6.698   6.135  13.463  0.4062  0.2649  0.1306
19910TIP3    H281222   6.674   6.244  13.566 -1.1501 -1.1357  1.2944
19911TIP3   OH281223   2.563   0.860  12.048 -0.3634 -0.3258 -0.2843
19911TIP3    H181224   2.639   0.844  12.104 -0.8787 -2.2409 -0.0840
19911TIP3    H281225   2.578   0.804  11.971 -0.4958  0.9780 -1.2759
19912TIP3   OH281226   3.171   3.498  15.902 -0.1153  0.1902 -0.5551
19912TIP3    H181227   3.257   3.466  15.874 -1.0311 -2.3724 -0.5421
19912TIP3    H281228   3.188   3.543  15.986  1.3102  0.4009 -0.9458
19913TIP3   OH281229   4.597   6.485   3.615  0.1569  0.6622 -0.0967
19913TIP3    H181230   4.675   6.492   3.670 -0.0821  0.7884  0.2249
19913TIP3    H281231   4.626   6.516   3.529  0.5677  0.3259 -0.0806
19914TIP3   OH281232   6.818   3.220  14.794 -0.3289  0.9070 -0.4404
19914TIP3    H181233   6.776   3.244  14.711 -0.3958  0.1453 -0.6291
19914TIP3    H281234   6.906   3.193  14.768 -0.5933 -0.0417 -0.3443
19915TIP3   OH281235   6.271   0.721  15.238  0.5889  0.8965 -0.0730
19915TIP3    H181236   6.336   0.661  15.201  0.9057  0.6048  0.9453
19915TIP3    H281237   6.315   0.761  15.313 -0.3193  0.8864  0.4752
19916TIP3   OH281238   1.151   2.089   2.909 -0.2963  0.4670 -0.1905
19916TIP3    H181239   1.078   2.030   2.894  0.6631 -0.7186 -0.3307
19916TIP3    H281240   1.171   2.080   3.003 -0.5613  1.0670 -0.0730
19917TIP3   OH281241   2.812   1.979   1.593  0.3971  0.1511  0.2885
19917TIP3    H181242   2.764   1.985   1.511  0.8210 -3.6280 -0.3126
19917TIP3    H281243   2.745   1.988   1.661 -0.6386 -1.2789 -0.5197
19918TIP3   OH281244   1.693   3.769   4.367  0.3620  0.2900 -0.1834
19918TIP3    H181245   1.628   3.836   4.349  2.4127  2.2369 -0.6000
19918TIP3    H281246   1.746   3.804   4.439  1.9665 -0.4761 -0.9466
19919TIP3   OH281247   5.741   4.353   0.750 -0.2318  0.4410  0.6114
19919TIP3    H181248   5.830   4.337   0.783  0.0811  0.3471 -0.2678
19919TIP3    H281249   5.754   4.398   0.667 -1.0115  0.4073  0.4691
19920TIP3   OH281250   0.602   6.408  14.632  0.4279  0.4872 -0.7911
19920TIP3    H181251   0.524   6.447  14.593 -0.8744  1.4801  2.6207
19920TIP3    H281252   0.601   6.317  14.604 -0.8707  0.9736 -2.3737
19921TIP3   OH281253   3.519   3.439   1.406 -0.0353 -0.7778 -0.2617
19921TIP3    H181254   3.589   3.474   1.461 -1.2568 -1.8634  2.0105
19921TIP3    H281255   3.530   3.344   1.411 -2.3139 -1.0059  1.0054
19922TIP3   OH281256   1.064   4.572   5.781 -0.4005  0.2499  0.0127
19922TIP3    H181257   1.096   4.487   5.812  0.4055  0.8765  0.9170
19922TIP3    H281258   1.112   4.587   5.699  1.9215  1.3253  1.5122
19923TIP3   OH281259   2.297   6.330  15.939 -0.2040 -0.2594  0.3498
19923TIP3    H181260   2.291   6.382  16.019 -0.8092  0.7003 -0.2953
19923TIP3    H281261   2.219   6.356  15.888 -1.3633 -2.9456  0.6746
19924TIP3   OH281262   5.322   6.749  14.100 -0.1670 -0.2252 -0.3925
19924TIP3    H181263   5.322   6.841  14.076 -0.1328 -0.5952 -1.8179
19924TIP3    H281264   5.239   6.715  14.068 -0.9281 -0.3303  1.6005
19925TIP3   OH281265   6.672   5.782   0.245  0.4127  0.2933  0.5405
19925TIP3    H181266   6.666   5.796   0.340  0.0085  2.5540  0.2090
19925TIP3    H281267   6.764   5.759   0.230  0.3731 -0.5877  1.5210
19926TIP3   OH281268   4.968   3.591   1.870 -0.1285 -0.7223 -0.2259
19926TIP3    H181269   4.950   3.516   1.926  0.1627 -0.7577 -0.1793
19926TIP3    H281270   4.894   3.593   1.808  0.0499 -1.2656 -0.4623
19927TIP3   OH281271   3.501   2.236  13.320  0.5942 -0.2703 -0.0139
19927TIP3    H181272   3.405   2.238  13.309  0.8110  1.4774 -2.0332
19927TIP3    H281273   3.516   2.273  13.407 -0.5425  0.4066 -0.0907
19928TIP3   OH281274   4.907   1.065  10.494  0.1223  0.4046 -0.7417
19928TIP3    H181275   4.814   1.082  10.483 -0.0982 -1.6000 -2.3259
19928TIP3    H281276   4.950   1.124  10.432 -0.0607  1.5187  0.1780
19929TIP3   OH281277   1.695   0.515   3.728  0.3814  0.3766  0.2120
19929TIP3    H181278   1.601   0.510   3.744  0.3277  1.5403  0.3046
19929TIP3    H281279   1.714   0.439   3.673 -0.5751  0.0361  0.3374
19930TIP3   OH281280   4.146   4.264  12.642 -0.0375  0.2752  0.2792
19930TIP3    H181281   4.207   4.312  12.697  0.2716  1.6179 -1.2015
19930TIP3    H281282   4.145   4.312  12.559 -0.1524 -1.9329 -1.0488
19931TIP3   OH281283   4.636   5.417   5.076 -1.1717 -0.7090  0.7712
19931TIP3    H181284   4.675   5.371   5.151  1.6600 -0.9028 -0.7648
19931TIP3    H281285   4.595   5.348   5.024 -0.5083 -0.9907  0.6086
19932TIP3   OH281286   6.568   4.616   3.205 -0.4142 -0.1636  0.1251
19932TIP3    H181287   6.628   4.546   3.231 -0.4910  0.1636  1.2172
19932TIP3    H281288   6.618   4.669   3.143  0.3614 -0.0110  0.8727
19933TIP3   OH281289   1.948   4.729   1.704 -0.2440  0.2803  0.3307
19933TIP3    H181290   1.910   4.729   1.792  1.4811  0.4002  1.0987
19933TIP3    H281291   2.016   4.662   1.707  0.0674  0.5367 -0.8129
19934TIP3   OH281292   4.556   2.641   1.253 -0.1310 -0.0833 -0.1215
19934TIP3    H181293   4.626   2.588   1.214  0.2814  0.5834 -0.3081
19934TIP3    H281294   4.477   2.614   1.207  0.0334 -0.6953 -0.0548
19935TIP3   OH281295   0.389   6.713   5.480 -0.1474  0.2590  0.0987
19935TIP3    H181296   0.397   6.713   5.576  1.0707 -0.8498  0.0164
19935TIP3    H281297   0.470   6.672   5.450 -0.8365 -0.0292 -1.3857
19936TIP3   OH281298   1.060   5.384  11.877  0.0350 -0.2050 -0.5699
19936TIP3    H181299   1.000   5.406  11.806 -0.7094 -0.4088 -0.0145
19936TIP3    H281300   1.010   5.400  11.957  0.6782 -0.4992 -0.0984
19937TIP3   OH281301   6.695   0.897   4.230  0.9342  0.3131  0.9056
19937TIP3    H181302   6.613   0.921   4.273  0.7148 -0.2851  0.8252
19937TIP3    H281303   6.700   0.802   4.239  1.6747  0.3578  1.0077
19938TIP3   OH281304   0.922   0.142  13.184 -0.0683  0.1016 -0.2996
19938TIP3    H181305   0.953   0.059  13.219 -2.0850 -0.6526 -0.2221
19938TIP3    H281306   0.917   0.200  13.260 -0.8529 -0.4181  0.0597
19939TIP3   OH281307   4.084   4.312   5.652 -0.1723  0.1286  0.3358
19939TIP3    H181308   4.126   4.226   5.657 -0.2213  0.0313 -0.8652
19939TIP3    H281309   4.012   4.300   5.592 -0.0591  1.0678  0.0087
19940TIP3   OH281310   0.018   5.097  11.561  0.2320 -0.2708  0.0023
19940TIP3    H181311  -0.010   5.167  11.620 -0.3888 -0.2886 -0.2629
19940TIP3    H281312  -0.057   5.083  11.503  0.2230 -1.3717  0.2584
19941TIP3   OH281313   3.470   2.431  15.730  0.1596 -0.3027 -0.0563
19941TIP3    H181314   3.459   2.349  15.681 -1.2620  0.0283 -0.2951
19941TIP3    H281315   3.453   2.500  15.666 -1.0815  0.1438  0.7394
19942TIP3   OH281316   4.620   6.546  14.613  0.1516  0.6109 -0.1347
19942TIP3    H181317   4.526   6.565  14.606 -0.1785 -0.6782  0.6049
19942TIP3    H281318   4.627   6.453  14.595  1.1103  0.3824  1.3644
19943TIP3   OH281319   0.869   6.085  16.268  0.2088 -0.1296  0.2014
19943TIP3    H181320   0.939   6.019  16.263  0.6188  0.3334 -0.2065
19943TIP3    H281321   0.915   6.168  16.282 -0.3986 -0.1199  2.2968
19944TIP3   OH281322   5.170   4.642  16.364  0.1881  0.2826 -0.5781
19944TIP3    H181323   5.175   4.639  16.268  0.9741 -0.1651 -0.5364
19944TIP3    H281324   5.249   4.688  16.391 -0.6866  1.5858 -0.1908
19945TIP3   OH281325   1.284   0.355  14.902  0.3682 -0.0232 -0.0550
19945TIP3    H181326   1.301   0.380  14.993 -3.2485  2.2584  0.0788
19945TIP3    H281327   1.214   0.413  14.874  1.2380 -0.8594 -4.2698
19946TIP3   OH281328   2.838   2.930  14.726 -0.5414  0.2529  0.0272
19946TIP3    H181329   2.790   3.012  14.734  0.1109  0.4420  2.4071
19946TIP3    H281330   2.930   2.955  14.735 -0.3193 -0.6700  0.4104
19947TIP3   OH281331   5.649   4.938   0.738 -0.6109  0.1725 -0.3269
19947TIP3    H181332   5.706   4.930   0.661  2.3132  0.6004  1.7142
19947TIP3    H281333   5.604   5.022   0.725  0.2833  0.5223 -1.2691
19948TIP3   OH281334   5.091   3.584  15.217  0.0120 -0.2678 -0.0564
19948TIP3    H181335   5.061   3.645  15.284  0.9135 -0.0562  0.1603
19948TIP3    H281336   5.029   3.594  15.146 -0.0265  0.6756  0.1082
19949TIP3   OH281337   2.653   6.641  12.357  0.3260 -0.1105  0.4717
19949TIP3    H181338   2.631   6.682  12.274 -0.7444 -0.9668  0.3036
19949TIP3    H281339   2.631   6.707  12.423 -0.0156  0.1156  0.1366
19950TIP3   OH281340   1.959   5.492   1.397 -0.1877  0.4997  0.2076
19950TIP3    H181341   2.047   5.529   1.398 -0.2384  0.6112  0.4282
19950TIP3    H281342   1.902   5.567   1.381 -0.0623  0.0940 -2.4405
19951TIP3   OH281343   4.082   4.786  15.168  1.0615  1.0493 -0.5686
19951TIP3    H181344   4.115   4.742  15.090 -0.4996  1.7906 -1.6663
19951TIP3    H281345   4.009   4.732  15.198  2.1518  0.3258  0.8790
19952TIP3   OH281346   0.423   4.420  13.272 -0.3146 -0.4425 -0.6495
19952TIP3    H181347   0.413   4.502  13.222 -2.2731 -1.0399 -1.2946
19952TIP3    H281348   0.340   4.410  13.319 -0.3626 -2.3769 -1.0847
19953TIP3   OH281349   4.204   3.467   0.002  0.6655  0.0256 -0.0955
19953TIP3    H181350   4.217   3.514   0.085  0.4275 -2.0331  1.1319
19953TIP3    H281351   4.284   3.416  -0.009 -0.1695 -1.2856 -0.0971
19954TIP3   OH281352   3.396   5.541   4.607  0.4437  0.9900 -0.5620
19954TIP3    H181353   3.376   5.531   4.514  0.4808  0.1698 -0.4876
19954TIP3    H281354   3.389   5.452   4.643 -0.9318  1.4923  0.4859
19955TIP3   OH281355   1.722   0.305  16.531  0.4004  0.0304  0.0476
19955TIP3    H181356   1.731   0.277  16.440  0.2630  0.0666  0.0232
19955TIP3    H281357   1.722   0.224  16.582 -1.0971 -0.0857 -0.1123
19956TIP3   OH281358   0.218   4.103  12.752 -0.0529  0.3763  0.1976
19956TIP3    H181359   0.300   4.089  12.800  1.0071  1.0469 -1.3899
19956TIP3    H281360   0.183   4.015  12.738  0.6175  0.0582  0.5081
19957TIP3   OH281361   2.396   3.381   4.422  0.6666  0.5423  0.5462
19957TIP3    H181362   2.362   3.468   4.442  1.0604  0.7241  0.4276
19957TIP3    H281363   2.389   3.332   4.504 -1.2710  0.1203  0.1505
19958TIP3   OH281364   2.408   4.625   5.678 -0.0527  0.1754  0.1655
19958TIP3    H181365   2.464   4.694   5.713 -0.1228  0.3131  0.0059
19958TIP3    H281366   2.423   4.627   5.584  0.1129 -0.1748  0.1845
19959TIP3   OH281367   6.325   5.373   3.823  0.0369 -0.1020  0.0757
19959TIP3    H181368   6.300   5.464   3.843 -0.9302 -0.6680  1.5112
19959TIP3    H281369   6.378   5.380   3.743  1.8051  1.9531  1.3716
19960TIP3   OH281370   4.037   5.958   3.447  0.0766  0.4196 -0.2686
19960TIP3    H181371   4.089   6.032   3.415 -0.4681  0.3605 -1.3312
19960TIP3    H281372   4.035   5.897   3.373 -0.5035 -0.1077  0.1781
19961TIP3   OH281373   5.196   6.016  13.359  0.4850  0.2702 -0.2424
19961TIP3    H181374   5.272   5.972  13.322  0.9582  0.0713  0.9437
19961TIP3    H281375   5.129   5.948  13.366  0.6611  0.1270  0.0300
19962TIP3   OH281376   4.151   5.843   1.343  0.1829 -0.2477  0.3639
19962TIP3    H181377   4.150   5.759   1.296 -0.0834  0.4041 -0.8317
19962TIP3    H281378   4.144   5.908   1.273 -2.5088  0.7109  1.4642
19963TIP3   OH281379   2.067   5.507   5.481  0.4828 -0.7211  0.1902
19963TIP3    H181380   1.977   5.537   5.464  0.3771  1.0812  3.4503
19963TIP3    H281381   2.078   5.431   5.425 -2.9460 -0.7079 -0.6151
19964TIP3   OH281382   5.174   6.040   2.753  0.0050  0.2255 -0.2676
19964TIP3    H181383   5.127   5.964   2.786  1.6706  0.0141  1.6447
19964TIP3    H281384   5.234   6.005   2.688  0.0934  0.0468 -0.0872
19965TIP3   OH281385   3.373   3.006  12.283 -0.0876  0.9304 -0.3089
19965TIP3    H181386   3.350   3.088  12.327  4.5064  2.6901 -0.8805
19965TIP3    H281387   3.348   3.020  12.191  0.1943  1.4714 -0.3031
19966TIP3   OH281388   1.190   0.851  11.896 -0.3065 -0.1837 -0.0870
19966TIP3    H181389   1.172   0.876  11.806 -0.6541  0.9677  0.3002
19966TIP3    H281390   1.238   0.925  11.933 -0.4974 -0.4881  0.7912
19967TIP3   OH281391   5.853   6.215  14.309 -0.4280  0.2194 -0.0419
19967TIP3    H181392   5.796   6.256  14.374 -2.3338 -0.5499 -1.2110
19967TIP3    H281393   5.910   6.157  14.361  0.1942  1.9498  1.2627
19968TIP3   OH281394   5.168   1.006   4.695 -0.2048  0.3301 -0.0577
19968TIP3    H181395   5.258   0.990   4.724  0.3680  1.7129 -1.0210
19968TIP3    H281396   5.138   1.079   4.749  0.1712  1.5916 -1.5184
19969TIP3   OH281397   0.117   1.467   5.086  0.5405 -0.1450  0.0799
19969TIP3    H181398   0.086   1.556   5.102  0.0863 -0.2481 -0.2215
19969TIP3    H281399   0.211   1.477   5.068  0.3136  0.3706 -0.8512
19970TIP3   OH281400   0.165   1.242  11.141  0.1670  0.0080 -0.3534
19970TIP3    H181401   0.199   1.158  11.169 -0.8192 -0.0537  0.6845
19970TIP3    H281402   0.099   1.265  11.206  1.2929  2.1811  0.1064
19971TIP3   OH281403   2.414   2.984  16.004  0.2067 -0.6571 -0.1981
19971TIP3    H181404   2.412   3.024  15.918  1.9860  1.7952  0.8512
19971TIP3    H281405   2.491   2.927  16.003  0.5795 -0.1572 -0.0328
19972TIP3   OH281406   2.682   2.338  11.537 -0.2274 -0.1666  0.4455
19972TIP3    H181407   2.650   2.408  11.480 -1.0930  0.5902  1.8518
19972TIP3    H281408   2.762   2.374  11.576  1.1928 -1.2337 -1.3667
19973TIP3   OH281409   4.224   1.959   0.150 -0.6595 -0.1905 -0.5638
19973TIP3    H181410   4.170   1.943   0.228  0.7501 -2.4952  0.0104
19973TIP3    H281411   4.246   2.052   0.155 -0.1677 -0.3851  2.1261
19974TIP3   OH281412   1.849   1.888   3.269 -0.1734 -0.1992  0.9878
19974TIP3    H181413   1.761   1.852   3.263  0.3505 -0.9761 -2.7540
19974TIP3    H281414   1.843   1.974   3.228  0.6853  0.0195  1.2998
19975TIP3   OH281415   1.078   1.168   1.738  0.2921 -0.4866  0.5581
19975TIP3    H181416   1.096   1.086   1.784  1.1709 -1.0669 -0.7771
19975TIP3    H281417   1.151   1.177   1.677 -0.4455  0.6644 -0.1623
19976TIP3   OH281418   1.415   0.056  16.088  0.1990  0.1454 -0.5659
19976TIP3    H181419   1.341   0.116  16.102  0.5709  0.5510 -0.3158
19976TIP3    H281420   1.385  -0.003  16.018 -0.2704  0.4490 -0.6266
19977TIP3   OH281421   4.279   0.084   2.304 -0.4172 -0.6268 -0.3061
19977TIP3    H181422   4.249   0.167   2.265 -0.7159 -0.8105 -0.4729
19977TIP3    H281423   4.312   0.109   2.390 -0.3723 -0.3114 -0.4123
19978TIP3   OH281424   5.796   1.996   1.137 -0.6684  0.2853  0.0217
19978TIP3    H181425   5.860   1.984   1.066  0.1491 -1.3315  0.9986
19978TIP3    H281426   5.842   2.051   1.201 -0.3765 -0.5582  0.5476
19979TIP3   OH281427   6.035   5.886   4.958 -0.2122 -0.2022 -0.6403
19979TIP3    H181428   6.022   5.957   5.021  0.3824 -0.9095  0.2887
19979TIP3    H281429   6.078   5.817   5.008 -0.4184 -1.0676 -1.6407
19980TIP3   OH281430   5.734   6.364  14.514  0.5258  0.3669  0.6595
19980TIP3    H181431   5.702   6.417  14.441  0.6455 -0.6157 -0.1183
19980TIP3    H281432   5.681   6.391  14.589 -0.9963 -0.0897 -0.2529
19981TIP3   OH281433   0.446   1.822   1.097 -0.2593  0.4290 -0.2595
19981TIP3    H181434   0.398   1.740   1.094 -1.7812  1.2721  0.1310
19981TIP3    H281435   0.388   1.886   1.056  1.5291  1.0252 -1.9202
19982TIP3   OH281436   3.958   4.583   3.616  0.4370 -0.0642  0.4020
19982TIP3    H181437   3.879   4.558   3.567  0.0110  0.3620  0.8619
19982TIP3    H281438   3.951   4.536   3.699  1.2087 -0.8625  0.0243
19983TIP3   OH281439   0.880   0.662   3.898 -0.0644  0.2853 -0.1250
19983TIP3    H181440   0.947   0.719   3.859  1.5510 -0.7297  1.0711
19983TIP3    H281441   0.894   0.671   3.993 -1.3393 -0.2958  0.1266
19984TIP3   OH281442   6.517   4.408  10.708 -0.2956 -0.3969  0.3093
19984TIP3    H181443   6.481   4.380  10.624  0.4536  0.4138 -0.2928
19984TIP3    H281444   6.442   4.441  10.756 -0.9383 -1.9893  0.4460
19985TIP3   OH281445   1.528   6.071  14.917  0.1264  0.5381  0.0478
19985TIP3    H181446   1.525   6.027  14.832 -4.0016  1.0126 -0.1788
19985TIP3    H281447   1.547   6.162  14.896  0.1823  0.4569 -0.2655
19986TIP3   OH281448   0.535   3.886  13.754 -0.0696 -0.3100  0.9494
19986TIP3    H181449   0.465   3.859  13.813  0.7820 -0.6261  1.8241
19986TIP3    H281450   0.613   3.894  13.810  0.5927  0.0564 -0.0012
19987TIP3   OH281451   3.104   2.349  11.876 -0.5215  0.1167  1.0843
19987TIP3    H181452   3.079   2.434  11.913  1.8222  0.2563  2.4979
19987TIP3    H281453   3.118   2.367  11.783 -0.7633  1.1327  1.2305
19988TIP3   OH281454   5.064   0.878   2.737 -0.1115 -0.7590  0.1241
19988TIP3    H181455   5.016   0.954   2.703  0.0908 -1.3023 -1.4079
19988TIP3    H281456   5.002   0.837   2.797  0.5277  1.7807  2.6196
19989TIP3   OH281457   0.028   6.001  17.056  0.2060 -0.5208  0.1137
19989TIP3    H181458   0.106   6.055  17.067  0.9568 -1.5675 -0.0258
19989TIP3    H281459  -0.015   6.003  17.142  0.5943 -0.2470  0.3041
19990TIP3   OH281460   6.146   5.623   1.466  0.1884  0.4302 -0.4396
19990TIP3    H181461   6.214   5.570   1.509  0.0040  0.0485 -0.6212
19990TIP3    H281462   6.081   5.560   1.438 -0.3693  0.8239 -0.0409
19991TIP3   OH281463   0.732   2.848   6.909 -0.1796 -0.2015 -0.1010
19991TIP3    H181464   0.767   2.884   6.827 -0.0911  2.8213  1.1915
19991TIP3    H281465   0.637   2.843   6.895  0.0294 -1.5607 -1.0690
19992TIP3   OH281466   2.460   5.613  11.684  0.3832  0.5301  0.1728
19992TIP3    H181467   2.540   5.663  11.699 -1.0781  2.1555  3.0606
19992TIP3    H281468   2.391   5.679  11.684 -1.2117 -1.1059  0.1635
19993TIP3   OH281469   4.671   2.205  13.494  0.3791  0.0991  0.5816
19993TIP3    H181470   4.739   2.140  13.514  1.9843  1.7716  0.7161
19993TIP3    H281471   4.597   2.181  13.550  1.3348 -0.9798  1.3965
19994TIP3   OH281472   3.773   3.619   2.197 -0.1694  0.1313 -0.4927
19994TIP3    H181473   3.762   3.528   2.170 -1.8198  0.4193 -0.8622
19994TIP3    H281474   3.813   3.662   2.122  2.6759 -0.7157  0.4699
19995TIP3   OH281475   1.308   3.929   3.483  0.0774  0.8009 -0.6134
19995TIP3    H181476   1.245   3.930   3.555 -1.1965  0.3053 -1.7094
19995TIP3    H281477   1.391   3.906   3.525 -0.9892 -1.2453  0.4494
19996TIP3   OH281478   4.182   3.153  13.282 -0.0003  0.5515 -0.3178
19996TIP3    H181479   4.271   3.188  13.269  0.0237  0.8090  0.5068
19996TIP3    H281480   4.174   3.084  13.216  1.3480 -0.4718  0.5467
19997TIP3   OH281481   6.785   4.174   5.184 -0.0618  0.4060 -0.0993
19997TIP3    H181482   6.715   4.133   5.133  0.0446  0.2963 -0.1561
19997TIP3    H281483   6.815   4.247   5.130  0.2816  0.0856 -0.3449
19998TIP3   OH281484   6.126   5.868  11.644  0.1950  0.3703  0.9976
19998TIP3    H181485   6.125   5.951  11.597 -0.0503 -0.0971  0.1479
19998TIP3    H281486   6.201   5.874  11.703  1.4690  0.3846 -0.5784
19999TIP3   OH281487   1.936   3.469  14.186 -0.4369  1.0265  0.9920
19999TIP3    H181488   1.961   3.378  14.199 -1.4713  0.9502  2.6556
19999TIP3    H281489   1.896   3.495  14.269 -1.9805  2.3923 -0.1367
20000TIP3   OH281490   1.032   2.094  12.241 -0.2941 -0.0443 -0.0579
20000TIP3    H181491   1.051   2.001  12.230 -1.1215 -0.3228  0.7498
20000TIP3    H281492   0.965   2.114  12.176 -0.7274 -0.2187  0.3312
20001TIP3   OH281493   3.050   2.486  11.340 -0.8720  0.0787 -0.0938
20001TIP3    H181494   2.970   2.443  11.310 -0.6792 -1.1390  1.0729
20001TIP3    H281495   3.120   2.440  11.295 -0.6835 -0.6123  0.8996
20002TIP3   OH281496   3.874   2.356  14.248 -0.2156  0.0394  0.1077
20002TIP3    H181497   3.959   2.363  14.290 -0.1737  0.9635 -0.1144
20002TIP3    H281498   3.819   2.420  14.293 -0.3120  0.6663 -0.8700
20003TIP3   OH281499   2.090   5.201  16.496  0.0860  0.1516  0.5318
20003TIP3    H181500   2.087   5.277  16.554  0.6224  0.8686 -0.3833
20003TIP3    H281501   2.179   5.199  16.463  0.2459 -1.2273  1.0044
20004TIP3   OH281502   1.920   0.057  13.435 -0.0687  0.1348 -0.4182
20004TIP3    H181503   1.878   0.138  13.463  0.5937 -0.0038  1.0058
20004TIP3    H281504   1.858  -0.012  13.460 -0.0342  0.1016 -0.4231
20005TIP3   OH281505   5.073   3.062   3.911  0.3032  0.7114  0.3500
20005TIP3    H181506   5.058   3.149   3.947 -0.6838 -0.4194  2.7385
20005TIP3    H281507   5.052   3.071   3.818 -2.9803  2.2768  1.1618
20006TIP3   OH281508   3.507   0.986   3.903 -0.1394  0.5449 -0.5753
20006TIP3    H181509   3.434   1.036   3.939 -1.3469 -1.1829 -0.6024
20006TIP3    H281510   3.549   0.945   3.979  0.4237  1.0139 -0.6264
20007TIP3   OH281511   6.265   4.979  16.235 -0.0405  0.0703  0.4287
20007TIP3    H181512   6.232   4.970  16.146  1.1441 -2.7992  0.2408
20007TIP3    H281513   6.214   4.917  16.286  0.4870  0.4460  1.4242
20008TIP3   OH281514   4.485   2.139  15.008 -0.4998  0.0428 -0.0974
20008TIP3    H181515   4.514   2.050  14.988  0.1760 -0.6231  3.3798
20008TIP3    H281516   4.403   2.126  15.056 -0.6628  1.3342 -0.0219
20009TIP3   OH281517   0.671   5.057   5.492  0.4100 -0.4067 -0.3178
20009TIP3    H181518   0.590   5.080   5.536  0.9786 -0.6803  0.8995
20009TIP3    H281519   0.738   5.107   5.539  1.0433 -0.8279 -0.7671
20010TIP3   OH281520   0.364   6.335  16.569 -0.7082  0.1418  0.0861
20010TIP3    H181521   0.417   6.406  16.606 -0.1318 -0.4091  0.3419
20010TIP3    H281522   0.364   6.351  16.475 -1.8811  1.3514  0.2912
20011TIP3   OH281523   1.637   0.237   5.334 -0.3151 -0.7267  0.3274
20011TIP3    H181524   1.611   0.322   5.370  0.9950 -0.4240  0.5981
20011TIP3    H281525   1.556   0.200   5.298 -1.1612  0.0411  1.4051
20012TIP3   OH281526   0.744   6.426   4.028 -0.2188 -0.2641  0.3079
20012TIP3    H181527   0.775   6.367   3.960 -0.3417  0.0499 -0.0200
20012TIP3    H281528   0.788   6.509   4.009  1.0068 -0.5976  1.5484
20013TIP3   OH281529   4.270   3.002  15.810  0.7828  0.7891 -0.1968
20013TIP3    H181530   4.299   3.050  15.733  2.5607  0.8710  0.4969
20013TIP3    H281531   4.337   2.934  15.823  0.8893  1.2223  1.6831
20014TIP3   OH281532   1.575   2.039   3.478  0.7283 -0.3346 -0.3045
20014TIP3    H181533   1.601   1.948   3.466  2.1163  0.1102 -0.7117
20014TIP3    H281534   1.632   2.070   3.548 -0.5808 -0.1174  0.6826
20015TIP3   OH281535   3.542   3.359  13.469 -0.0073 -0.9223 -0.1889
20015TIP3    H181536   3.565   3.274  13.505 -2.6581 -1.5714  0.0557
20015TIP3    H281537   3.461   3.383  13.514 -1.0458  0.2262 -2.5811
20016TIP3   OH281538   6.134   1.219   3.288 -0.1671 -0.1748 -0.7496
20016TIP3    H181539   6.069   1.199   3.355  0.1547 -1.9596 -0.9312
20016TIP3    H281540   6.083   1.254   3.214 -0.7235  0.0095 -0.2789
20017TIP3   OH281541   1.961   2.050   3.701 -0.0900  0.1396  0.0379
20017TIP3    H181542   1.871   2.080   3.706 -0.0928  0.1784 -0.2682
20017TIP3    H281543   1.981   2.019   3.790 -0.7566 -0.9058 -0.1783
20018TIP3   OH281544   6.662   1.989  15.441 -0.6745 -0.0179  0.1854
20018TIP3    H181545   6.668   2.010  15.348 -1.5585  0.2448  0.1848
20018TIP3    H281546   6.630   1.899  15.444  1.8274 -0.9445  0.2069
20019TIP3   OH281547   0.820   4.505   0.142  0.0300  0.1910 -0.1918
20019TIP3    H181548   0.835   4.423   0.096  2.4809 -0.0118  0.8765
20019TIP3    H281549   0.867   4.571   0.090 -2.3273  1.0589 -1.3214
20020TIP3   OH281550   5.041   1.226  13.353 -0.3571  0.4795  0.0197
20020TIP3    H181551   4.956   1.198  13.319 -0.2762  1.4269 -1.0010
20020TIP3    H281552   5.094   1.146  13.355 -0.5703  0.2812 -1.4990
20021TIP3   OH281553   4.608   2.860  11.887  0.4358  0.3576 -0.1061
20021TIP3    H181554   4.605   2.785  11.947 -2.1504  0.0894 -0.5125
20021TIP3    H281555   4.609   2.937  11.944 -0.3070  0.0705  0.2958
20022TIP3   OH281556   1.687   2.376  15.614  0.4268  0.0553 -0.3603
20022TIP3    H181557   1.749   2.352  15.683  0.4462  0.5596 -0.2035
20022TIP3    H281558   1.702   2.469  15.599 -0.5295  0.2594 -0.0829
20023TIP3   OH281559   0.823   3.547   0.226 -0.2037 -0.0035 -0.2021
20023TIP3    H181560   0.833   3.458   0.260 -0.4648  0.3226  0.7357
20023TIP3    H281561   0.747   3.541   0.167  0.4439 -0.6358 -0.9976
20024TIP3   OH281562   0.202   2.546  14.956  0.3465  0.1098 -0.0447
20024TIP3    H181563   0.225   2.634  14.926  2.9353 -1.0110 -1.5119
20024TIP3    H281564   0.129   2.520  14.899 -1.3516  1.7883  1.3067
20025TIP3   OH281565   3.530   1.739   1.602  0.2630  0.5521 -0.3366
20025TIP3    H181566   3.579   1.668   1.644  0.5284  1.6652  1.2593
20025TIP3    H281567   3.463   1.763   1.665 -0.1298  1.4028 -1.0740
20026TIP3   OH281568   1.428   5.534   0.444 -0.3723  0.1684 -0.3189
20026TIP3    H181569   1.444   5.455   0.394  0.4740  0.0413  0.1262
20026TIP3    H281570   1.363   5.509   0.510 -0.2588 -0.1017 -0.3109
20027TIP3   OH281571   1.130   1.441  16.640 -0.4582 -0.1559  0.1831
20027TIP3    H181572   1.112   1.357  16.597  1.0749 -0.9092  0.9539
20027TIP3    H281573   1.221   1.433  16.670 -0.6197  1.4093  1.1384
20028TIP3   OH281574   2.608   4.096  12.638  0.5951 -0.2143 -0.1557
20028TIP3    H181575   2.644   4.184  12.630  0.1000  0.0435  0.4491
20028TIP3    H281576   2.535   4.095  12.576 -0.6168  0.4340  1.2354
20029TIP3   OH281577   1.146   3.297   4.958 -0.2318 -0.3793  0.1129
20029TIP3    H181578   1.218   3.351   4.990  0.4058 -0.1173 -1.6849
20029TIP3    H281579   1.158   3.213   5.002 -0.2863  0.4283  1.7008
20030TIP3   OH281580   4.254   4.106  13.976 -0.0653 -0.4912  1.0309
20030TIP3    H181581   4.306   4.034  14.010  0.3794 -1.0998 -0.8737
20030TIP3    H281582   4.318   4.173  13.951 -0.3698 -0.1066  1.2794
20031TIP3   OH281583   2.566   0.955  12.656  0.4744  0.4545  0.6657
20031TIP3    H181584   2.634   0.970  12.722  1.2145  1.6536 -0.3488
20031TIP3    H281585   2.604   0.890  12.597  0.6430  0.9400  0.2378
20032TIP3   OH281586   0.700   5.176  12.670 -0.2843  0.1325  0.2875
20032TIP3    H181587   0.728   5.208  12.756  1.6814 -1.8725  0.4423
20032TIP3    H281588   0.717   5.249  12.610  0.8656  0.6229  1.1888
20033TIP3   OH281589   2.294   2.812  13.758 -0.1708 -0.0762 -0.0007
20033TIP3    H181590   2.248   2.750  13.702 -0.8156  0.9485 -0.6082
20033TIP3    H281591   2.244   2.811  13.840 -1.5557  1.3792 -0.8174
20034TIP3   OH281592   3.646   3.218  12.057 -0.2125 -0.7335  0.3537
20034TIP3    H181593   3.712   3.277  12.020 -0.3324 -0.8104  0.0140
20034TIP3    H281594   3.608   3.268  12.129  0.1672 -0.6624  0.5092
20035TIP3   OH281595   2.733   6.187  14.336  0.5796  0.2011 -0.5347
20035TIP3    H181596   2.753   6.198  14.429  0.6201  1.4050 -0.6828
20035TIP3    H281597   2.772   6.102  14.313  1.2294  0.2468  0.3626
20036TIP3   OH281598   6.655   3.878   3.020  0.5421 -0.6065 -0.4422
20036TIP3    H181599   6.666   3.973   3.011  1.4515 -0.7793 -1.2279
20036TIP3    H281600   6.600   3.853   2.946  0.0137 -0.6474 -0.0390
20037TIP3   OH281601   2.211   4.799  15.769  0.5563 -0.0356 -0.4053
20037TIP3    H181602   2.176   4.721  15.812  2.5329  0.0749  1.5306
20037TIP3    H281603   2.205   4.780  15.675  0.4618 -2.2836  0.0275
20038TIP3   OH281604   4.919   4.912   3.632 -0.3213  0.5358  0.4685
20038TIP3    H181605   4.989   4.959   3.678  0.9729 -0.9010 -0.0118
20038TIP3    H281606   4.948   4.821   3.631 -2.0060 -0.0077 -0.1204
20039TIP3   OH281607   5.052   3.678   5.356  0.0689 -0.1769  0.0420
20039TIP3    H181608   5.049   3.687   5.261 -1.2680  0.8927  0.1790
20039TIP3    H281609   5.079   3.764   5.388  0.8447 -0.6232  0.6209
20040TIP3   OH281610   4.562   3.355  15.177  0.0491 -0.6435  0.5940
20040TIP3    H181611   4.651   3.353  15.213  0.2082  0.5336  0.3041
20040TIP3    H281612   4.563   3.428  15.115 -1.3182 -0.1675  1.1059
20041TIP3   OH281613   5.432   6.076  16.594  0.6680 -0.2712 -0.0396
20041TIP3    H181614   5.527   6.081  16.604  0.6713 -1.1447  0.4337
20041TIP3    H281615   5.419   6.020  16.518  0.5336 -0.3751  0.0571
20042TIP3   OH281616   3.255   0.739  17.046  0.0288 -0.3463 -0.2685
20042TIP3    H181617   3.263   0.798  17.121 -0.8147  2.2811 -2.1747
20042TIP3    H281618   3.164   0.709  17.049 -0.3581  0.7520 -0.9525
20043TIP3   OH281619   4.612   2.758  14.477 -0.2097  0.3055  0.2207
20043TIP3    H181620   4.684   2.806  14.437  0.2732  1.6816  2.7072
20043TIP3    H281621   4.647   2.724  14.559 -1.6843 -1.0664  0.3224
20044TIP3   OH281622   2.711   4.702  15.877  0.3151 -0.2093  0.2510
20044TIP3    H181623   2.759   4.710  15.794  0.0061 -1.8573 -0.1074
20044TIP3    H281624   2.664   4.785  15.886  0.9046  0.2531 -0.8796
20045TIP3   OH281625   3.364   2.550  11.459  0.4559  0.1926  0.2697
20045TIP3    H181626   3.422   2.511  11.394  0.4078 -1.4529  1.1769
20045TIP3    H281627   3.278   2.553  11.417  0.6972  0.3686 -0.2103
20046TIP3   OH281628   4.804   4.450   1.396 -0.1049  0.1699 -0.2227
20046TIP3    H181629   4.731   4.507   1.420  0.7394  2.0247 -1.9677
20046TIP3    H281630   4.882   4.496   1.427  0.5338 -0.3896 -0.9719
20047TIP3   OH281631   3.781   4.926  16.079 -0.0383 -0.1551  0.7543
20047TIP3    H181632   3.735   4.910  15.997 -0.8402 -0.0589  1.1859
20047TIP3    H281633   3.834   4.847  16.092  1.2582  0.4476 -0.6182
20048TIP3   OH281634   6.385   6.121   3.972 -0.3697 -0.2063  0.2863
20048TIP3    H181635   6.447   6.057   3.937  0.0969  0.4068 -0.0298
20048TIP3    H281636   6.300   6.080   3.961 -0.2412  0.0159 -1.7192
20049TIP3   OH281637   3.704   1.710  12.277  0.2720 -0.1255 -0.2646
20049TIP3    H181638   3.633   1.719  12.340  1.6367  0.9405  1.1546
20049TIP3    H281639   3.781   1.690  12.329  1.5801  1.5204 -1.4819
20050TIP3   OH281640   1.681   3.938   3.454 -0.4274 -0.0983  0.4163
20050TIP3    H181641   1.618   3.870   3.474  0.1577 -0.9349 -0.5509
20050TIP3    H281642   1.659   3.967   3.365 -0.9425  1.2793  0.9756
20051TIP3   OH281643   0.328   4.111  15.355 -0.3114 -0.0778 -0.2220
20051TIP3    H181644   0.301   4.189  15.404  0.6725  0.5995 -0.7490
20051TIP3    H281645   0.376   4.059  15.419 -0.4289  0.0372 -0.0368
20052TIP3   OH281646   4.240   1.316   6.247 -0.6910  0.2832 -0.0740
20052TIP3    H181647   4.238   1.394   6.301 -2.3200 -0.8134  1.5086
20052TIP3    H281648   4.276   1.345   6.163  1.7160  2.0325  1.5382
20053TIP3   OH281649   4.825   2.174   3.293 -0.1056 -0.7123  0.6328
20053TIP3    H181650   4.737   2.139   3.303  0.0746 -1.7285 -1.2994
20053TIP3    H281651   4.836   2.187   3.199  0.4319  3.0136  1.1207
20054TIP3   OH281652   5.329   3.389  12.729  0.3296  0.3461  0.0292
20054TIP3    H181653   5.352   3.469  12.681  2.5390 -0.6737 -0.7175
20054TIP3    H281654   5.299   3.419  12.815 -0.3937  2.0320 -0.7994
20055TIP3   OH281655   2.821   3.473   5.352 -1.0887  0.1483  0.3477
20055TIP3    H181656   2.749   3.464   5.413 -1.3605 -1.7770 -0.2277
20055TIP3    H281657   2.817   3.394   5.298  0.0989  1.0670 -1.1234
20056TIP3   OH281658   5.787   0.758   3.183  0.1478  0.1466 -0.0235
20056TIP3    H181659   5.828   0.672   3.174  0.1983  0.1111  0.5174
20056TIP3    H281660   5.694   0.739   3.192  0.1884  0.1305  0.3729
20057TIP3   OH281661   1.192   2.627   6.418 -0.8427 -0.1175  0.0754
20057TIP3    H181662   1.218   2.551   6.366 -1.5373 -1.2082  1.2930
20057TIP3    H281663   1.266   2.642   6.477 -0.9318 -0.1952  0.2081
20058TIP3   OH281664   5.105   4.525  11.897 -0.7304 -0.1263  0.0715
20058TIP3    H181665   5.172   4.498  11.835 -2.4753 -1.2760 -1.3741
20058TIP3    H281666   5.148   4.519  11.983  1.0058 -0.8119 -0.8223
20059TIP3   OH281667   3.234   0.923  16.818 -0.7272 -0.6119 -0.2030
20059TIP3    H181668   3.278   0.881  16.744 -0.1451 -1.3927  0.5803
20059TIP3    H281669   3.278   0.889  16.895 -0.5857  1.0541  0.4841
20060TIP3   OH281670   1.653   2.392   3.109 -0.3169 -0.2895 -0.4135
20060TIP3    H181671   1.564   2.357   3.118 -0.8750  1.2204  0.0745
20060TIP3    H281672   1.664   2.404   3.014 -1.1502  0.7812 -0.3880
20061TIP3   OH281673   4.089   4.668   3.149  0.5867 -0.4316  0.1378
20061TIP3    H181674   4.133   4.604   3.093 -0.3638 -0.1159 -0.9704
20061TIP3    H281675   4.111   4.640   3.238  0.5350 -2.0514 -0.3407
20062TIP3   OH281676   4.629   6.187   5.221 -0.2019 -0.6830  0.3279
20062TIP3    H181677   4.560   6.123   5.204 -1.2010  0.6636 -0.7439
20062TIP3    H281678   4.674   6.196   5.136 -1.5489  1.7582 -0.1656
20063TIP3   OH281679   6.155   6.012  16.389  0.0869 -0.2912 -0.4801
20063TIP3    H181680   6.130   6.084  16.447 -1.1584 -0.1372 -1.1811
20063TIP3    H281681   6.196   6.056  16.314 -0.0308 -0.3552 -0.5825
20064TIP3   OH281682   0.152   6.819   0.585 -0.3280 -0.4995  0.4468
20064TIP3    H181683   0.162   6.892   0.647 -0.0149 -2.0227  2.2478
20064TIP3    H281684   0.222   6.831   0.522  0.9679 -0.3206  1.8807
20065TIP3   OH281685   0.854   0.641   5.237  0.0836 -0.5320 -0.2525
20065TIP3    H181686   0.873   0.617   5.327 -0.2386  0.6200  0.1397
20065TIP3    H281687   0.935   0.680   5.204  0.3807 -1.4662 -0.6556
20066TIP3   OH281688   3.458   2.110  14.330  0.4431 -0.1248  0.3533
20066TIP3    H181689   3.447   2.028  14.283  0.2190 -0.6817  1.3524
20066TIP3    H281690   3.547   2.137  14.312 -0.2590  0.6960 -1.9830
20067TIP3   OH281691   6.072   0.161  14.841 -0.0349  0.8554  0.1142
20067TIP3    H181692   5.994   0.149  14.895 -0.1975 -0.7759 -0.4536
20067TIP3    H281693   6.135   0.098  14.876 -0.2480 -0.4510 -1.7739
20068TIP3   OH281694   0.046   3.702  11.767  0.1578  0.0727 -0.1365
20068TIP3    H181695   0.074   3.611  11.776 -0.5866 -0.1605 -0.1411
20068TIP3    H281696   0.061   3.740  11.854 -0.7805 -0.4103  0.2427
20069TIP3   OH281697   6.029   4.133   0.238  0.4879 -0.1913 -0.0481
20069TIP3    H181698   6.036   4.211   0.183 -0.4075  0.2459  0.4363
20069TIP3    H281699   6.113   4.127   0.283 -0.1542  1.7228  1.4913
20070TIP3   OH281700   2.501   2.493  12.994  0.2752  0.0372 -0.3791
20070TIP3    H181701   2.489   2.444  13.075  0.4246 -3.2648 -2.2741
20070TIP3    H281702   2.425   2.550  12.988 -1.0238 -1.5319  0.8450
20071TIP3   OH281703   5.621   1.754   3.145 -0.0030 -0.7938 -0.2053
20071TIP3    H181704   5.558   1.745   3.073 -3.0572  0.7828  2.1508
20071TIP3    H281705   5.641   1.664   3.170 -1.7782 -1.3577 -0.6645
20072TIP3   OH281706   1.631   1.638  11.387  0.4123  0.1492  0.0809
20072TIP3    H181707   1.601   1.667  11.302 -1.0812 -0.6992  0.3067
20072TIP3    H281708   1.576   1.684  11.450  0.2247 -0.6652  0.5254
20073TIP3   OH281709   0.644   3.156  14.226 -0.1073 -0.2413 -0.1248
20073TIP3    H181710   0.687   3.171  14.142 -0.6202 -0.3181 -0.4001
20073TIP3    H281711   0.573   3.095  14.206 -0.7106  0.3401  0.2206
20074TIP3   OH281712   5.263   4.771   2.646 -0.3069 -0.0584 -0.3313
20074TIP3    H181713   5.213   4.719   2.709  0.0685  0.5223  0.4583
20074TIP3    H281714   5.306   4.838   2.700  1.0194 -0.3256 -1.0546
20075TIP3   OH281715   5.612   1.822   4.156  0.2083  0.5780  0.0835
20075TIP3    H181716   5.529   1.838   4.112  0.4973 -0.5766 -0.9279
20075TIP3    H281717   5.628   1.900   4.209 -0.7424  1.4725 -0.9505
20076TIP3   OH281718   2.280   3.545  12.244 -0.4174 -0.4010 -0.4487
20076TIP3    H181719   2.200   3.531  12.193 -0.5010  0.7587 -0.6587
20076TIP3    H281720   2.284   3.471  12.303 -0.4563 -1.6450 -1.9809
20077TIP3   OH281721   3.688   1.583   6.595 -0.5212  0.0151 -0.1951
20077TIP3    H181722   3.733   1.602   6.677  1.6953 -0.0149 -1.3651
20077TIP3    H281723   3.715   1.653   6.536 -0.4042 -1.1095 -1.5121
20078TIP3   OH281724   4.942   2.332  13.894  0.7059  0.2244  0.1038
20078TIP3    H181725   4.856   2.351  13.857  0.6092  0.3166  0.3809
20078TIP3    H281726   4.987   2.282  13.825  0.6940  0.8066 -0.3283
20079TIP3   OH281727   5.159   1.544  14.589 -0.2816  0.7019  0.5941
20079TIP3    H181728   5.211   1.611  14.632 -0.4880 -0.0343  2.0085
20079TIP3    H281729   5.155   1.472  14.651 -2.2016  0.3756  0.1460
20080TIP3   OH281730   0.243   1.740  14.763  0.0846  0.3132  0.1716
20080TIP3    H181731   0.171   1.677  14.765 -0.5876  1.0945  1.9516
20080TIP3    H281732   0.304   1.708  14.829  0.0376  1.1626  0.6349
20081TIP3   OH281733   4.941   2.946   3.049  0.3503  0.3766 -0.4828
20081TIP3    H181734   4.877   3.016   3.033  1.2210  0.8960 -1.7161
20081TIP3    H281735   4.929   2.924   3.142 -2.1029 -0.0238 -0.8624
20082TIP3   OH281736   2.818   2.359   1.090  0.2976  0.0049  0.4395
20082TIP3    H181737   2.848   2.373   1.001  0.0652 -0.9975  0.1969
20082TIP3    H281738   2.862   2.426   1.142 -0.5444  1.4011 -0.6164
20083TIP3   OH281739   5.071   4.730   4.237 -0.0633  0.1334  1.0605
20083TIP3    H181740   5.149   4.737   4.292  1.3074  1.2636 -0.9856
20083TIP3    H281741   5.078   4.644   4.196  0.5211  0.5637  0.2595
20084TIP3   OH281742   5.817   3.825  11.620 -0.3223 -0.6767  0.5024
20084TIP3    H181743   5.860   3.902  11.656 -0.3652 -0.8893  1.0199
20084TIP3    H281744   5.887   3.777  11.576 -0.6093  0.4755 -1.2482
20085TIP3   OH281745   4.528   5.697  12.958  0.2310  0.0066 -0.8325
20085TIP3    H181746   4.541   5.707  12.863  0.4621 -1.7649 -1.0157
20085TIP3    H281747   4.615   5.673  12.991 -0.0153 -0.1394 -0.2968
20086TIP3   OH281748   0.788   5.800  10.617  0.2476  0.3201 -0.5483
20086TIP3    H181749   0.751   5.809  10.529  1.0262  1.0297 -0.8015
20086TIP3    H281750   0.712   5.801  10.675 -0.3498 -1.1192 -1.2725
20087TIP3   OH281751   2.639   3.087  17.042  0.2024 -0.3134  0.0344
20087TIP3    H181752   2.557   3.036  17.043 -0.1802  0.2836 -0.7097
20087TIP3    H281753   2.707   3.021  17.031 -0.1121 -0.8912  1.4366
20088TIP3   OH281754   5.948   1.968  16.243 -0.4918  0.0731  0.0170
20088TIP3    H181755   5.966   2.062  16.247  1.0116 -0.3114  2.7996
20088TIP3    H281756   6.013   1.934  16.182  1.5588  0.2557  2.0751
20089TIP3   OH281757   2.504   5.774  12.588  0.4494 -0.3408 -0.1742
20089TIP3    H181758   2.540   5.812  12.667 -0.6256  1.5153 -0.5455
20089TIP3    H281759   2.409   5.787  12.596 -0.1140 -3.9765  0.2049
20090TIP3   OH281760   5.783   3.073   1.733 -0.3956  0.6379  0.5903
20090TIP3    H181761   5.861   3.114   1.695 -0.7206 -0.8007 -1.7026
20090TIP3    H281762   5.714   3.139   1.721 -0.5754  0.0895 -1.7301
20091TIP3   OH281763   1.323   0.501   4.024  0.0614 -0.0145  0.4013
20091TIP3    H181764   1.265   0.548   3.964 -1.0322  0.0308  1.4755
20091TIP3    H281765   1.390   0.566   4.047  0.0757  0.1903 -0.2128
20092TIP3   OH281766   1.327   5.797   5.159  0.6170 -0.2090  0.4305
20092TIP3    H181767   1.290   5.752   5.235 -1.0787 -0.9691 -0.8196
20092TIP3    H281768   1.299   5.745   5.084  2.0091  0.7065 -0.7620
20093TIP3   OH281769   4.338   5.096  16.279  0.3736 -0.3433  0.0113
20093TIP3    H181770   4.393   5.175  16.277  0.9960 -0.7997 -1.3593
20093TIP3    H281771   4.339   5.068  16.370  1.1480  0.5414  0.2835
20094TIP3   OH281772   1.034   0.367  12.979 -0.1940  0.1971 -0.2856
20094TIP3    H181773   1.030   0.312  12.901 -0.0735 -0.1838 -0.0234
20094TIP3    H281774   1.012   0.455  12.947 -0.6557 -0.0511 -0.6563
20095TIP3   OH281775   4.082   3.583  14.938 -0.9900  0.4033 -0.3222
20095TIP3    H181776   4.133   3.628  15.006 -0.5116  0.8371 -0.9682
20095TIP3    H281777   4.147   3.544  14.881 -1.3927  0.2156 -0.6527
20096TIP3   OH281778   1.072   2.844   2.339  0.2846  0.0492 -0.2906
20096TIP3    H181779   1.074   2.923   2.286  0.1290 -1.0499 -1.9598
20096TIP3    H281780   1.153   2.798   2.317  0.6513  0.0033  1.1011
20097TIP3   OH281781   5.724   6.438   3.277 -0.3944 -0.7580  0.1342
20097TIP3    H181782   5.675   6.361   3.306  0.1467 -1.3424 -0.4784
20097TIP3    H281783   5.665   6.512   3.295 -2.4500 -1.6337 -2.6055
20098TIP3   OH281784   0.292   1.644  16.672  0.2381 -0.2322  0.2534
20098TIP3    H181785   0.238   1.632  16.593 -1.9525 -0.6057  1.7818
20098TIP3    H281786   0.367   1.587  16.658 -0.4419 -0.7779 -1.2801
20099TIP3   OH281787   6.810   0.921   3.080  0.0394 -0.2482  0.2676
20099TIP3    H181788   6.821   0.846   3.021  0.8614 -1.2474  1.6376
20099TIP3    H281789   6.897   0.960   3.085  0.2327 -0.7916  1.5842
20100TIP3   OH281790   0.959   1.211   1.401 -0.2192 -0.0576  0.2180
20100TIP3    H181791   1.025   1.208   1.471  0.7034 -1.2212 -0.6994
20100TIP3    H281792   0.896   1.144   1.425 -2.4678  2.6780  2.4136
20101TIP3   OH281793   5.830   6.567  17.203  0.2763 -0.4926 -0.0223
20101TIP3    H181794   5.887   6.608  17.138  1.0452 -0.0147  0.9472
20101TIP3    H281795   5.858   6.603  17.287  0.3463 -2.2967  0.7557
20102TIP3   OH281796   1.201   5.561   5.663  0.3506 -0.0366  0.1331
20102TIP3    H181797   1.248   5.621   5.606 -0.3932 -0.2269 -0.6853
20102TIP3    H281798   1.158   5.499   5.604 -2.1985  1.0634  0.7640
20103TIP3   OH281799   5.423   2.431  10.709 -0.0664 -0.1652 -0.5005
20103TIP3    H181800   5.410   2.525  10.698  0.1541 -0.0024  0.5738
20103TIP3    H281801   5.340   2.399  10.745  0.4132 -0.1124  0.6675
20104TIP3   OH281802   1.837   3.571   0.734 -0.1458 -0.4939  0.2014
20104TIP3    H181803   1.913   3.513   0.731  2.6417  3.0502 -0.5638
20104TIP3    H281804   1.849   3.623   0.813 -2.0771 -0.2703  0.3694
20105TIP3   OH281805   0.388   0.780   4.584  0.0916 -0.2991  0.8154
20105TIP3    H181806   0.470   0.826   4.571 -0.3098  0.3350  0.5222
20105TIP3    H281807   0.351   0.771   4.496 -0.5861  0.2147  1.0479
20106TIP3   OH281808   3.536   1.386  14.960  0.1123 -0.0433  0.2333
20106TIP3    H181809   3.578   1.300  14.955 -1.1377 -0.6988  0.6676
20106TIP3    H281810   3.609   1.448  14.969  0.9433 -1.2116  1.7405
20107TIP3   OH281811   0.208   4.205  12.334  1.0264 -0.3221 -0.3356
20107TIP3    H181812   0.164   4.290  12.331  1.2973 -0.1584  0.3286
20107TIP3    H281813   0.289   4.218  12.284  0.1631 -0.7310 -1.8957
20108TIP3   OH281814   3.202   0.190   5.190 -0.2459  0.0088 -0.1258
20108TIP3    H181815   3.206   0.116   5.252 -0.0442  0.5516  0.5136
20108TIP3    H281816   3.293   0.212   5.173 -0.3059  0.6279  0.3174
20109TIP3   OH281817   1.940   6.678   2.628 -0.3389  0.3498  0.2946
20109TIP3    H181818   2.002   6.750   2.616 -0.6244  0.5218 -0.1448
20109TIP3    H281819   1.953   6.622   2.551 -1.4195  0.9022 -0.3097
20110TIP3   OH281820   6.738   4.282   5.946 -0.3277  0.2477 -0.6287
20110TIP3    H181821   6.688   4.360   5.969 -2.1855 -0.6948 -1.4209
20110TIP3    H281822   6.768   4.247   6.031 -2.0292  0.1595 -0.0454
20111TIP3   OH281823   3.924   1.766  16.968 -0.8132 -0.3144  0.0643
20111TIP3    H181824   3.886   1.678  16.964  0.1017 -0.6879 -0.8024
20111TIP3    H281825   3.942   1.789  16.876  2.9172 -1.0162  0.5335
20112TIP3   OH281826   3.476   3.058  16.724 -0.5207  0.2186  0.0251
20112TIP3    H181827   3.468   3.074  16.630  2.1031 -1.8781 -0.6428
20112TIP3    H281828   3.519   3.137  16.758  3.0545 -0.9316 -1.4714
20113TIP3   OH281829   0.359   6.505  14.890 -0.0596 -0.1681  0.1879
20113TIP3    H181830   0.356   6.549  14.805  0.1873 -1.0771 -0.3063
20113TIP3    H281831   0.452   6.485  14.903  0.1027  1.2090  1.3417
20114TIP3   OH281832   6.099   3.462   6.124 -0.6281  0.1572 -0.2425
20114TIP3    H181833   6.080   3.479   6.217  0.8249 -0.3385  0.1668
20114TIP3    H281834   6.092   3.547   6.082  1.5792  0.9195  0.8695
20115TIP3   OH281835   0.253   0.560  10.866  0.4457  0.3546  0.2326
20115TIP3    H181836   0.267   0.465  10.858  1.1338  0.4872 -0.2471
20115TIP3    H281837   0.185   0.580  10.801 -1.3716 -0.1567  1.9386
20116TIP3   OH281838   4.133   6.003  11.806 -0.4794  0.2446 -0.6629
20116TIP3    H181839   4.137   6.036  11.896 -0.0361  0.7979 -0.8861
20116TIP3    H281840   4.120   6.081  11.753  3.1384  0.3988 -1.4365
20117TIP3   OH281841   3.259   5.126  11.337 -0.0928 -0.2654 -0.4745
20117TIP3    H181842   3.220   5.039  11.330  1.2330 -0.9771  0.8483
20117TIP3    H281843   3.314   5.134  11.258  0.4766 -0.9954 -0.1594
20118TIP3   OH281844   1.792   4.543   1.499 -0.9415 -0.4264 -0.3650
20118TIP3    H181845   1.832   4.459   1.474 -2.4641 -1.6887  1.3336
20118TIP3    H281846   1.767   4.532   1.591 -0.3548  2.2179  0.1642
20119TIP3   OH281847   6.725   2.670   5.628  0.3287  0.6944  0.1945
20119TIP3    H181848   6.796   2.732   5.644  1.6396 -1.1432  1.8203
20119TIP3    H281849   6.708   2.631   5.714 -0.9272 -0.6917 -0.6595
20120TIP3   OH281850   5.910   2.607  15.312 -0.0240  0.2607 -0.3637
20120TIP3    H181851   5.863   2.526  15.291 -0.4531  0.4689 -0.2186
20120TIP3    H281852   5.881   2.669  15.245 -2.5077  1.3553  1.6577
20121TIP3   OH281853   5.659   4.952   1.199  1.6163  0.0549  0.2941
20121TIP3    H181854   5.672   4.860   1.223 -1.0838 -0.0009  1.7606
20121TIP3    H281855   5.615   4.948   1.115  0.7054 -0.0298  0.7690
20122TIP3   OH281856   3.187   2.432   1.194  0.8580 -0.3183  0.1346
20122TIP3    H181857   3.103   2.456   1.234  1.0935  0.2000  0.3267
20122TIP3    H281858   3.173   2.343   1.162 -0.2889  0.3766 -1.3426
20123TIP3   OH281859   4.926   4.107  14.114  0.3698  0.0443 -0.2006
20123TIP3    H181860   4.830   4.100  14.116  0.4210 -0.8513 -0.4428
20123TIP3    H281861   4.947   4.117  14.021  0.4310  1.6885 -0.0225
20124TIP3   OH281862   1.796   5.581  11.108  0.0854  0.1418 -0.4695
20124TIP3    H181863   1.777   5.579  11.202 -1.2347  0.9960 -0.7096
20124TIP3    H281864   1.751   5.504  11.073  1.0447 -0.4927 -0.3278
20125TIP3   OH281865   2.593   1.803   2.690  0.0324  0.0404 -0.8090
20125TIP3    H181866   2.603   1.888   2.733  0.0927 -0.6112  0.4864
20125TIP3    H281867   2.586   1.741   2.762 -1.2095 -0.9223 -1.7490
20126TIP3   OH281868   1.221   2.784  15.688 -0.9885  0.4749 -0.1832
20126TIP3    H181869   1.147   2.757  15.634 -1.0870  0.0566  0.1627
20126TIP3    H281870   1.253   2.864  15.646 -2.6090  1.5504  0.5599
20127TIP3   OH281871   1.894   0.010   3.841  0.3086  0.2750  0.2192
20127TIP3    H181872   1.879   0.105   3.845 -0.1638  0.2586 -1.0140
20127TIP3    H281873   1.900  -0.009   3.747 -0.1490 -1.0010  0.4500
20128TIP3   OH281874   6.516   1.121   5.678  0.0445  0.7297 -0.1436
20128TIP3    H181875   6.578   1.136   5.607  1.1631 -2.2983  0.1433
20128TIP3    H281876   6.502   1.027   5.679 -0.5193  0.7763  3.1830
20129TIP3   OH281877   5.612   4.473  15.530  0.3521  0.6087  0.1414
20129TIP3    H181878   5.561   4.392  15.536 -0.0195  0.7429 -1.0966
20129TIP3    H281879   5.609   4.496  15.437  2.6319  0.6448  0.0577
20130TIP3   OH281880   5.170   3.450   5.505 -0.2429  0.2862 -0.4828
20130TIP3    H181881   5.248   3.470   5.453  0.5495  0.6281  0.8022
20130TIP3    H281882   5.118   3.531   5.502 -0.6756 -0.0232 -1.5397
20131TIP3   OH281883   1.129   1.197  13.526  0.3511  0.2462  0.1270
20131TIP3    H181884   1.128   1.289  13.501 -0.9901  0.2607  0.1973
20131TIP3    H281885   1.047   1.162  13.492  1.9815 -1.5465 -2.1560
20132TIP3   OH281886   0.518   6.802   0.309  0.3134 -0.0506 -0.5996
20132TIP3    H181887   0.540   6.841   0.225  1.5288 -1.2391 -0.8555
20132TIP3    H281888   0.602   6.789   0.352 -0.2849  0.3711  0.7248
20133TIP3   OH281889   5.847   4.337   1.088  0.4489 -0.3689  0.4864
20133TIP3    H181890   5.943   4.331   1.081  0.6270  2.2688  0.2378
20133TIP3    H281891   5.817   4.345   0.997 -0.2212 -3.3363  0.3958
20134TIP3   OH281892   2.625   2.874   0.795  0.4415  0.2282  0.4822
20134TIP3    H181893   2.697   2.922   0.755  0.3619 -0.7233 -0.8540
20134TIP3    H281894   2.546   2.923   0.771  0.1676 -1.5926 -2.5777
20135TIP3   OH281895   0.497   1.972  14.382  0.2707 -0.1546 -0.1970
20135TIP3    H181896   0.451   1.950  14.463  1.6075 -0.5744  0.4473
20135TIP3    H281897   0.541   2.055  14.401  0.6681 -0.3054 -0.4664
20136TIP3   OH281898   2.611   3.995  10.487  0.2271 -0.4961 -0.1847
20136TIP3    H181899   2.622   4.082  10.449 -0.3767  0.1929  1.1592
20136TIP3    H281900   2.523   3.967  10.461  0.4866 -0.7786 -0.7598
20137TIP3   OH281901   2.492   4.438  15.804  0.3988 -0.0810 -0.0994
20137TIP3    H181902   2.584   4.416  15.819  0.0249 -1.0457  0.7785
20137TIP3    H281903   2.462   4.474  15.887 -0.5886 -1.7246  0.2755
20138TIP3   OH281904   0.313   3.461  17.156  0.8164 -0.8198 -0.7714
20138TIP3    H181905   0.266   3.404  17.218  0.6860 -1.6640 -1.6267
20138TIP3    H281906   0.340   3.536  17.208  1.5806 -1.9854  0.5622
20139TIP3   OH281907   5.490   5.481   4.484 -0.1468  0.1393  0.0660
20139TIP3    H181908   5.430   5.481   4.409 -0.3864  1.4338  0.2362
20139TIP3    H281909   5.562   5.425   4.457 -0.6909 -0.1760 -0.7629
20140TIP3   OH281910   5.064   1.878   3.549 -0.2271 -0.8677 -0.4013
20140TIP3    H181911   5.071   1.927   3.467 -1.7152 -2.7458 -1.6878
20140TIP3    H281912   5.140   1.821   3.550 -0.4035 -1.1048 -0.6442
20141TIP3   OH281913   1.641   0.494  16.786 -0.3984  0.4034  0.0244
20141TIP3    H181914   1.673   0.491  16.696  0.2023  1.2192  0.2123
20141TIP3    H281915   1.562   0.548  16.782 -1.7630 -1.5493 -0.4195
20142TIP3   OH281916   1.129   1.076  12.556 -0.0821 -0.0381 -0.1790
20142TIP3    H181917   1.048   1.124  12.575  0.1525  0.3674 -0.2005
20142TIP3    H281918   1.190   1.142  12.526  0.3222 -0.3135  0.0259
20143TIP3   OH281919   4.013   4.953  11.723  0.3557  0.9239 -0.2616
20143TIP3    H181920   4.045   5.005  11.796  0.6872  2.4742 -1.4857
20143TIP3    H281921   3.921   4.936  11.745  0.1914  2.1936  0.0605
20144TIP3   OH281922   3.607   2.813   0.816  0.0913 -0.1878 -0.0699
20144TIP3    H181923   3.558   2.875   0.870  0.3811 -1.2034  1.3835
20144TIP3    H281924   3.575   2.727   0.843 -0.5156 -0.6797 -2.2755
20145TIP3   OH281925   2.118   1.628  13.207 -0.0741 -0.1983 -1.0214
20145TIP3    H181926   2.054   1.673  13.261 -1.0686 -3.6574  0.8449
20145TIP3    H281927   2.066   1.567  13.155  1.4556 -1.2614 -1.3288
20146TIP3   OH281928   5.599   5.718   2.780 -0.0355  0.3121  0.0913
20146TIP3    H181929   5.617   5.714   2.874 -2.2743  0.1195  0.5254
20146TIP3    H281930   5.558   5.634   2.760  1.5377 -0.1305 -1.3096
20147TIP3   OH281931   2.829   3.208  13.516 -0.2366 -0.1239  0.3322
20147TIP3    H181932   2.899   3.151  13.548  1.1915  1.7485  0.6496
20147TIP3    H281933   2.785   3.238  13.595  0.1095  0.5450  0.2786
20148TIP3   OH281934   4.130   2.654  11.342  0.4219 -0.1851  0.9892
20148TIP3    H181935   4.121   2.589  11.272  0.5541 -1.1776  1.8806
20148TIP3    H281936   4.200   2.712  11.313  1.3322 -1.3414  0.8795
20149TIP3   OH281937   2.490   3.046  16.769  0.0616 -0.0437  0.0914
20149TIP3    H181938   2.500   2.999  16.852 -0.1398 -0.2535 -0.0027
20149TIP3    H281939   2.557   3.009  16.712  0.5226  0.4367  0.3119
20150TIP3   OH281940   4.422   3.306  11.932  0.1043  0.4174 -0.3754
20150TIP3    H181941   4.338   3.264  11.913  0.1934  0.1428 -0.1693
20150TIP3    H281942   4.400   3.397  11.951  0.1123  0.9489 -2.7524
20151TIP3   OH281943   2.760   2.766   0.553 -0.3648 -0.4179  0.2141
20151TIP3    H181944   2.670   2.790   0.572  0.2071  0.9236  1.2982
20151TIP3    H281945   2.753   2.689   0.496 -2.1777 -0.2514  0.1918
20152TIP3   OH281946   0.700   4.697  16.823 -0.0705 -0.7709  0.1245
20152TIP3    H181947   0.688   4.637  16.750  1.0755  0.4933 -1.1159
20152TIP3    H281948   0.616   4.742  16.831  0.1273 -0.1843 -1.0793
20153TIP3   OH281949   3.100   5.163   3.780  0.1375  0.2089 -0.4191
20153TIP3    H181950   3.081   5.238   3.836  0.1312 -0.1657  0.0881
20153TIP3    H281951   3.023   5.156   3.723 -0.2010  0.1407  0.0366
20154TIP3   OH281952   4.936   3.183  11.494  0.1653  0.2845  0.7376
20154TIP3    H181953   4.876   3.181  11.420  1.7872 -1.0424 -0.5679
20154TIP3    H281954   4.890   3.135  11.563 -0.2432 -0.8327 -0.2887
20155TIP3   OH281955   3.111   6.369   6.674  0.1614 -0.4693 -0.1469
20155TIP3    H181956   3.024   6.405   6.658 -0.0886 -0.6979  0.6734
20155TIP3    H281957   3.104   6.277   6.646  0.3676 -0.2799 -0.8244
20156TIP3   OH281958   1.545   0.621   0.600  0.1645  0.2934 -0.9094
20156TIP3    H181959   1.495   0.540   0.587 -0.4117  0.7349 -1.4619
20156TIP3    H281960   1.489   0.690   0.566  0.4581  0.9875 -0.0097
20157TIP3   OH281961   1.524   2.461   0.284  0.0772  0.2376  0.0270
20157TIP3    H181962   1.531   2.541   0.233  0.5641 -0.3507 -0.8281
20157TIP3    H281963   1.609   2.451   0.326 -0.9487  1.8091  2.6125
20158TIP3   OH281964   0.122   2.323   4.866 -0.1950  0.2613 -0.1149
20158TIP3    H181965   0.090   2.315   4.776 -1.6115  1.2351  0.2767
20158TIP3    H281966   0.217   2.322   4.858 -0.3039  0.0594 -1.5905
20159TIP3   OH281967   3.480   5.002  14.729 -0.0821 -0.5634 -0.3081
20159TIP3    H181968   3.403   5.014  14.672  0.1040 -1.7137 -0.8223
20159TIP3    H281969   3.445   5.010  14.818 -0.3798  1.2389 -0.5701
20160TIP3   OH281970   0.266   3.076  13.054 -0.1330  0.2118  0.2264
20160TIP3    H181971   0.340   3.124  13.092 -1.3000  2.6113 -0.4075
20160TIP3    H281972   0.282   3.079  12.960 -1.0694  0.8633  0.0751
20161TIP3   OH281973   1.278   1.933  13.553 -0.0349 -0.0503  0.9300
20161TIP3    H181974   1.372   1.930  13.536  0.2069  1.4962  1.9029
20161TIP3    H281975   1.257   1.846  13.587  0.6550 -1.0445 -1.0782
20162TIP3   OH281976   0.795   5.920   3.905 -0.4751 -0.3174  0.0499
20162TIP3    H181977   0.752   5.933   3.989  0.2703 -2.1874  0.7304
20162TIP3    H281978   0.887   5.942   3.921 -0.8803  2.5332 -1.1176
20163TIP3   OH281979   4.572   0.026  14.855 -0.1454 -0.0931 -0.3264
20163TIP3    H181980   4.518  -0.023  14.917 -0.3710  0.0085 -0.4413
20163TIP3    H281981   4.661   0.021  14.890 -0.1967 -0.4264 -0.2392
20164TIP3   OH281982   1.377   1.003  14.608 -0.5806 -0.1544  0.4148
20164TIP3    H181983   1.383   0.925  14.663  0.9231  0.5540  1.2937
20164TIP3    H281984   1.436   0.987  14.535 -0.9787 -0.2171  0.1015
20165TIP3   OH281985   0.885   2.471  13.263  0.0730 -0.8048 -0.1397
20165TIP3    H181986   0.842   2.403  13.211  1.1912 -1.0350 -0.7797
20165TIP3    H281987   0.979   2.454  13.252  0.3357 -0.0359  0.8711
20166TIP3   OH281988   2.632   3.734   3.637  0.1930 -0.6769 -0.4573
20166TIP3    H181989   2.673   3.675   3.574 -1.5110 -2.3191 -0.1079
20166TIP3    H281990   2.590   3.675   3.700  0.5993  0.9280  1.3748
20167TIP3   OH281991   0.719   3.639  13.324  0.0753  0.2413  0.3012
20167TIP3    H181992   0.674   3.636  13.408 -0.0901 -0.9193  0.1707
20167TIP3    H281993   0.650   3.656  13.260  0.3568  2.3113  0.5090
20168TIP3   OH281994   3.740   2.515  17.154  0.6020  0.0620 -0.7189
20168TIP3    H181995   3.655   2.558  17.146  0.3443 -0.4129 -0.5873
20168TIP3    H281996   3.797   2.564  17.096 -0.5335 -1.5270 -3.2775
20169TIP3   OH281997   0.589   6.370   2.567 -0.4245 -0.1577 -0.2304
20169TIP3    H181998   0.604   6.275   2.561 -0.2295 -0.1036 -0.6838
20169TIP3    H281999   0.663   6.403   2.618 -0.1657 -0.1796 -0.5809
20170TIP3   OH282000   3.852   6.779   4.532  0.0077  0.1519  0.2559
20170TIP3    H182001   3.873   6.797   4.624 -1.9228  0.5160  0.6362
20170TIP3    H282002   3.811   6.693   4.534  0.5623 -0.1303 -0.3631
20171TIP3   OH282003   2.988   5.818  16.526 -0.1244 -0.4022  0.2620
20171TIP3    H182004   2.928   5.847  16.595 -1.3593 -0.4836 -0.7607
20171TIP3    H282005   2.979   5.883  16.457 -0.5439 -1.5043 -0.7349
20172TIP3   OH282006   6.118   3.398  13.360 -0.7022  0.0989 -0.2405
20172TIP3    H182007   6.084   3.472  13.410 -1.5710 -0.4077 -0.0586
20172TIP3    H282008   6.150   3.337  13.427 -0.3629  0.1395 -0.3698
20173TIP3   OH282009   4.532   3.474  13.391  0.6681 -0.1859  0.1834
20173TIP3    H182010   4.455   3.510  13.348  0.9128  1.7127  1.2760
20173TIP3    H282011   4.600   3.472  13.323  1.3128  3.6077  0.6310
20174TIP3   OH282012   1.966   1.461   2.392  0.4059 -0.3127  0.3081
20174TIP3    H182013   1.992   1.493   2.306 -0.5601  2.8403  1.1117
20174TIP3    H282014   1.876   1.430   2.380 -0.4718  2.0299  0.5659
20175TIP3   OH282015   0.427   4.323   1.394 -0.0569  0.4167 -0.1399
20175TIP3    H182016   0.463   4.391   1.451  2.0338 -1.2125  0.5769
20175TIP3    H282017   0.454   4.348   1.306 -1.5316  1.8559 -0.2053
20176TIP3   OH282018   3.625   0.005  12.254 -0.4502 -0.2704 -0.4540
20176TIP3    H182019   3.563  -0.002  12.326 -0.2031 -0.4722 -0.2599
20176TIP3    H282020   3.649   0.098  12.252  0.0818 -0.3932  0.1735
20177TIP3   OH282021   0.352   5.613  13.214 -0.7902 -0.2806 -0.1467
20177TIP3    H182022   0.400   5.535  13.242  0.8198  0.8587  0.3803
20177TIP3    H282023   0.376   5.680  13.278 -1.0901  0.9999 -1.3533
20178TIP3   OH282024   2.831   4.305  16.873 -0.5193  0.3600  0.1773
20178TIP3    H182025   2.919   4.287  16.841 -1.3251 -2.0572 -0.7998
20178TIP3    H282026   2.814   4.396  16.846  1.4711  0.6783 -0.0555
20179TIP3   OH282027   5.451   3.141   1.402  0.2373 -0.1679  0.7929
20179TIP3    H182028   5.536   3.114   1.367 -0.5736 -1.1133 -0.4446
20179TIP3    H282029   5.438   3.085   1.478  0.8019  0.1247  1.1145
20180TIP3   OH282030   4.475   6.799   6.033 -0.7324  0.6434 -0.7420
20180TIP3    H182031   4.446   6.781   5.944 -3.3496  0.2246  0.1546
20180TIP3    H282032   4.431   6.733   6.087  1.3824  0.4258  0.7821
20181TIP3   OH282033   2.547   2.441  15.798  0.0544  0.1920 -0.0956
20181TIP3    H182034   2.636   2.450  15.833 -0.4007  0.7611  0.9360
20181TIP3    H282035   2.556   2.459  15.705  1.5053 -2.5288 -0.5352
20182TIP3   OH282036   1.648   1.543  13.552 -0.8014 -0.4343  0.5394
20182TIP3    H182037   1.587   1.527  13.480  0.6151 -1.4293 -0.4956
20182TIP3    H282038   1.658   1.638  13.555 -2.1931 -0.2797  0.5606
20183TIP3   OH282039   3.825   3.326  10.515 -0.0730 -0.2502  0.2322
20183TIP3    H182040   3.833   3.235  10.544 -0.8958 -0.0536  1.1237
20183TIP3    H282041   3.779   3.321  10.432 -1.7741 -0.5336  1.1799
20184TIP3   OH282042   0.530   3.519  12.610 -0.1640 -0.1676 -0.1253
20184TIP3    H182043   0.614   3.473  12.617 -1.2230 -1.7704  3.3313
20184TIP3    H282044   0.504   3.507  12.519  2.5568 -1.0858 -0.8526
20185TIP3   OH282045   6.539   2.090  13.881  0.0063 -0.1888 -0.3937
20185TIP3    H182046   6.483   2.055  13.951 -1.7192  2.0551 -0.6025
20185TIP3    H282047   6.628   2.078  13.915 -0.7263 -0.6158  1.4838
20186TIP3   OH282048   2.730   5.318  16.193  0.1275  0.2604  0.5793
20186TIP3    H182049   2.694   5.351  16.275 -0.2572 -2.3966  1.5469
20186TIP3    H282050   2.674   5.243  16.171 -0.4246  1.5356 -2.6802
20187TIP3   OH282051   3.217   5.294  13.579  0.2254  0.0643 -0.3457
20187TIP3    H182052   3.186   5.384  13.575  1.8030  0.5521 -2.2717
20187TIP3    H282053   3.194   5.256  13.495 -1.4702 -1.7201  0.8828
20188TIP3   OH282054   6.147   6.543   2.216 -0.3048 -0.1181 -0.1490
20188TIP3    H182055   6.071   6.502   2.175  1.5220 -2.0236 -1.7468
20188TIP3    H282056   6.206   6.470   2.237  1.6886  1.4082 -0.2353
20189TIP3   OH282057   4.935   0.310   0.862 -0.0316 -0.3486  0.3416
20189TIP3    H182058   4.856   0.257   0.854 -0.6302  0.6251 -0.2426
20189TIP3    H282059   4.928   0.353   0.947  0.1723 -0.7291  0.5558
20190TIP3   OH282060   2.375   6.775   1.180 -0.0012 -0.3528  0.2902
20190TIP3    H182061   2.446   6.808   1.235  0.4916 -0.2591 -0.3926
20190TIP3    H282062   2.337   6.702   1.229 -0.7436  0.8763  1.5735
20191TIP3   OH282063   2.985   4.756   3.922  0.1085 -0.8406  0.0859
20191TIP3    H182064   3.001   4.838   3.968 -0.9141 -0.5624 -0.0317
20191TIP3    H282065   3.024   4.769   3.835 -2.6656  0.7043 -1.0135
20192TIP3   OH282066   4.367   3.070  16.984 -0.2202 -0.0611 -0.0935
20192TIP3    H182067   4.306   3.078  17.057 -0.9912 -1.8284 -0.5275
20192TIP3    H282068   4.344   3.141  16.925 -2.0291 -0.8859 -0.3809
20193TIP3   OH282069   2.112   3.443  11.682 -0.5040  0.2762 -0.4816
20193TIP3    H182070   2.148   3.505  11.745  1.8715 -1.8636  0.3462
20193TIP3    H282071   2.178   3.439  11.612  0.6514 -3.1414  0.7031
20194TIP3   OH282072   2.989   2.461  11.026 -0.2267 -0.3841  0.4968
20194TIP3    H182073   2.922   2.502  10.971  0.2795 -2.4884 -1.8081
20194TIP3    H282074   2.940   2.408  11.089 -0.8214 -2.5630 -1.6949
20195TIP3   OH282075   6.734   3.945   0.261  0.0586  0.2467 -0.2228
20195TIP3    H182076   6.766   3.856   0.277 -0.6425 -0.2565 -1.5166
20195TIP3    H282077   6.761   3.994   0.339 -1.5154 -1.6117  1.5565
20196TIP3   OH282078   1.809   2.922   2.657 -0.4375 -0.6348  0.3072
20196TIP3    H182079   1.748   2.891   2.724 -0.6794  1.1461  0.9397
20196TIP3    H282080   1.753   2.963   2.591 -0.2446 -2.8962 -1.2998
20197TIP3   OH282081   4.359   0.030  15.694 -0.0317 -0.7318  0.0487
20197TIP3    H182082   4.361   0.052  15.787  1.3292  0.4221 -0.2272
20197TIP3    H282083   4.321   0.107  15.652 -0.9898 -1.3972 -0.3205
20198TIP3   OH282084   6.088   1.047  16.485  0.3732 -0.0879  0.2082
20198TIP3    H182085   6.066   1.085  16.570  0.6575 -0.0990  0.2881
20198TIP3    H282086   6.184   1.040  16.486  0.2528 -2.0143  0.7246
20199TIP3   OH282087   0.331   1.308   0.324  0.6010 -0.1252 -0.2610
20199TIP3    H182088   0.278   1.248   0.271  0.2682  0.6735 -0.8466
20199TIP3    H282089   0.401   1.337   0.264 -0.2027  1.3556 -0.5096
20200TIP3   OH282090   4.141   0.008  16.918  0.4286  0.2108 -0.3671
20200TIP3    H182091   4.201  -0.056  16.879  0.1700  0.1397 -0.6513
20200TIP3    H282092   4.172   0.017  17.008  0.2756 -0.5539 -0.2332
20201TIP3   OH282093   1.033   3.030  17.139 -0.3898  0.2655 -0.2950
20201TIP3    H182094   0.960   2.998  17.086  0.9773 -0.5170 -1.7331
20201TIP3    H282095   1.046   3.120  17.108 -2.4129  1.3212  1.7952
20202TIP3   OH282096   2.126   6.332   1.435  0.0302 -0.9712  0.0422
20202TIP3    H182097   2.121   6.341   1.340  0.9840  3.4446  0.3215
20202TIP3    H282098   2.202   6.275   1.449  0.1809 -1.2554 -1.7798
20203TIP3   OH282099   3.630   3.263   6.307 -0.3039 -0.1352 -0.2367
20203TIP3    H182100   3.578   3.264   6.388 -1.0356 -2.5850 -0.6554
20203TIP3    H282101   3.694   3.194   6.321 -0.3870 -0.5168 -1.7245
20204TIP3   OH282102   1.940   0.648   5.112  0.6298  0.3705  0.5523
20204TIP3    H182103   1.928   0.608   5.025  0.3000  2.5623 -0.4464
20204TIP3    H282104   1.851   0.657   5.147  0.5225  2.1820 -0.1508
20205TIP3   OH282105   5.699   0.510   4.634 -0.5057  0.2936  0.1084
20205TIP3    H182106   5.650   0.495   4.715 -0.9735 -0.3558 -0.2878
20205TIP3    H282107   5.773   0.565   4.661 -0.9624  0.5440  0.8726
20206TIP3   OH282108   4.245   3.676  14.062 -0.1825  0.0765 -0.0815
20206TIP3    H182109   4.334   3.682  14.098  0.5309  1.4423 -1.9778
20206TIP3    H282110   4.248   3.599  14.005 -1.0551 -1.5595  2.0266
20207TIP3   OH282111   4.908   4.176  15.274 -0.6621  0.1172 -0.3849
20207TIP3    H182112   5.000   4.152  15.267 -0.2776  1.7920 -1.2587
20207TIP3    H282113   4.873   4.160  15.186 -0.7834  1.2051 -0.5298
20208TIP3   OH282114   3.464   4.176  15.088 -0.4841 -0.1012  0.1216
20208TIP3    H182115   3.456   4.177  15.183  1.4501  0.9789  0.3016
20208TIP3    H282116   3.385   4.130  15.058 -1.8486  0.8346  2.1464
20209TIP3   OH282117   5.945   3.912   4.246  0.4231 -0.1803 -0.5116
20209TIP3    H182118   5.867   3.858   4.250  0.6738 -0.5424 -0.4865
20209TIP3    H282119   6.011   3.856   4.205  1.2384 -0.5758  1.2797
20210TIP3   OH282120   6.349   4.076   1.177  0.2367  0.3154  0.9430
20210TIP3    H182121   6.359   4.082   1.272 -0.4236  1.8467  0.9285
20210TIP3    H282122   6.299   3.995   1.163  0.3571  0.0776  1.8883
20211TIP3   OH282123   4.729   2.021   3.773 -0.9657  0.2058 -0.1039
20211TIP3    H182124   4.792   2.079   3.728 -1.7581  1.7972  0.7758
20211TIP3    H282125   4.727   1.942   3.719  1.1237  0.4676 -0.6455
20212TIP3   OH282126   3.934   6.801  13.682 -0.0817 -0.2706  0.0979
20212TIP3    H182127   3.967   6.886  13.651  0.1478 -0.4033 -0.0244
20212TIP3    H282128   4.007   6.741  13.668 -1.1409 -1.0676 -2.3834
20213TIP3   OH282129   0.862   1.748   3.012 -0.6288  0.4389  0.1572
20213TIP3    H182130   0.786   1.729   3.066 -0.2033  1.8468  1.2567
20213TIP3    H282131   0.921   1.798   3.068  1.2574 -0.8829 -0.5712
20214TIP3   OH282132   0.303   0.647   2.804  0.4157 -0.3844  0.0824
20214TIP3    H182133   0.392   0.677   2.826  0.0226 -0.5057  1.9152
20214TIP3    H282134   0.309   0.620   2.712  2.0213  0.5780 -0.1184
20215TIP3   OH282135   2.329   5.453   4.452  0.1796 -0.2300 -0.0199
20215TIP3    H182136   2.248   5.448   4.401  0.2174  1.2600 -0.2449
20215TIP3    H282137   2.381   5.520   4.407 -0.1887  1.8253  2.5518
20216TIP3   OH282138   3.237   4.511  15.187 -0.3001 -0.2164 -0.3026
20216TIP3    H182139   3.291   4.470  15.120 -0.5908 -1.6198  0.3009
20216TIP3    H282140   3.235   4.447  15.259 -1.2285  0.6131  0.4252
20217TIP3   OH282141   4.708   2.378   3.762  0.2009 -0.2325  0.3470
20217TIP3    H182142   4.637   2.375   3.698 -0.3116  1.5447  0.8019
20217TIP3    H282143   4.788   2.363   3.711 -0.0930  2.3191 -0.9000
20218TIP3   OH282144   4.981   5.019   5.540 -0.0360 -0.0245  0.0193
20218TIP3    H182145   5.033   5.060   5.471  0.9901 -1.0509  0.1684
20218TIP3    H282146   4.979   5.084   5.610 -0.8416  0.9079 -0.8527
20219TIP3   OH282147   6.297   6.094  10.571  0.1702 -0.3611 -0.1002
20219TIP3    H182148   6.211   6.134  10.586  0.2896  0.3251 -1.1478
20219TIP3    H282149   6.278   6.002  10.552 -0.3815 -0.1189 -0.7544
20220TIP3   OH282150   4.378   3.010   3.251 -0.1000  0.0157  0.1712
20220TIP3    H182151   4.433   2.945   3.293 -0.5077 -1.8715 -2.1065
20220TIP3    H282152   4.292   2.968   3.246 -0.2801  0.5700 -1.6423
20221TIP3   OH282153   2.439   3.150  14.001 -0.1475  0.6197  1.1258
20221TIP3    H182154   2.522   3.116  13.967 -0.3638 -0.1923  1.4037
20221TIP3    H282155   2.424   3.230  13.951  0.4384  0.3756  0.5516
20222TIP3   OH282156   3.933   1.899  16.183  0.3544  0.1701 -0.0421
20222TIP3    H182157   4.022   1.866  16.194 -0.0997 -1.2172 -0.5303
20222TIP3    H282158   3.929   1.926  16.091 -0.0538 -0.7071 -0.2763
20223TIP3   OH282159   6.159   4.740  14.804 -0.1006  0.3153 -0.1498
20223TIP3    H182160   6.080   4.704  14.844 -0.6491  0.2467 -1.2742
20223TIP3    H282161   6.210   4.774  14.878 -1.3496  0.6989  0.5556
20224TIP3   OH282162   4.929   5.181   6.209 -0.0894  0.0838  0.2152
20224TIP3    H182163   4.912   5.206   6.118  0.2969 -0.6993 -0.0705
20224TIP3    H282164   4.889   5.095   6.218 -0.9524  0.5591  1.0561
20225TIP3   OH282165   2.932   4.469   3.915 -0.1289 -0.1229  0.1403
20225TIP3    H182166   2.908   4.440   3.827  1.0241  1.1023 -0.5958
20225TIP3    H282167   2.945   4.563   3.907  0.2888 -0.0426  1.5534
20226TIP3   OH282168   1.707   6.423  12.450  0.5873  0.3372  0.2048
20226TIP3    H182169   1.800   6.412  12.468  0.1108  0.8925  3.2630
20226TIP3    H282170   1.686   6.512  12.478 -0.6329  0.6402 -1.5659
20227TIP3   OH282171   1.655   2.136  16.507  0.6102  0.2754 -0.0357
20227TIP3    H182172   1.564   2.109  16.499  1.0091 -1.4314  1.0993
20227TIP3    H282173   1.706   2.059  16.483  1.7456  0.4420  1.7060
20228TIP3   OH282174   6.802   6.605  15.451  0.0266  0.4419  0.1954
20228TIP3    H182175   6.764   6.571  15.532 -1.5925  0.3077 -0.5997
20228TIP3    H282176   6.879   6.550  15.435  1.3643  1.5740  2.5363
20229TIP3   OH282177   0.669   5.387  16.126 -0.5742 -0.2486 -0.1890
20229TIP3    H182178   0.603   5.400  16.194 -1.8484 -4.6059 -0.4395
20229TIP3    H282179   0.627   5.417  16.046  0.0813  2.6798  0.4728
20230TIP3   OH282180   4.425   2.847  15.130  0.1911 -0.1298 -0.0442
20230TIP3    H182181   4.432   2.937  15.101 -0.2144  0.0566  0.4277
20230TIP3    H282182   4.445   2.850  15.224  0.5888 -0.5878 -0.1133
20231TIP3   OH282183   6.326   3.513   2.107 -0.1580  0.4799 -0.2237
20231TIP3    H182184   6.246   3.465   2.131  1.3808 -3.0387 -1.7846
20231TIP3    H282185   6.305   3.554   2.024 -0.3866 -0.4127 -0.6153
20232TIP3   OH282186   1.049   0.747  17.027  0.3067 -0.3574  0.2687
20232TIP3    H182187   0.993   0.819  17.058  0.3775 -1.0868  2.1889
20232TIP3    H282188   1.137   0.770  17.057  0.2970 -1.3088  1.0851
20233TIP3   OH282189   3.938   5.570  15.594 -0.2309  0.4562  0.3636
20233TIP3    H182190   3.946   5.640  15.659 -0.6564 -0.9288  1.9726
20233TIP3    H282191   4.016   5.579  15.540 -0.1360  1.9880  0.7254
20234TIP3   OH282192   4.937   1.645  12.968 -0.7418  0.2984 -0.2410
20234TIP3    H182193   4.918   1.556  12.995 -0.8069  0.1460 -0.7770
20234TIP3    H282194   4.851   1.684  12.949 -0.5316 -0.5610 -3.1859
20235TIP3   OH282195   3.539   4.923  17.246  0.3988  0.3845 -0.1424
20235TIP3    H182196   3.548   5.014  17.273  1.0593  0.7944 -1.7104
20235TIP3    H282197   3.574   4.873  17.320  0.4774  1.4166  0.5274
20236TIP3   OH282198   4.217   0.515  12.335 -0.7886  0.3334  0.0464
20236TIP3    H182199   4.175   0.533  12.251 -0.2833 -1.0989 -0.5304
20236TIP3    H282200   4.252   0.600  12.363  0.8752  0.4568 -2.2261
20237TIP3   OH282201   5.762   1.406   1.906  0.6136 -0.4624  0.7294
20237TIP3    H182202   5.745   1.312   1.912  3.2227 -1.0427 -0.1888
20237TIP3    H282203   5.709   1.436   1.833  2.1527 -1.8838 -1.0218
20238TIP3   OH282204   2.817   0.938   1.909  0.1023  0.5318  0.1362
20238TIP3    H182205   2.749   0.911   1.970 -0.6203  2.4212  0.2005
20238TIP3    H282206   2.784   1.019   1.870  0.2452 -0.9658 -3.2690
20239TIP3   OH282207   3.195   1.769  12.098 -0.1832  0.2358  0.3023
20239TIP3    H182208   3.135   1.730  12.034 -0.0222  0.0991  0.2341
20239TIP3    H282209   3.182   1.718  12.177  3.1458 -2.7833 -0.9921
20240TIP3   OH282210   2.018   4.358  17.050  0.4434 -0.8066 -0.5870
20240TIP3    H182211   2.103   4.376  17.090  0.3494  0.3524 -0.8844
20240TIP3    H282212   1.982   4.287  17.102  1.5303 -1.2061 -0.3576
20241TIP3   OH282213   0.672   0.048   2.009  0.3303 -0.2210 -0.4165
20241TIP3    H182214   0.581   0.022   2.016 -0.4223  1.8107 -2.1264
20241TIP3    H282215   0.674   0.138   2.040  1.6671 -0.0845 -0.8614
20242LIG     O182216   5.235   5.251  16.621  0.1520 -0.3631  0.2984
20242LIG     O282217   5.199   5.386  16.415 -0.0025  0.3624 -0.0185
20242LIG     O382218   5.449   5.446  16.710  0.2081 -0.0247 -0.4742
20242LIG     O482219   5.040   5.502  16.285  0.2868  0.0005  0.2225
20242LIG     O582220   5.166   5.593  16.616 -0.1336 -0.1966  0.5663
20242LIG     O682221   5.068   5.854  16.493 -0.1230 -0.2154 -0.0201
20242LIG     O782222   4.834   5.799  16.327 -0.3425 -0.1554 -0.3069
20242LIG     O882223   4.831   5.426  16.122  0.2378  0.0066  0.6666
20242LIG     O982224   4.764   5.634  16.089  0.0526 -0.0424  0.5354
20242LIG      N82225   5.386   4.784  16.487 -0.1829 -0.3659 -0.1016
20242LIG     C182226   5.280   5.048  16.510 -0.5843  0.5953  0.0691
20242LIG     C282227   5.303   4.990  16.376  0.1022  0.2612 -0.0401
20242LIG     C382228   5.178   5.169  16.520  0.6067  0.3989 -0.0353
20242LIG     C482229   5.423   4.892  16.391  0.9757 -0.5002  0.6883
20242LIG     C582230   5.247   4.942  16.614  0.0009  0.5218 -0.3548
20242LIG     C682231   5.407   5.110  16.555 -0.1904  0.7009 -0.1128
20242LIG     C782232   5.557   4.965  16.427  0.5217 -0.9793  0.0406
20242LIG     C882233   5.356   4.833  16.628 -0.1702 -0.4480 -0.5331
20242LIG     C982234   5.168   5.253  16.392 -0.3952  0.0647  0.5993
20242LIG    C1082235   5.537   5.084  16.515 -0.7576 -0.3056 -0.3823
20242LIG    C1182236   5.314   5.094  16.263 -0.4263 -0.2290  0.1901
20242LIG    C1282237   5.375   5.230  16.616  0.1821 -0.1385 -1.0934
20242LIG    C1382238   5.259   5.218  16.268 -0.2720  0.4320  0.0167
20242LIG    C1482239   5.461   4.659  16.488  0.5282  0.7993  0.3328
20242LIG    C1582240   5.645   5.173  16.555  0.4722  0.2060 -0.3509
20242LIG    C1682241   5.473   5.317  16.654 -0.0868  0.2049 -0.7853
20242LIG    C1782242   5.609   5.290  16.623 -0.4101 -0.9592 -0.4071
20242LIG    C1882243   5.083   5.472  16.418 -0.5326  0.6333  0.7245
20242LIG    C1982244   5.122   5.608  16.479  0.3558 -0.2229  0.5933
20242LIG    C2082245   5.019   5.719  16.459  0.0719 -0.0451  0.3995
20242LIG    C2182246   4.947   5.718  16.323 -0.4306  0.8037  0.4951
20242LIG    C2282247   4.915   5.570  16.293  0.2472 -0.2526 -0.5134
20242LIG    C2382248   4.827   5.554  16.159  0.5625  0.1553 -0.3122
20242LIG     H182249   5.219   4.924  16.345  0.9398  0.5277 -3.0230
20242LIG     H282250   5.084   5.136  16.569  0.3363 -0.2447 -0.9754
20242LIG     H382251   5.436   4.834  16.297  1.5801 -2.1496  1.7575
20242LIG     H482252   5.155   4.893  16.578 -0.6631 -0.6138  2.6778
20242LIG     H582253   5.227   4.984  16.715 -0.5237  0.3807 -0.4040
20242LIG     H682254   5.612   4.989  16.333 -1.8166  1.6857 -0.7137
20242LIG     H782255   5.625   4.898  16.485 -0.5538 -2.3236 -0.2262
20242LIG     H882256   5.456   4.871  16.655 -0.9763  1.0752  0.4259
20242LIG     H982257   5.315   4.745  16.683 -1.3757 -0.8193 -1.9845
20242LIG    H1082258   5.061   5.245  16.360  0.1535  2.7934 -2.2535
20242LIG    H1182259   5.375   5.060  16.178  0.4091 -0.9833  1.0782
20242LIG    H1282260   5.237   5.279  16.179 -2.5813  0.9026  0.8670
20242LIG    H1382261   5.571   4.666  16.482  0.7761 -3.2160 -0.7500
20242LIG    H1482262   5.426   4.598  16.403  0.0816  1.7126 -0.1432
20242LIG    H1582263   5.429   4.600  16.577 -3.7256  1.5303 -0.5830
20242LIG    H1682264   5.747   5.141  16.535  0.6767  0.4580  0.2942
20242LIG    H1782265   5.682   5.359  16.660 -0.7468  0.3781 -2.1629
20242LIG    H1882266   4.999   5.431  16.478  0.8727 -0.5541  1.8902
20242LIG    H1982267   5.217   5.645  16.436  1.6890 -1.9748  1.9567
20242LIG    H2082268   4.936   5.696  16.529  1.6400 -0.2096  2.2240
20242LIG    H2182269   5.522   5.501  16.680  1.1167 -0.1455  1.4063
20242LIG    H2282270   5.011   5.753  16.240 -1.2980  2.3938  0.4997
20242LIG    H2382271   4.853   5.520  16.370 -0.3492  2.8880  1.1125
20242LIG    H2482272   5.227   5.520  16.617 -0.3206 -0.3803 -0.6026
20242LIG    H2582273   4.990   5.909  16.502  0.4176  0.6865 -0.8738
20242LIG    H2682274   4.861   5.881  16.285 -0.5249  0.1984  0.2575
20242LIG    H2782275   4.764   5.413  16.054 -1.5142 -1.1066  2.5563
   6.82013   6.82013  17.29240
